
                                 *****************
                                 * O   R   C   A *
                                 *****************

                                            #,                                       
                                            ###                                      
                                            ####                                     
                                            #####                                    
                                            ######                                   
                                           ########,                                 
                                     ,,################,,,,,                         
                               ,,#################################,,                 
                          ,,##########################################,,             
                       ,#########################################, ''#####,          
                    ,#############################################,,   '####,        
                  ,##################################################,,,,####,       
                ,###########''''           ''''###############################       
              ,#####''   ,,,,##########,,,,          '''####'''          '####       
            ,##' ,,,,###########################,,,                        '##       
           ' ,,###''''                  '''############,,,                           
         ,,##''                                '''############,,,,        ,,,,,,###''
      ,#''                                            '''#######################'''  
     '                                                          ''''####''''         
             ,#######,   #######,   ,#######,      ##                                
            ,#'     '#,  ##    ##  ,#'     '#,    #''#        ######   ,####,        
            ##       ##  ##   ,#'  ##            #'  '#       #        #'  '#        
            ##       ##  #######   ##           ,######,      #####,   #    #        
            '#,     ,#'  ##    ##  '#,     ,#' ,#      #,         ##   #,  ,#        
             '#######'   ##     ##  '#######'  #'      '#     #####' # '####'        



                  #######################################################
                  #                        -***-                        #
                  #          Department of theory and spectroscopy      #
                  #    Directorship and core code : Frank Neese         #
                  #        Max Planck Institute fuer Kohlenforschung    #
                  #                Kaiser Wilhelm Platz 1               #
                  #                 D-45470 Muelheim/Ruhr               #
                  #                      Germany                        #
                  #                                                     #
                  #                  All rights reserved                #
                  #                        -***-                        #
                  #######################################################



                         Program Version 5.0.4 -  RELEASE  -

 With contributions from (in alphabetic order):
   Daniel Aravena         : Magnetic Suceptibility
   Michael Atanasov       : Ab Initio Ligand Field Theory (pilot matlab implementation)
   Alexander A. Auer      : GIAO ZORA, VPT2 properties, NMR spectrum
   Ute Becker             : Parallelization
   Giovanni Bistoni       : ED, misc. LED, open-shell LED, HFLD
   Martin Brehm           : Molecular dynamics
   Dmytro Bykov           : SCF Hessian
   Vijay G. Chilkuri      : MRCI spin determinant printing, contributions to CSF-ICE
   Dipayan Datta          : RHF DLPNO-CCSD density
   Achintya Kumar Dutta   : EOM-CC, STEOM-CC
   Dmitry Ganyushin       : Spin-Orbit,Spin-Spin,Magnetic field MRCI
   Miquel Garcia          : C-PCM and meta-GGA Hessian, CC/C-PCM, Gaussian charge scheme
   Yang Guo               : DLPNO-NEVPT2, F12-NEVPT2, CIM, IAO-localization
   Andreas Hansen         : Spin unrestricted coupled pair/coupled cluster methods
   Benjamin Helmich-Paris : MC-RPA, TRAH-SCF, COSX integrals
   Lee Huntington         : MR-EOM, pCC
   Robert Izsak           : Overlap fitted RIJCOSX, COSX-SCS-MP3, EOM
   Marcus Kettner         : VPT2
   Christian Kollmar      : KDIIS, OOCD, Brueckner-CCSD(T), CCSD density, CASPT2, CASPT2-K
   Simone Kossmann        : Meta GGA functionals, TD-DFT gradient, OOMP2, MP2 Hessian
   Martin Krupicka        : Initial AUTO-CI
   Lucas Lang             : DCDCAS
   Marvin Lechner         : AUTO-CI (C++ implementation), FIC-MRCC
   Dagmar Lenk            : GEPOL surface, SMD
   Dimitrios Liakos       : Extrapolation schemes; Compound Job, initial MDCI parallelization
   Dimitrios Manganas     : Further ROCIS development; embedding schemes
   Dimitrios Pantazis     : SARC Basis sets
   Anastasios Papadopoulos: AUTO-CI, single reference methods and gradients
   Taras Petrenko         : DFT Hessian,TD-DFT gradient, ASA, ECA, R-Raman, ABS, FL, XAS/XES, NRVS
   Peter Pinski           : DLPNO-MP2, DLPNO-MP2 Gradient
   Christoph Reimann      : Effective Core Potentials
   Marius Retegan         : Local ZFS, SOC
   Christoph Riplinger    : Optimizer, TS searches, QM/MM, DLPNO-CCSD(T), (RO)-DLPNO pert. Triples
   Tobias Risthaus        : Range-separated hybrids, TD-DFT gradient, RPA, STAB
   Michael Roemelt        : Original ROCIS implementation
   Masaaki Saitow         : Open-shell DLPNO-CCSD energy and density
   Barbara Sandhoefer     : DKH picture change effects
   Avijit Sen             : IP-ROCIS
   Kantharuban Sivalingam : CASSCF convergence, NEVPT2, FIC-MRCI
   Bernardo de Souza      : ESD, SOC TD-DFT
   Georgi Stoychev        : AutoAux, RI-MP2 NMR, DLPNO-MP2 response
   Willem Van den Heuvel  : Paramagnetic NMR
   Boris Wezisla          : Elementary symmetry handling
   Frank Wennmohs         : Technical directorship


 We gratefully acknowledge several colleagues who have allowed us to
 interface, adapt or use parts of their codes:
   Stefan Grimme, W. Hujo, H. Kruse, P. Pracht,  : VdW corrections, initial TS optimization,
                  C. Bannwarth, S. Ehlert          DFT functionals, gCP, sTDA/sTD-DF
   Ed Valeev, F. Pavosevic, A. Kumar             : LibInt (2-el integral package), F12 methods
   Garnet Chan, S. Sharma, J. Yang, R. Olivares  : DMRG
   Ulf Ekstrom                                   : XCFun DFT Library
   Mihaly Kallay                                 : mrcc  (arbitrary order and MRCC methods)
   Jiri Pittner, Ondrej Demel                    : Mk-CCSD
   Frank Weinhold                                : gennbo (NPA and NBO analysis)
   Christopher J. Cramer and Donald G. Truhlar   : smd solvation model
   Lars Goerigk                                  : TD-DFT with DH, B97 family of functionals
   V. Asgeirsson, H. Jonsson                     : NEB implementation
   FAccTs GmbH                                   : IRC, NEB, NEB-TS, DLPNO-Multilevel, CI-OPT
                                                   MM, QMMM, 2- and 3-layer-ONIOM, Crystal-QMMM,
                                                   LR-CPCM, SF, NACMEs, symmetry and pop. for TD-DFT,
                                                   nearIR, NL-DFT gradient (VV10), updates on ESD,
                                                   ML-optimized integration grids
   S Lehtola, MJT Oliveira, MAL Marques          : LibXC Library
   Liviu Ungur et al                             : ANISO software


 Your calculation uses the libint2 library for the computation of 2-el integrals
 For citations please refer to: http://libint.valeyev.net

 Your ORCA version has been built with support for libXC version: 5.1.0
 For citations please refer to: https://tddft.org/programs/libxc/

 This ORCA versions uses:
   CBLAS   interface :  Fast vector & matrix operations
   LAPACKE interface :  Fast linear algebra routines
   Shared memory     :  Shared parallel matrices


================================================================================

----- Orbital basis set information -----
Your calculation utilizes the basis: cc-pVTZ 
       H, B-Ne : Obtained from the ccRepo (grant-hill.group.shef.ac.uk/ccrepo) Feb. 2017
                 T. H. Dunning, Jr., J. Chem. Phys. 90, 1007 (1989)
            He : Obtained from the ccRepo (grant-hill.group.shef.ac.uk/ccrepo) Feb. 2017
                 D. E. Woon, T. H. Dunning, Jr., J. Chem. Phys. 100, 2975 (1994)
  Li-Be, Na-Mg : Obtained from the ccRepo (grant-hill.group.shef.ac.uk/ccrepo) Feb. 2017
                 B. P. Prascher, D. E. Woon, K. A. Peterson, T. H. Dunning, Jr., A. K. Wilson, Theor. Chem. Acc. 128, 69 (2011)
         Al-Ar : Obtained from the ccRepo (grant-hill.group.shef.ac.uk/ccrepo) Feb. 2017
                 D. E. Woon, T. H. Dunning, Jr., J. Chem. Phys. 98, 1358 (1993)
            Ca : Obtained from the Peterson Research Group Website (tyr0.chem.wsu.edu/~kipeters) Feb. 2017
                 J. Koput, K. A. Peterson, J. Phys. Chem. 106, 9595 (2002)
         Sc-Zn : Obtained from the ccRepo (grant-hill.group.shef.ac.uk/ccrepo) Feb. 2017
                 N. B. Balabanov, K. A. Peterson, J. Chem. Phys. 123, 064107 (2005)
                 N. B. Balabanov, K. A. Peterson, J. Chem. Phys. 125, 074110 (2006)
         Ga-Kr : Obtained from the ccRepo (grant-hill.group.shef.ac.uk/ccrepo) Feb. 2017
                 A. K. Wilson, D. E. Woon, K. A. Peterson, T. H. Dunning, Jr., J. Chem. Phys. 110, 7667 (1999)
             Y : Obtained from the ccRepo (grant-hill.group.shef.ac.uk/ccrepo) Feb. 2017
                 K. A. Peterson, D. Figgen, M. Dolg, H. Stoll, J. Chem. Phys. 126, 124101 (2007)
        Ag, Au : Obtained from the Peterson Research Group Website (tyr0.chem.wsu.edu/~kipeters) Feb. 2017
                 K. A. Peterson, C. Puzzarini, Theor. Chem. Acc. 114, 283 (2005)

----- AuxJ basis set information -----
Your calculation utilizes the auxiliary basis: def2/J
   F. Weigend, Phys. Chem. Chem. Phys. 8, 1057 (2006).

================================================================================
                                        WARNINGS
                       Please study these warnings very carefully!
================================================================================


INFO   : the flag for use of the SHARK integral package has been found!

================================================================================
                                       INPUT FILE
================================================================================
NAME = enzym_test.inp
|  1> !BP86 cc-pVTZ SLOWCONV
|  2> 
|  3> %scf
|  4> maxIter 1000
|  5> end
|  6> 
|  7> * xyz -9 1
|  8>    N      -14.18385       14.37601        0.20846
|  9>    C      -12.74356       14.13281        0.27931
| 10>    C      -12.28527       13.80226        1.68495
| 11>    O      -11.11237       13.48217        1.81933
| 12>    H      -14.68205       13.49862        0.48853
| 13>    H      -12.50766       13.25173       -0.36108
| 14>    C      -11.96913       15.33564       -0.26325
| 15>    H      -12.26636       15.53488       -1.31435
| 16>    H      -12.17344       16.23654        0.35216
| 17>    H      -10.87652       15.12853       -0.25230
| 18>    H      -14.44714       14.55232       -0.78809
| 19>    N      -13.13206       13.80536        2.76662
| 20>    C      -12.72688       13.28553        4.06827
| 21>    C      -13.46050       11.97512        4.37254
| 22>    O      -13.11958       11.35164        5.36765
| 23>    C      -12.76047       14.37269        5.16393
| 24>    H      -13.78803       14.62954        5.49647
| 25>    H      -12.36645       15.29063        4.67157
| 26>    C      -11.75630       14.09934        6.32556
| 27>    H      -11.01007       14.92006        6.32673
| 28>    H      -11.15833       13.17900        6.14301
| 29>    C      -12.39875       13.99723        7.71339
| 30>    H      -13.09347       13.13007        7.69609
| 31>    H      -12.98555       14.90699        7.96016
| 32>    N      -11.38506       13.77002        8.73486
| 33>    H      -11.39120       12.85546        9.21111
| 34>    C      -10.38118       14.71636        9.13310
| 35>    N       -9.37390       14.30574       10.04921
| 36>    H       -8.64112       14.96116       10.36056
| 37>    H       -9.35810       13.34287       10.41430
| 38>    N      -10.37778       15.93292        8.69774
| 39>    H      -11.09539       16.28951        8.05456
| 40>    H       -9.64839       16.59496        9.00283
| 41>    H      -14.10902       14.11261        2.66220
| 42>    H      -11.66186       12.99961        3.99988
| 43>    N      -14.31531       11.40299        3.44727
| 44>    C      -14.58418        9.96397        3.40871
| 45>    C      -13.86131        9.31918        2.20105
| 46>    O      -13.71453        8.10387        2.21479
| 47>    C      -16.07762        9.61839        3.43639
| 48>    H      -16.58304       10.17677        4.25294
| 49>    H      -16.53000        9.91859        2.46820
| 50>    C      -16.27157        8.13987        3.71038
| 51>    O      -15.93357        7.68256        4.79185
| 52>    N      -16.79680        7.31280        2.77922
| 53>    H      -17.07393        7.66559        1.85339
| 54>    H      -16.90283        6.30653        2.98148
| 55>    H      -14.13232        9.51720        4.31867
| 56>    H      -14.64176       11.94334        2.63785
| 57>    N      -13.23759       10.07288        1.22728
| 58>    C      -12.05484        9.58472        0.52266
| 59>    C      -10.83096       10.12382        1.26214
| 60>    O       -9.71648        9.87557        0.84648
| 61>    C      -12.04808        9.87146       -0.99838
| 62>    C      -10.87357        9.12153       -1.69770
| 63>    C      -10.80553        9.24745       -3.19165
| 64>    O      -11.63106        9.90473       -3.80620
| 65>    N       -9.79909        8.62921       -3.85724
| 66>    H      -11.99897        8.48083        0.61563
| 67>    H      -13.36911       11.09071        1.18690
| 68>    H      -11.98843       10.96338       -1.18898
| 69>    H      -12.99672        9.47900       -1.42168
| 70>    H      -10.94058        8.03733       -1.45513
| 71>    H       -9.89657        9.49880       -1.35325
| 72>    H       -9.71588        8.70320       -4.88110
| 73>    H       -9.09255        8.07688       -3.34536
| 74>    N      -10.95796       10.73357        2.47572
| 75>    C       -9.95286       10.55149        3.48950
| 76>    C      -10.53916        9.95813        4.76833
| 77>    O      -10.11066       10.25544        5.86868
| 78>    C       -8.95333       11.67820        3.60038
| 79>    H       -9.44816       12.65518        3.76293
| 80>    H       -8.34017       11.46460        4.49415
| 81>    C       -7.99220       11.69024        2.38839
| 82>    H       -7.51435       10.69831        2.27296
| 83>    H       -8.50313       11.97691        1.45018
| 84>    C       -6.90836       12.64478        2.68974
| 85>    O       -5.85704       12.80197        1.84983
| 86>    O       -7.00569       13.51147        4.21564
| 87>    H       -7.00569       13.51147        4.29564
| 88>    H      -11.87469       10.95023        2.84046
| 89>    H       -9.35076        9.70524        3.17095
| 90>    N      -11.40895        8.92775        4.62931
| 91>    C      -11.43793        7.75435        5.47948
| 92>    C      -11.16029        6.50956        4.58984
| 93>    O      -11.15405        5.41369        5.11875
| 94>    H      -10.62851        7.82162        6.24338
| 95>    C      -12.75702        7.67927        6.24861
| 96>    H      -12.91430        8.63325        6.79790
| 97>    S      -12.75858        6.33652        7.48913
| 98>    H      -13.60879        7.54603        5.56350
| 99>    H      -12.37225        7.17518        8.55540
|100>    H      -11.92968        8.85743        3.75992
|101>    N      -10.85219        6.61702        3.24713
|102>    C      -10.34378        5.55471        2.38459
|103>    C       -8.92903        5.96399        1.99765
|104>    O       -8.00298        5.22347        2.26880
|105>    C      -11.21479        5.34661        1.13401
|106>    C      -10.59634        4.24414        0.25452
|107>    C      -11.39759        3.97385       -1.01589
|108>    C      -10.68345        2.90616       -1.85413
|109>    N      -11.42793        2.62761       -3.07549
|110>    H      -10.32840        4.59231        2.92561
|111>    H      -11.28695        6.28469        0.54762
|112>    H      -12.23810        5.04917        1.44936
|113>    H      -10.51778        3.30480        0.84580
|114>    H       -9.57361        4.55299       -0.05458
|115>    H      -11.47937        4.91241       -1.60703
|116>    H      -12.41754        3.62333       -0.74710
|117>    H      -10.59416        1.96894       -1.26136
|118>    H       -9.65799        3.25409       -2.11698
|119>    H      -10.91561        1.88596       -3.60603
|120>    H      -11.44073        3.48880       -3.66877
|121>    H      -10.85055        7.52568        2.78476
|122>    N       -8.69858        7.17903        1.42630
|123>    C       -7.38564        7.79773        1.30669
|124>    C       -6.78536        8.18506        2.66895
|125>    O       -5.60643        8.50475        2.70901
|126>    H       -6.73142        7.09022        0.76063
|127>    H       -7.43984        8.72073        0.69317
|128>    H       -9.51074        7.69492        1.09754
|129>    N       -7.52154        8.16612        3.82679
|130>    C       -6.95306        8.16623        5.17761
|131>    C       -7.53840        6.99475        5.97975
|132>    O       -7.24211        6.90561        7.15060
|133>    C       -6.96648        9.55165        5.85428
|134>    C       -6.17637        9.69757        7.14406
|135>    O       -5.23099       10.47163        7.16978
|136>    O       -6.65839        8.85269        8.69675
|137>    H       -5.86474        7.96410        5.10343
|138>    H       -7.97112        9.85901        6.08034
|139>    H       -6.51710       10.25683        5.11932
|140>    H       -6.65839        8.84269        8.71675
|141>    H       -8.52355        7.97559        3.76590
|142>    N       -8.18453        5.94346        5.36582
|143>    C       -7.76824        4.58160        5.65608
|144>    C       -6.44257        4.31437        4.91805
|145>    O       -5.85576        3.29599        5.20042
|146>    H       -7.64259        4.49615        6.74419
|147>    C       -8.80484        3.50830        5.29382
|148>    H       -9.74674        3.69636        5.83800
|149>    H       -9.00886        3.51675        4.20592
|150>    O       -8.36083        2.23714        5.69751
|151>    H       -8.04138        1.75915        4.88774
|152>    H       -8.47076        6.03681        4.40512
|153>    N       -5.87272        5.23150        4.05662
|154>    C       -4.48354        5.28934        3.60581
|155>    C       -3.80670        6.31074        4.51573
|156>    O       -3.17097        7.26734        4.10384
|157>    C       -4.36879        5.49992        2.06047
|158>    C       -2.92824        5.71168        1.55805
|159>    C       -4.96274        4.30588        1.29534
|160>    H       -3.94664        4.37583        3.85614
|161>    H       -6.38210        6.06456        3.82672
|162>    H       -4.93521        6.39512        1.78506
|163>    H       -2.47439        6.63607        1.95958
|164>    H       -2.93164        5.83689        0.45276
|165>    H       -2.28375        4.84702        1.81880
|166>    H       -4.97392        4.51385        0.20383
|167>    H       -5.99561        4.08186        1.61150
|168>    H       -4.35521        3.39857        1.45618
|169>    N       -3.89875        6.03537        5.84244
|170>    C       -3.09493        6.53650        6.93247
|171>    C       -2.98803        5.44038        8.01674
|172>    O       -1.86415        5.19802        8.39419
|173>    C       -3.34063        8.00687        7.28400
|174>    H       -3.66092        8.48830        6.33565
|175>    H       -4.16355        8.14083        8.00952
|176>    C       -2.05346        8.70736        7.68446
|177>    C       -1.47702        8.52315        8.94911
|178>    H       -1.95793        7.88763        9.68031
|179>    C       -0.27796        9.17110        9.27782
|180>    H        0.15123        9.03468       10.26058
|181>    C        0.37114        9.98829        8.33954
|182>    C       -0.19216       10.16617        7.07519
|183>    H        0.30537       10.78945        6.34091
|184>    C       -1.39728        9.53919        6.75081
|185>    H       -1.80448        9.68954        5.75796
|186>    O        1.53367       10.60366        8.63864
|187>    H        1.96321       10.50734        9.50036
|188>    H       -2.08126        6.53908        6.50294
|189>    H       -4.46818        5.24123        6.04601
|190>    N       -4.00872        4.54111        8.30506
|191>    C       -3.85207        3.14260        8.72234
|192>    C       -3.64404        2.13566        7.54046
|193>    O       -3.56579        0.95753        7.83829
|194>    H       -3.05293        2.99256        9.44241
|195>    C       -5.40305        4.90728        8.39599
|196>    H       -5.51532        5.62033        9.24243
|197>    H       -5.79223        5.34291        7.50684
|198>    C       -6.14547        3.60197        8.67414
|199>    H       -6.25742        3.02576        7.73078
|200>    H       -7.14925        3.73517        9.13143
|201>    C       -5.14037        2.85846        9.49725
|202>    H       -5.36498        1.78555        9.67638
|203>    H       -5.08405        3.37421       10.48444
|204>    N       -3.49984        2.50847        6.22170
|205>    C       -3.07870        1.65563        5.08620
|206>    C       -1.71550        2.15408        4.58542
|207>    O       -0.89359        1.29911        4.28924
|208>    H       -2.95032        0.64093        5.47041
|209>    H       -3.60018        3.48389        6.02026
|210>    C       -4.14440        1.49426        3.95460
|211>    H       -5.08565        1.16456        4.44361
|212>    H       -4.33794        2.45247        3.48648
|213>    C       -3.94661        0.51623        2.75407
|214>    H       -4.84734        0.66010        2.11394
|215>    C       -3.95058       -0.94898        3.18314
|216>    H       -3.93358       -1.60922        2.28926
|217>    H       -4.87010       -1.17815        3.76229
|218>    H       -3.06172       -1.17200        3.79454
|219>    C       -2.73738        0.80196        1.84800
|220>    H       -2.80452        0.17884        0.93042
|221>    H       -1.78410        0.52659        2.32287
|222>    H       -2.70160        1.86428        1.53707
|223>    N       -1.30602        3.46821        4.71560
|224>    C        0.11312        3.79875        4.81295
|225>    C        0.54328        3.69461        6.28734
|226>    O        1.73514        3.74683        6.52795
|227>    C        0.52779        5.08719        4.02206
|228>    C        2.05920        5.11232        3.76416
|229>    C        2.50349        6.21830        2.80012
|230>    H        0.67379        2.98769        4.30709
|231>    C        0.06094        6.38009        4.69253
|232>    H        2.34568        4.15075        3.28485
|233>    H        2.62597        5.21309        4.71251
|234>    H        2.35118        7.22759        3.23155
|235>    H        1.94945        6.14027        1.83986
|236>    H        3.58772        6.10788        2.58816
|237>    H       -1.95415        4.19741        5.02693
|238>    H        0.04710        5.01807        3.02067
|239>    H        0.32189        7.27765        4.09700
|240>    H        0.49346        6.49042        5.71079
|241>    H       -1.02722        6.36229        4.73205
|242>    N       -0.35778        3.39302        7.29343
|243>    C        0.01116        2.74129        8.55440
|244>    C       -0.61633        1.33429        8.59052
|245>    O       -0.92918        0.83242        9.65578
|246>    C       -0.22654        3.47856        9.91934
|247>    H        0.13581        2.79713       10.71985
|248>    H       -1.28579        3.62946       10.12192
|249>    C        0.42747        4.79403       10.22706
|250>    N        1.22661        5.52913        9.44061
|251>    C        1.56191        6.60405       10.18126
|252>    H        2.20790        7.39958        9.83757
|253>    N        0.99734        6.58595       11.40602
|254>    C        0.28162        5.44824       11.43454
|255>    H       -0.30667        5.11611       12.28253
|256>    H        1.53579        5.32853        8.46904
|257>    H       -1.35483        3.38673        7.08346
|258>    H        1.07959        2.54398        8.49619
|259>    N       -0.68663        0.60303        7.44341
|260>    C       -0.60453       -0.85315        7.35541
|261>    C        0.75728       -1.18979        6.68720
|262>    O        1.09010       -2.35342        6.53132
|263>    C       -1.78083       -1.43434        6.54714
|264>    C       -1.89298       -2.96173        6.58019
|265>    S       -3.33136       -3.49369        5.57710
|266>    C       -4.24825       -4.31211        6.91883
|267>    H       -0.65503       -1.28428        8.37069
|268>    H       -1.67266       -1.10353        5.49783
|269>    H       -2.73058       -1.06495        6.97302
|270>    H       -1.99821       -3.28933        7.63661
|271>    H       -1.00215       -3.46116        6.15901
|272>    H       -3.66400       -5.16751        7.31612
|273>    H       -5.19372       -4.71295        6.49787
|274>    H       -4.51261       -3.58178        7.71143
|275>    H       -0.59683        1.10657        6.56752
|276>    N        1.60862       -0.18360        6.30529
|277>    C        2.93205       -0.29257        5.72027
|278>    C        3.90606        0.10094        6.83158
|279>    O        4.77544       -0.68270        7.18055
|280>    C        4.33344        0.65028        3.77752
|281>    C        2.98151        0.65582        4.48491
|282>    O        1.98389        0.27263        3.57017
|283>    H        4.30143        1.35602        2.91793
|284>    H        4.56300       -0.36583        3.39614
|285>    H        5.13426        0.98342        4.46871
|286>    H        2.78110        1.69854        4.83184
|287>    H        3.14215       -1.33537        5.39768
|288>    H        1.73299        1.08246        3.05032
|289>    H        1.35597        0.78662        6.47455
|290>    N        3.68425        1.25293        7.53114
|291>    C        4.29825        1.63176        8.80459
|292>    C        4.12240        0.48054        9.79034
|293>    O        5.07490        0.07154       10.43590
|294>    C        3.52599        2.86581        9.36851
|295>    H        2.61678        2.55839        9.92255
|296>    H        3.15597        3.48606        8.53297
|297>    C        4.25561        3.87379       10.18966
|298>    C        4.25922        4.01319       11.57214
|299>    N        4.89649        5.15792       11.91704
|300>    H        5.03634        5.52520       12.88426
|301>    C        5.26360        5.75200       10.76606
|302>    C        4.88486        4.99568        9.69114
|303>    C        5.10941        5.41326        8.37705
|304>    H        4.79554        4.81625        7.52988
|305>    C        5.75295        6.64545        8.18166
|306>    H        5.93859        6.99815        7.17519
|307>    C        6.14950        7.42616        9.28908
|308>    H        6.63791        8.37723        9.12413
|309>    C        5.90415        6.98061       10.60281
|310>    H        6.19122        7.58067       11.45563
|311>    H        3.79679        3.33786       12.28029
|312>    H        2.93927        1.85733        7.18784
|313>    H        5.36304        1.89360        8.62782
|314>    N        2.89076       -0.10554        9.90281
|315>    C        2.53588       -1.19012       10.81925
|316>    C        3.40346       -2.40473       10.58749
|317>    O        4.07867       -2.84852       11.50141
|318>    C        1.05193       -1.55468       10.58860
|319>    C        0.30102       -2.29564       11.66049
|320>    C       -0.32969       -3.52219       11.38633
|321>    C       -1.11935       -4.13978       12.36334
|322>    C       -1.28964       -3.53599       13.61277
|323>    C       -0.66635       -2.31720       13.89065
|324>    C        0.12607       -1.69930       12.92057
|325>    H        2.14494        0.26321        9.29068
|326>    H        2.66208       -0.80962       11.85538
|327>    H        0.95478       -2.06709        9.61005
|328>    H        0.51059       -0.61124       10.53765
|329>    H       -0.23325       -3.98854       10.41339
|330>    H       -1.61452       -5.07786       12.14724
|331>    H       -1.91347       -4.00579       14.36218
|332>    H       -0.81074       -1.84081       14.85159
|333>    H        0.57570       -0.73870       13.13882
|334>    O        3.45597       -3.00382        9.37625
|335>    H        2.96092       -2.67070        8.61441
|336> **                         ****END OF INPUT****
================================================================================

                       ****************************
                       * Single Point Calculation *
                       ****************************

---------------------------------
CARTESIAN COORDINATES (ANGSTROEM)
---------------------------------
  N    -14.183850   14.376010    0.208460
  C    -12.743560   14.132810    0.279310
  C    -12.285270   13.802260    1.684950
  O    -11.112370   13.482170    1.819330
  H    -14.682050   13.498620    0.488530
  H    -12.507660   13.251730   -0.361080
  C    -11.969130   15.335640   -0.263250
  H    -12.266360   15.534880   -1.314350
  H    -12.173440   16.236540    0.352160
  H    -10.876520   15.128530   -0.252300
  H    -14.447140   14.552320   -0.788090
  N    -13.132060   13.805360    2.766620
  C    -12.726880   13.285530    4.068270
  C    -13.460500   11.975120    4.372540
  O    -13.119580   11.351640    5.367650
  C    -12.760470   14.372690    5.163930
  H    -13.788030   14.629540    5.496470
  H    -12.366450   15.290630    4.671570
  C    -11.756300   14.099340    6.325560
  H    -11.010070   14.920060    6.326730
  H    -11.158330   13.179000    6.143010
  C    -12.398750   13.997230    7.713390
  H    -13.093470   13.130070    7.696090
  H    -12.985550   14.906990    7.960160
  N    -11.385060   13.770020    8.734860
  H    -11.391200   12.855460    9.211110
  C    -10.381180   14.716360    9.133100
  N     -9.373900   14.305740   10.049210
  H     -8.641120   14.961160   10.360560
  H     -9.358100   13.342870   10.414300
  N    -10.377780   15.932920    8.697740
  H    -11.095390   16.289510    8.054560
  H     -9.648390   16.594960    9.002830
  H    -14.109020   14.112610    2.662200
  H    -11.661860   12.999610    3.999880
  N    -14.315310   11.402990    3.447270
  C    -14.584180    9.963970    3.408710
  C    -13.861310    9.319180    2.201050
  O    -13.714530    8.103870    2.214790
  C    -16.077620    9.618390    3.436390
  H    -16.583040   10.176770    4.252940
  H    -16.530000    9.918590    2.468200
  C    -16.271570    8.139870    3.710380
  O    -15.933570    7.682560    4.791850
  N    -16.796800    7.312800    2.779220
  H    -17.073930    7.665590    1.853390
  H    -16.902830    6.306530    2.981480
  H    -14.132320    9.517200    4.318670
  H    -14.641760   11.943340    2.637850
  N    -13.237590   10.072880    1.227280
  C    -12.054840    9.584720    0.522660
  C    -10.830960   10.123820    1.262140
  O     -9.716480    9.875570    0.846480
  C    -12.048080    9.871460   -0.998380
  C    -10.873570    9.121530   -1.697700
  C    -10.805530    9.247450   -3.191650
  O    -11.631060    9.904730   -3.806200
  N     -9.799090    8.629210   -3.857240
  H    -11.998970    8.480830    0.615630
  H    -13.369110   11.090710    1.186900
  H    -11.988430   10.963380   -1.188980
  H    -12.996720    9.479000   -1.421680
  H    -10.940580    8.037330   -1.455130
  H     -9.896570    9.498800   -1.353250
  H     -9.715880    8.703200   -4.881100
  H     -9.092550    8.076880   -3.345360
  N    -10.957960   10.733570    2.475720
  C     -9.952860   10.551490    3.489500
  C    -10.539160    9.958130    4.768330
  O    -10.110660   10.255440    5.868680
  C     -8.953330   11.678200    3.600380
  H     -9.448160   12.655180    3.762930
  H     -8.340170   11.464600    4.494150
  C     -7.992200   11.690240    2.388390
  H     -7.514350   10.698310    2.272960
  H     -8.503130   11.976910    1.450180
  C     -6.908360   12.644780    2.689740
  O     -5.857040   12.801970    1.849830
  O     -7.005690   13.511470    4.215640
  H     -7.005690   13.511470    4.295640
  H    -11.874690   10.950230    2.840460
  H     -9.350760    9.705240    3.170950
  N    -11.408950    8.927750    4.629310
  C    -11.437930    7.754350    5.479480
  C    -11.160290    6.509560    4.589840
  O    -11.154050    5.413690    5.118750
  H    -10.628510    7.821620    6.243380
  C    -12.757020    7.679270    6.248610
  H    -12.914300    8.633250    6.797900
  S    -12.758580    6.336520    7.489130
  H    -13.608790    7.546030    5.563500
  H    -12.372250    7.175180    8.555400
  H    -11.929680    8.857430    3.759920
  N    -10.852190    6.617020    3.247130
  C    -10.343780    5.554710    2.384590
  C     -8.929030    5.963990    1.997650
  O     -8.002980    5.223470    2.268800
  C    -11.214790    5.346610    1.134010
  C    -10.596340    4.244140    0.254520
  C    -11.397590    3.973850   -1.015890
  C    -10.683450    2.906160   -1.854130
  N    -11.427930    2.627610   -3.075490
  H    -10.328400    4.592310    2.925610
  H    -11.286950    6.284690    0.547620
  H    -12.238100    5.049170    1.449360
  H    -10.517780    3.304800    0.845800
  H     -9.573610    4.552990   -0.054580
  H    -11.479370    4.912410   -1.607030
  H    -12.417540    3.623330   -0.747100
  H    -10.594160    1.968940   -1.261360
  H     -9.657990    3.254090   -2.116980
  H    -10.915610    1.885960   -3.606030
  H    -11.440730    3.488800   -3.668770
  H    -10.850550    7.525680    2.784760
  N     -8.698580    7.179030    1.426300
  C     -7.385640    7.797730    1.306690
  C     -6.785360    8.185060    2.668950
  O     -5.606430    8.504750    2.709010
  H     -6.731420    7.090220    0.760630
  H     -7.439840    8.720730    0.693170
  H     -9.510740    7.694920    1.097540
  N     -7.521540    8.166120    3.826790
  C     -6.953060    8.166230    5.177610
  C     -7.538400    6.994750    5.979750
  O     -7.242110    6.905610    7.150600
  C     -6.966480    9.551650    5.854280
  C     -6.176370    9.697570    7.144060
  O     -5.230990   10.471630    7.169780
  O     -6.658390    8.852690    8.696750
  H     -5.864740    7.964100    5.103430
  H     -7.971120    9.859010    6.080340
  H     -6.517100   10.256830    5.119320
  H     -6.658390    8.842690    8.716750
  H     -8.523550    7.975590    3.765900
  N     -8.184530    5.943460    5.365820
  C     -7.768240    4.581600    5.656080
  C     -6.442570    4.314370    4.918050
  O     -5.855760    3.295990    5.200420
  H     -7.642590    4.496150    6.744190
  C     -8.804840    3.508300    5.293820
  H     -9.746740    3.696360    5.838000
  H     -9.008860    3.516750    4.205920
  O     -8.360830    2.237140    5.697510
  H     -8.041380    1.759150    4.887740
  H     -8.470760    6.036810    4.405120
  N     -5.872720    5.231500    4.056620
  C     -4.483540    5.289340    3.605810
  C     -3.806700    6.310740    4.515730
  O     -3.170970    7.267340    4.103840
  C     -4.368790    5.499920    2.060470
  C     -2.928240    5.711680    1.558050
  C     -4.962740    4.305880    1.295340
  H     -3.946640    4.375830    3.856140
  H     -6.382100    6.064560    3.826720
  H     -4.935210    6.395120    1.785060
  H     -2.474390    6.636070    1.959580
  H     -2.931640    5.836890    0.452760
  H     -2.283750    4.847020    1.818800
  H     -4.973920    4.513850    0.203830
  H     -5.995610    4.081860    1.611500
  H     -4.355210    3.398570    1.456180
  N     -3.898750    6.035370    5.842440
  C     -3.094930    6.536500    6.932470
  C     -2.988030    5.440380    8.016740
  O     -1.864150    5.198020    8.394190
  C     -3.340630    8.006870    7.284000
  H     -3.660920    8.488300    6.335650
  H     -4.163550    8.140830    8.009520
  C     -2.053460    8.707360    7.684460
  C     -1.477020    8.523150    8.949110
  H     -1.957930    7.887630    9.680310
  C     -0.277960    9.171100    9.277820
  H      0.151230    9.034680   10.260580
  C      0.371140    9.988290    8.339540
  C     -0.192160   10.166170    7.075190
  H      0.305370   10.789450    6.340910
  C     -1.397280    9.539190    6.750810
  H     -1.804480    9.689540    5.757960
  O      1.533670   10.603660    8.638640
  H      1.963210   10.507340    9.500360
  H     -2.081260    6.539080    6.502940
  H     -4.468180    5.241230    6.046010
  N     -4.008720    4.541110    8.305060
  C     -3.852070    3.142600    8.722340
  C     -3.644040    2.135660    7.540460
  O     -3.565790    0.957530    7.838290
  H     -3.052930    2.992560    9.442410
  C     -5.403050    4.907280    8.395990
  H     -5.515320    5.620330    9.242430
  H     -5.792230    5.342910    7.506840
  C     -6.145470    3.601970    8.674140
  H     -6.257420    3.025760    7.730780
  H     -7.149250    3.735170    9.131430
  C     -5.140370    2.858460    9.497250
  H     -5.364980    1.785550    9.676380
  H     -5.084050    3.374210   10.484440
  N     -3.499840    2.508470    6.221700
  C     -3.078700    1.655630    5.086200
  C     -1.715500    2.154080    4.585420
  O     -0.893590    1.299110    4.289240
  H     -2.950320    0.640930    5.470410
  H     -3.600180    3.483890    6.020260
  C     -4.144400    1.494260    3.954600
  H     -5.085650    1.164560    4.443610
  H     -4.337940    2.452470    3.486480
  C     -3.946610    0.516230    2.754070
  H     -4.847340    0.660100    2.113940
  C     -3.950580   -0.948980    3.183140
  H     -3.933580   -1.609220    2.289260
  H     -4.870100   -1.178150    3.762290
  H     -3.061720   -1.172000    3.794540
  C     -2.737380    0.801960    1.848000
  H     -2.804520    0.178840    0.930420
  H     -1.784100    0.526590    2.322870
  H     -2.701600    1.864280    1.537070
  N     -1.306020    3.468210    4.715600
  C      0.113120    3.798750    4.812950
  C      0.543280    3.694610    6.287340
  O      1.735140    3.746830    6.527950
  C      0.527790    5.087190    4.022060
  C      2.059200    5.112320    3.764160
  C      2.503490    6.218300    2.800120
  H      0.673790    2.987690    4.307090
  C      0.060940    6.380090    4.692530
  H      2.345680    4.150750    3.284850
  H      2.625970    5.213090    4.712510
  H      2.351180    7.227590    3.231550
  H      1.949450    6.140270    1.839860
  H      3.587720    6.107880    2.588160
  H     -1.954150    4.197410    5.026930
  H      0.047100    5.018070    3.020670
  H      0.321890    7.277650    4.097000
  H      0.493460    6.490420    5.710790
  H     -1.027220    6.362290    4.732050
  N     -0.357780    3.393020    7.293430
  C      0.011160    2.741290    8.554400
  C     -0.616330    1.334290    8.590520
  O     -0.929180    0.832420    9.655780
  C     -0.226540    3.478560    9.919340
  H      0.135810    2.797130   10.719850
  H     -1.285790    3.629460   10.121920
  C      0.427470    4.794030   10.227060
  N      1.226610    5.529130    9.440610
  C      1.561910    6.604050   10.181260
  H      2.207900    7.399580    9.837570
  N      0.997340    6.585950   11.406020
  C      0.281620    5.448240   11.434540
  H     -0.306670    5.116110   12.282530
  H      1.535790    5.328530    8.469040
  H     -1.354830    3.386730    7.083460
  H      1.079590    2.543980    8.496190
  N     -0.686630    0.603030    7.443410
  C     -0.604530   -0.853150    7.355410
  C      0.757280   -1.189790    6.687200
  O      1.090100   -2.353420    6.531320
  C     -1.780830   -1.434340    6.547140
  C     -1.892980   -2.961730    6.580190
  S     -3.331360   -3.493690    5.577100
  C     -4.248250   -4.312110    6.918830
  H     -0.655030   -1.284280    8.370690
  H     -1.672660   -1.103530    5.497830
  H     -2.730580   -1.064950    6.973020
  H     -1.998210   -3.289330    7.636610
  H     -1.002150   -3.461160    6.159010
  H     -3.664000   -5.167510    7.316120
  H     -5.193720   -4.712950    6.497870
  H     -4.512610   -3.581780    7.711430
  H     -0.596830    1.106570    6.567520
  N      1.608620   -0.183600    6.305290
  C      2.932050   -0.292570    5.720270
  C      3.906060    0.100940    6.831580
  O      4.775440   -0.682700    7.180550
  C      4.333440    0.650280    3.777520
  C      2.981510    0.655820    4.484910
  O      1.983890    0.272630    3.570170
  H      4.301430    1.356020    2.917930
  H      4.563000   -0.365830    3.396140
  H      5.134260    0.983420    4.468710
  H      2.781100    1.698540    4.831840
  H      3.142150   -1.335370    5.397680
  H      1.732990    1.082460    3.050320
  H      1.355970    0.786620    6.474550
  N      3.684250    1.252930    7.531140
  C      4.298250    1.631760    8.804590
  C      4.122400    0.480540    9.790340
  O      5.074900    0.071540   10.435900
  C      3.525990    2.865810    9.368510
  H      2.616780    2.558390    9.922550
  H      3.155970    3.486060    8.532970
  C      4.255610    3.873790   10.189660
  C      4.259220    4.013190   11.572140
  N      4.896490    5.157920   11.917040
  H      5.036340    5.525200   12.884260
  C      5.263600    5.752000   10.766060
  C      4.884860    4.995680    9.691140
  C      5.109410    5.413260    8.377050
  H      4.795540    4.816250    7.529880
  C      5.752950    6.645450    8.181660
  H      5.938590    6.998150    7.175190
  C      6.149500    7.426160    9.289080
  H      6.637910    8.377230    9.124130
  C      5.904150    6.980610   10.602810
  H      6.191220    7.580670   11.455630
  H      3.796790    3.337860   12.280290
  H      2.939270    1.857330    7.187840
  H      5.363040    1.893600    8.627820
  N      2.890760   -0.105540    9.902810
  C      2.535880   -1.190120   10.819250
  C      3.403460   -2.404730   10.587490
  O      4.078670   -2.848520   11.501410
  C      1.051930   -1.554680   10.588600
  C      0.301020   -2.295640   11.660490
  C     -0.329690   -3.522190   11.386330
  C     -1.119350   -4.139780   12.363340
  C     -1.289640   -3.535990   13.612770
  C     -0.666350   -2.317200   13.890650
  C      0.126070   -1.699300   12.920570
  H      2.144940    0.263210    9.290680
  H      2.662080   -0.809620   11.855380
  H      0.954780   -2.067090    9.610050
  H      0.510590   -0.611240   10.537650
  H     -0.233250   -3.988540   10.413390
  H     -1.614520   -5.077860   12.147240
  H     -1.913470   -4.005790   14.362180
  H     -0.810740   -1.840810   14.851590
  H      0.575700   -0.738700   13.138820
  O      3.455970   -3.003820    9.376250
  H      2.960920   -2.670700    8.614410

----------------------------
CARTESIAN COORDINATES (A.U.)
----------------------------
  NO LB      ZA    FRAG     MASS         X           Y           Z
   0 N     7.0000    0    14.007  -26.803592   27.166722    0.393932
   1 C     6.0000    0    12.011  -24.081838   26.707140    0.527819
   2 C     6.0000    0    12.011  -23.215796   26.082491    3.184094
   3 O     8.0000    0    15.999  -20.999336   25.477609    3.438035
   4 H     1.0000    0     1.008  -27.745054   25.508695    0.923188
   5 H     1.0000    0     1.008  -23.636052   25.042141   -0.682342
   6 C     6.0000    0    12.011  -22.618378   28.980160   -0.497470
   7 H     1.0000    0     1.008  -23.180061   29.356669   -2.483762
   8 H     1.0000    0     1.008  -23.004468   30.682614    0.665486
   9 H     1.0000    0     1.008  -20.553644   28.588779   -0.476778
  10 H     1.0000    0     1.008  -27.301138   27.499899   -1.489274
  11 N     7.0000    0    14.007  -24.815997   26.088350    5.228154
  12 C     6.0000    0    12.011  -24.050318   25.106013    7.687916
  13 C     6.0000    0    12.011  -25.436659   22.629697    8.262903
  14 O     8.0000    0    15.999  -24.792413   21.451491   10.143388
  15 C     6.0000    0    12.011  -24.113794   27.160448    9.758413
  16 H     1.0000    0     1.008  -26.055601   27.645824   10.386823
  17 H     1.0000    0     1.008  -23.369204   28.895103    8.827988
  18 C     6.0000    0    12.011  -22.216187   26.643891   11.953576
  19 H     1.0000    0     1.008  -20.806017   28.194827   11.955787
  20 H     1.0000    0     1.008  -21.086188   24.904701   11.608607
  21 C     6.0000    0    12.011  -23.430242   26.450931   14.576195
  22 H     1.0000    0     1.008  -24.743072   24.812236   14.543502
  23 H     1.0000    0     1.008  -24.539133   28.170129   15.042522
  24 N     7.0000    0    14.007  -21.514645   26.021567   16.506493
  25 H     1.0000    0     1.008  -21.526248   24.293299   17.406475
  26 C     6.0000    0    12.011  -19.617587   27.809890   17.259058
  27 N     7.0000    0    14.007  -17.714104   27.033931   18.990255
  28 H     1.0000    0     1.008  -16.329350   28.272495   19.578621
  29 H     1.0000    0     1.008  -17.684246   25.214370   19.680175
  30 N     7.0000    0    14.007  -19.611162   30.108855   16.436347
  31 H     1.0000    0     1.008  -20.967248   30.782713   15.220913
  32 H     1.0000    0     1.008  -18.232815   31.359930   17.012883
  33 H     1.0000    0     1.008  -26.662184   26.668968    5.030829
  34 H     1.0000    0     1.008  -22.037722   24.565703    7.558678
  35 N     7.0000    0    14.007  -27.052015   21.548528    6.514396
  36 C     6.0000    0    12.011  -27.560106   18.829175    6.441528
  37 C     6.0000    0    12.011  -26.194080   17.610698    4.159382
  38 O     8.0000    0    15.999  -25.916706   15.314095    4.185347
  39 C     6.0000    0    12.011  -30.382299   18.176123    6.493836
  40 H     1.0000    0     1.008  -31.337404   19.231308    8.036892
  41 H     1.0000    0     1.008  -31.237173   18.743419    4.664222
  42 C     6.0000    0    12.011  -30.748811   15.382125    7.011602
  43 O     8.0000    0    15.999  -30.110084   14.517934    9.055284
  44 N     7.0000    0    14.007  -31.741352   13.819189    5.251965
  45 H     1.0000    0     1.008  -32.265052   14.485866    3.502400
  46 H     1.0000    0     1.008  -31.941720   11.917615    5.634181
  47 H     1.0000    0     1.008  -26.706214   17.984902    8.161104
  48 H     1.0000    0     1.008  -27.668917   22.569642    4.984814
  49 N     7.0000    0    14.007  -25.015420   19.034985    2.319223
  50 C     6.0000    0    12.011  -22.780346   18.112496    0.987684
  51 C     6.0000    0    12.011  -20.467548   19.131247    2.385099
  52 O     8.0000    0    15.999  -18.361486   18.662123    1.599615
  53 C     6.0000    0    12.011  -22.767572   18.654356   -1.886665
  54 C     6.0000    0    12.011  -20.548069   17.237194   -3.208188
  55 C     6.0000    0    12.011  -20.419492   17.475148   -6.031344
  56 O     8.0000    0    15.999  -21.979518   18.717227   -7.192676
  57 N     7.0000    0    14.007  -18.517596   16.306844   -7.289127
  58 H     1.0000    0     1.008  -22.674767   16.026446    1.163372
  59 H     1.0000    0     1.008  -25.263957   20.958405    2.242916
  60 H     1.0000    0     1.008  -22.654849   20.717786   -2.246847
  61 H     1.0000    0     1.008  -24.560241   17.912714   -2.686586
  62 H     1.0000    0     1.008  -20.674700   15.188353   -2.749797
  63 H     1.0000    0     1.008  -18.701807   17.950131   -2.557272
  64 H     1.0000    0     1.008  -18.360352   16.446664   -9.223942
  65 H     1.0000    0     1.008  -17.182429   15.263091   -6.321814
  66 N     7.0000    0    14.007  -20.707543   20.283508    4.678433
  67 C     6.0000    0    12.011  -18.808180   19.939426    6.594199
  68 C     6.0000    0    12.011  -19.916126   18.818139    9.010838
  69 O     8.0000    0    15.999  -19.106378   19.379973   11.090198
  70 C     6.0000    0    12.011  -16.919342   22.068600    6.803732
  71 H     1.0000    0     1.008  -17.854435   23.914824    7.110907
  72 H     1.0000    0     1.008  -15.760637   21.664954    8.492713
  73 C     6.0000    0    12.011  -15.103069   22.091352    4.513403
  74 H     1.0000    0     1.008  -14.200064   20.216876    4.295272
  75 H     1.0000    0     1.008  -16.068587   22.633080    2.740443
  76 C     6.0000    0    12.011  -13.054908   23.895171    5.082872
  77 O     8.0000    0    15.999  -11.068202   24.192217    3.495672
  78 O     8.0000    0    15.999  -13.238835   25.532978    7.966405
  79 H     1.0000    0     1.008  -13.238835   25.532978    8.117583
  80 H     1.0000    0     1.008  -22.439912   20.692936    5.367691
  81 H     1.0000    0     1.008  -17.670376   18.340246    5.992227
  82 N     7.0000    0    14.007  -21.559791   16.871002    8.748128
  83 C     6.0000    0    12.011  -21.614555   14.653598   10.354717
  84 C     6.0000    0    12.011  -21.089892   12.301286    8.673541
  85 O     8.0000    0    15.999  -21.078100   10.230391    9.673036
  86 H     1.0000    0     1.008  -20.084973   14.780720   11.798278
  87 C     6.0000    0    12.011  -24.107274   14.511717   11.808162
  88 H     1.0000    0     1.008  -24.404490   16.314478   12.846169
  89 S    16.0000    0    32.060  -24.110222   11.974287   14.152405
  90 H     1.0000    0     1.008  -25.716886   14.259930   10.513491
  91 H     1.0000    0     1.008  -23.380164   13.559125   16.167363
  92 H     1.0000    0     1.008  -22.543828   16.738117    7.105219
  93 N     7.0000    0    14.007  -20.507667   12.504356    6.136186
  94 C     6.0000    0    12.011  -19.546911   10.496881    4.506222
  95 C     6.0000    0    12.011  -16.873421   11.270308    3.775011
  96 O     8.0000    0    15.999  -15.123440    9.870928    4.287411
  97 C     6.0000    0    12.011  -21.192882   10.103629    2.142968
  98 C     6.0000    0    12.011  -20.024181    8.020262    0.480973
  99 C     6.0000    0    12.011  -21.538324    7.509488   -1.919754
 100 C     6.0000    0    12.011  -20.188795    5.491847   -3.503798
 101 N     7.0000    0    14.007  -21.595658    4.965463   -5.811834
 102 H     1.0000    0     1.008  -19.517847    8.678208    5.528602
 103 H     1.0000    0     1.008  -21.329244   11.876343    1.034852
 104 H     1.0000    0     1.008  -23.126657    9.541549    2.738893
 105 H     1.0000    0     1.008  -19.875724    6.245167    1.598330
 106 H     1.0000    0     1.008  -18.091501    8.603904   -0.103141
 107 H     1.0000    0     1.008  -21.692865    9.283110   -3.036847
 108 H     1.0000    0     1.008  -23.465750    6.847101   -1.411814
 109 H     1.0000    0     1.008  -20.020061    3.720757   -2.383625
 110 H     1.0000    0     1.008  -18.250956    6.149339   -4.000512
 111 H     1.0000    0     1.008  -20.627513    3.563948   -6.814409
 112 H     1.0000    0     1.008  -21.619846    6.592877   -6.932971
 113 H     1.0000    0     1.008  -20.504568   14.221474    5.262434
 114 N     7.0000    0    14.007  -16.437934   13.566401    2.695316
 115 C     6.0000    0    12.011  -13.956837   14.735574    2.469286
 116 C     6.0000    0    12.011  -12.822472   15.467522    5.043585
 117 O     8.0000    0    15.999  -10.594617   16.071648    5.119287
 118 H     1.0000    0     1.008  -12.720540   13.398574    1.437382
 119 H     1.0000    0     1.008  -14.059260   16.479791    1.309901
 120 H     1.0000    0     1.008  -17.972694   14.541291    2.074050
 121 N     7.0000    0    14.007  -14.213651   15.431730    7.231585
 122 C     6.0000    0    12.011  -13.139379   15.431938    9.784265
 123 C     6.0000    0    12.011  -14.245511   13.218162   11.300090
 124 O     8.0000    0    15.999  -13.685605   13.049712   13.512676
 125 C     6.0000    0    12.011  -13.164739   18.050003   11.062986
 126 C     6.0000    0    12.011  -11.671648   18.325751   13.500317
 127 O     8.0000    0    15.999   -9.885139   19.788513   13.548921
 128 O     8.0000    0    15.999  -12.582534   16.729160   16.434476
 129 H     1.0000    0     1.008  -11.082752   15.049968    9.644085
 130 H     1.0000    0     1.008  -15.063234   18.630829   11.490177
 131 H     1.0000    0     1.008  -12.315534   19.382600    9.674113
 132 H     1.0000    0     1.008  -12.582534   16.710262   16.472270
 133 H     1.0000    0     1.008  -16.107175   15.071681    7.116520
 134 N     7.0000    0    14.007  -15.466520   11.231512   10.139930
 135 C     6.0000    0    12.011  -14.679846    8.657969   10.688442
 136 C     6.0000    0    12.011  -12.174693    8.152978    9.293768
 137 O     8.0000    0    15.999  -11.065783    6.228518    9.827370
 138 H     1.0000    0     1.008  -14.442402    8.496492   12.744672
 139 C     6.0000    0    12.011  -16.638736    6.629726   10.003870
 140 H     1.0000    0     1.008  -18.418669    6.985108   11.032221
 141 H     1.0000    0     1.008  -17.024278    6.645694    7.948037
 142 O     8.0000    0    15.999  -15.799679    4.227582   10.766734
 143 H     1.0000    0     1.008  -15.196006    3.324312    9.236490
 144 H     1.0000    0     1.008  -16.007417   11.407918    8.324470
 145 N     7.0000    0    14.007  -11.097832    9.886102    7.665901
 146 C     6.0000    0    12.011   -8.472663    9.995404    6.813993
 147 C     6.0000    0    12.011   -7.193620   11.925570    8.533493
 148 O     8.0000    0    15.999   -5.992265   13.733282    7.755134
 149 C     6.0000    0    12.011   -8.255817   10.393343    3.893724
 150 C     6.0000    0    12.011   -5.533572   10.793511    2.944288
 151 C     6.0000    0    12.011   -9.378219    8.136934    2.447838
 152 H     1.0000    0     1.008   -7.458069    8.269120    7.287049
 153 H     1.0000    0     1.008  -12.060421   11.460358    7.231453
 154 H     1.0000    0     1.008   -9.326195   12.085025    3.373275
 155 H     1.0000    0     1.008   -4.675919   12.540355    3.703070
 156 H     1.0000    0     1.008   -5.539997   11.030124    0.855592
 157 H     1.0000    0     1.008   -4.315662    9.159540    3.437034
 158 H     1.0000    0     1.008   -9.399347    8.529940    0.385183
 159 H     1.0000    0     1.008  -11.330061    7.713598    3.045294
 160 H     1.0000    0     1.008   -8.230154    6.422367    2.751781
 161 N     7.0000    0    14.007   -7.367570   11.405196   11.040612
 162 C     6.0000    0    12.011   -5.848570   12.352195   13.100470
 163 C     6.0000    0    12.011   -5.646558   10.280828   15.149443
 164 O     8.0000    0    15.999   -3.522733    9.822834   15.862720
 165 C     6.0000    0    12.011   -6.312876   15.130791   13.764765
 166 H     1.0000    0     1.008   -6.918136   16.040562   11.972643
 167 H     1.0000    0     1.008   -7.867969   15.383939   15.135799
 168 C     6.0000    0    12.011   -3.880477   16.454526   14.521525
 169 C     6.0000    0    12.011   -2.791163   16.106419   16.911367
 170 H     1.0000    0     1.008   -3.699951   14.905461   18.293135
 171 C     6.0000    0    12.011   -0.525268   17.330867   17.532539
 172 H     1.0000    0     1.008    0.285783   17.073071   19.389686
 173 C     6.0000    0    12.011    0.701353   18.875133   15.759447
 174 C     6.0000    0    12.011   -0.363130   19.211277   13.370171
 175 H     1.0000    0     1.008    0.577066   20.389106   11.982583
 176 C     6.0000    0    12.011   -2.640477   18.026457   12.757182
 177 H     1.0000    0     1.008   -3.409973   18.310577   10.880967
 178 O     8.0000    0    15.999    2.898216   20.038013   16.324664
 179 H     1.0000    0     1.008    3.709929   19.855995   17.953079
 180 H     1.0000    0     1.008   -3.933011   12.357070   12.288776
 181 H     1.0000    0     1.008   -8.443637    9.904489   11.425303
 182 N     7.0000    0    14.007   -7.575383    8.581454   15.694289
 183 C     6.0000    0    12.011   -7.279357    5.938653   16.482834
 184 C     6.0000    0    12.011   -6.886238    4.035813   14.249404
 185 O     8.0000    0    15.999   -6.738367    1.809469   14.812221
 186 H     1.0000    0     1.008   -5.769202    5.655119   17.843569
 187 C     6.0000    0    12.011  -10.210285    9.273415   15.866122
 188 H     1.0000    0     1.008  -10.422444   10.620884   17.465662
 189 H     1.0000    0     1.008  -10.945728   10.096637   14.185872
 190 C     6.0000    0    12.011  -11.613255    6.806737   16.391749
 191 H     1.0000    0     1.008  -11.824810    5.717858   14.609057
 192 H     1.0000    0     1.008  -13.510125    7.058448   17.255902
 193 C     6.0000    0    12.011   -9.713892    5.401707   17.947202
 194 H     1.0000    0     1.008  -10.138343    3.374200   18.285708
 195 H     1.0000    0     1.008   -9.607462    6.376333   19.812720
 196 N     7.0000    0    14.007   -6.613739    4.740321   11.757309
 197 C     6.0000    0    12.011   -5.817900    3.128687    9.611525
 198 C     6.0000    0    12.011   -3.241825    4.070621    8.665188
 199 O     8.0000    0    15.999   -1.688640    2.454962    8.105489
 200 H     1.0000    0     1.008   -5.575297    1.211182   10.337577
 201 H     1.0000    0     1.008   -6.803354    6.583598   11.376643
 202 C     6.0000    0    12.011   -7.831781    2.823742    7.473111
 203 H     1.0000    0     1.008   -9.610486    2.200699    8.397206
 204 H     1.0000    0     1.008   -8.197519    4.634497    6.588492
 205 C     6.0000    0    12.011   -7.458012    0.975533    5.204438
 206 H     1.0000    0     1.008   -9.160145    1.247408    3.994768
 207 C     6.0000    0    12.011   -7.465514   -1.793312    6.015263
 208 H     1.0000    0     1.008   -7.433389   -3.040985    4.326074
 209 H     1.0000    0     1.008   -9.203155   -2.226381    7.109698
 210 H     1.0000    0     1.008   -5.785812   -2.214759    7.170641
 211 C     6.0000    0    12.011   -5.172899    1.515485    3.492214
 212 H     1.0000    0     1.008   -5.299775    0.337959    1.758239
 213 H     1.0000    0     1.008   -3.371460    0.995111    4.389588
 214 H     1.0000    0     1.008   -5.105284    3.522979    2.904641
 215 N     7.0000    0    14.007   -2.468020    6.553967    8.911193
 216 C     6.0000    0    12.011    0.213766    7.178597    9.095157
 217 C     6.0000    0    12.011    1.026650    6.981801   11.881351
 218 O     8.0000    0    15.999    3.278939    7.080483   12.336038
 219 C     6.0000    0    12.011    0.997379    9.613396    7.600592
 220 C     6.0000    0    12.011    3.891324    9.660885    7.113232
 221 C     6.0000    0    12.011    4.730910   11.750884    5.291460
 222 H     1.0000    0     1.008    1.273279    5.645916    8.139221
 223 C     6.0000    0    12.011    0.115160   12.056623    8.867597
 224 H     1.0000    0     1.008    4.432693    7.843781    6.207467
 225 H     1.0000    0     1.008    4.962364    9.851312    8.905353
 226 H     1.0000    0     1.008    4.443086   13.658166    6.106744
 227 H     1.0000    0     1.008    3.683927   11.603429    3.476832
 228 H     1.0000    0     1.008    6.779808   11.542220    4.890914
 229 H     1.0000    0     1.008   -3.692808    7.931955    9.499521
 230 H     1.0000    0     1.008    0.089006    9.482778    5.708239
 231 H     1.0000    0     1.008    0.608284   13.752765    7.742208
 232 H     1.0000    0     1.008    0.932504   12.265116   10.791829
 233 H     1.0000    0     1.008   -1.941164   12.022986    8.942279
 234 N     7.0000    0    14.007   -0.676106    6.411879   13.782585
 235 C     6.0000    0    12.011    0.021089    5.180287   16.165473
 236 C     6.0000    0    12.011   -1.164695    2.521443   16.233730
 237 O     8.0000    0    15.999   -1.755896    1.573046   18.246780
 238 C     6.0000    0    12.011   -0.428099    6.573526   18.744836
 239 H     1.0000    0     1.008    0.256644    5.285810   20.257581
 240 H     1.0000    0     1.008   -2.429791    6.858685   19.127657
 241 C     6.0000    0    12.011    0.807801    9.059404   19.326343
 242 N     7.0000    0    14.007    2.317957   10.448541   17.840167
 243 C     6.0000    0    12.011    2.951582   12.479846   19.239793
 244 H     1.0000    0     1.008    4.172326   13.983180   18.590313
 245 N     7.0000    0    14.007    1.884699   12.445642   21.554254
 246 C     6.0000    0    12.011    0.532185   10.295682   21.608149
 247 H     1.0000    0     1.008   -0.579522    9.668047   23.210618
 248 H     1.0000    0     1.008    2.902222   10.069462   16.004166
 249 H     1.0000    0     1.008   -2.560258    6.399992   13.385799
 250 H     1.0000    0     1.008    2.040129    4.807425   16.055472
 251 N     7.0000    0    14.007   -1.297543    1.139562   14.066006
 252 C     6.0000    0    12.011   -1.142396   -1.612220   13.899711
 253 C     6.0000    0    12.011    1.431052   -2.248377   12.636977
 254 O     8.0000    0    15.999    2.059990   -4.447319   12.342406
 255 C     6.0000    0    12.011   -3.365281   -2.710510   12.372302
 256 C     6.0000    0    12.011   -3.577214   -5.596859   12.434757
 257 S    16.0000    0    32.060   -6.295358   -6.602117   10.539192
 258 C     6.0000    0    12.011   -8.028029   -8.148707   13.074694
 259 H     1.0000    0     1.008   -1.237827   -2.426937   15.818312
 260 H     1.0000    0     1.008   -3.160869   -2.085369   10.389393
 261 H     1.0000    0     1.008   -5.160048   -2.012464   13.177098
 262 H     1.0000    0     1.008   -3.776070   -6.215933   14.431101
 263 H     1.0000    0     1.008   -1.893789   -6.540645   11.638842
 264 H     1.0000    0     1.008   -6.923957   -9.765179   13.825463
 265 H     1.0000    0     1.008   -9.814708   -8.906185   12.279195
 266 H     1.0000    0     1.008   -8.527597   -6.768583   14.572491
 267 H     1.0000    0     1.008   -1.127845    2.091114   12.410814
 268 N     7.0000    0    14.007    3.039851   -0.346954   11.915271
 269 C     6.0000    0    12.011    5.540772   -0.552877   10.809744
 270 C     6.0000    0    12.011    7.381384    0.190749   12.909815
 271 O     8.0000    0    15.999    9.024274   -1.290116   13.569273
 272 C     6.0000    0    12.011    8.189015    1.228851    7.138478
 273 C     6.0000    0    12.011    5.634237    1.239320    8.475252
 274 O     8.0000    0    15.999    3.749009    0.515196    6.746644
 275 H     1.0000    0     1.008    8.128525    2.562506    5.514089
 276 H     1.0000    0     1.008    8.622820   -0.691319    6.417775
 277 H     1.0000    0     1.008    9.702345    1.858394    8.444638
 278 H     1.0000    0     1.008    5.255517    3.209775    9.130854
 279 H     1.0000    0     1.008    5.937803   -2.523484   10.200137
 280 H     1.0000    0     1.008    3.274876    2.045553    5.764269
 281 H     1.0000    0     1.008    2.562412    1.486496   12.235126
 282 N     7.0000    0    14.007    6.962224    2.367695   14.231792
 283 C     6.0000    0    12.011    8.122515    3.083580   16.638264
 284 C     6.0000    0    12.011    7.790207    0.908089   18.501061
 285 O     8.0000    0    15.999    9.590171    0.135191   19.720993
 286 C     6.0000    0    12.011    6.663155    5.415596   17.703918
 287 H     1.0000    0     1.008    4.944998    4.834656   18.750902
 288 H     1.0000    0     1.008    5.963919    6.587699   16.124976
 289 C     6.0000    0    12.011    8.041937    7.320402   19.255667
 290 C     6.0000    0    12.011    8.048759    7.583830   21.868175
 291 N     7.0000    0    14.007    9.253025    9.747056   22.519942
 292 H     1.0000    0     1.008    9.517303   10.441115   24.347723
 293 C     6.0000    0    12.011    9.946762   10.869705   20.344905
 294 C     6.0000    0    12.011    9.231048    9.440467   18.313601
 295 C     6.0000    0    12.011    9.655386   10.229579   15.830330
 296 H     1.0000    0     1.008    9.062257    9.101393   14.229411
 297 C     6.0000    0    12.011   10.871500   12.558081   15.461097
 298 H     1.0000    0     1.008   11.222309   13.224587   13.559144
 299 C     6.0000    0    12.011   11.620871   14.033409   17.553817
 300 H     1.0000    0     1.008   12.543832   15.830670   17.242107
 301 C     6.0000    0    12.011   11.157227   13.191441   20.036407
 302 H     1.0000    0     1.008   11.699710   14.325390   21.648003
 303 H     1.0000    0     1.008    7.174893    6.307641   23.206385
 304 H     1.0000    0     1.008    5.554415    3.509845   13.583049
 305 H     1.0000    0     1.008   10.134677    3.578385   16.304217
 306 N     7.0000    0    14.007    5.462745   -0.199442   18.713599
 307 C     6.0000    0    12.011    4.792119   -2.249001   20.445419
 308 C     6.0000    0    12.011    6.431607   -4.544281   20.007457
 309 O     8.0000    0    15.999    7.707569   -5.382923   21.734515
 310 C     6.0000    0    12.011    1.987860   -2.937919   20.009554
 311 C     6.0000    0    12.011    0.568845   -4.338131   22.035133
 312 C     6.0000    0    12.011   -0.623024   -6.655974   21.517045
 313 C     6.0000    0    12.011   -2.115265   -7.823050   23.363327
 314 C     6.0000    0    12.011   -2.437066   -6.682053   25.724407
 315 C     6.0000    0    12.011   -1.259219   -4.378873   26.249524
 316 C     6.0000    0    12.011    0.238238   -3.211212   24.416339
 317 H     1.0000    0     1.008    4.053349    0.497395   17.556841
 318 H     1.0000    0     1.008    5.030602   -1.529960   22.403421
 319 H     1.0000    0     1.008    1.804273   -3.906234   18.160363
 320 H     1.0000    0     1.008    0.964875   -1.155076   19.913273
 321 H     1.0000    0     1.008   -0.440779   -7.537248   19.678455
 322 H     1.0000    0     1.008   -3.051001   -9.595765   22.954957
 323 H     1.0000    0     1.008   -3.615934   -7.569846   27.140587
 324 H     1.0000    0     1.008   -1.532077   -3.478627   28.065438
 325 H     1.0000    0     1.008    1.087915   -1.395941   24.828772
 326 O     8.0000    0    15.999    6.530837   -5.676397   17.718545
 327 H     1.0000    0     1.008    5.595328   -5.046892   16.278876

--------------------------------
INTERNAL COORDINATES (ANGSTROEM)
--------------------------------
 N      0   0   0     0.000000000000     0.00000000     0.00000000
 C      1   0   0     1.462395721616     0.00000000     0.00000000
 C      2   1   0     1.514964301956   112.28248475     0.00000000
 O      3   2   1     1.223196632803   116.68585616   174.48951885
 H      1   2   3     1.047117785638   108.43843981   297.62183854
 H      2   1   3     1.114473027264   108.18622682   118.16597529
 C      2   1   3     1.530004309602   110.52340446   236.33601162
 H      7   2   1     1.110339344750   109.95409513   301.42654089
 H      7   2   1     1.109996781167   110.38304908    62.04725062
 H      7   2   1     1.112120077465   110.32739500   182.65218088
 H      1   2   3     1.045714465186   108.79500641   182.71113247
 N      3   2   1     1.373707721096   122.93044476   356.82435157
 C     12   3   2     1.459001982110   122.03895322   170.21086070
 C     13  12   3     1.532303137568   110.41958025   250.55482370
 O     14  13  12     1.222782756216   117.65609180   172.60749157
 C     13  12   3     1.543863980181   112.09923347   118.45602276
 H     16  13  12     1.110150587848   113.30617397    74.94055154
 H     16  13  12     1.113680373177   105.00853518   320.17045370
 C     16  13  12     1.559635171539   113.02633443   207.17676745
 H     19  16  13     1.109252856746   107.71289194   116.27661247
 H     19  16  13     1.112617786574   111.64207155     2.08479130
 C     19  16  13     1.532723250786   114.59507122   238.11655172
 H     22  19  16     1.111261280708   107.45345311    62.37731352
 H     22  19  16     1.110357118453   111.60248685   303.90358968
 N     22  19  16     1.456912063613   110.70706198   181.20381057
 H     25  22  19     1.031150694952   117.25798436   247.52764585
 C     25  22  19     1.435942041867   125.31655936    67.65082689
 N     27  25  22     1.422138992820   118.91661440   186.27766648
 H     28  27  25     1.031252019295   120.94853308   180.35769405
 H     28  27  25     1.029882995782   120.60865970     0.61637836
 N     27  25  22     1.292117689377   121.93081751     7.23803884
 H     31  27  25     1.027521801521   122.39908339     0.68031271
 H     31  27  25     1.031206401163   120.44027527   179.67362588
 H     12   3   2     1.029444967203   120.38466485   354.99321272
 H     13  12   3     1.104850686247   107.73879685     4.25543113
 N     14  13  12     1.383530789647   121.10801514     3.19124612
 C     36  14  13     1.464430439079   122.50681445   153.35549228
 C     37  36  14     1.548140128218   110.12554537   253.82927823
 O     38  37  36     1.224218751735   117.43167543   162.47229169
 C     37  36  14     1.533151901280   113.56962176   127.27032070
 H     40  37  36     1.110851701759   110.07002730   311.19133029
 H     40  37  36     1.110026837739   108.67966471    70.06646414
 C     40  37  36     1.516149238367   110.34563683   192.82184565
 O     43  40  37     1.221864884920   119.31076119    65.47830527
 N     43  40  37     1.351654646498   121.46124129   246.21606263
 H     45  43  40     1.028796874947   120.98414694     0.43236812
 H     45  43  40     1.031857926945   120.10686709   178.82804484
 H     37  36  14     1.109868503067   107.41081587     9.26269883
 H     36  14  13     1.026503025519   120.40776057   345.84258140
 N     38  37  36     1.380332692252   122.26796552   351.22397010
 C     50  38  37     1.460714582833   121.58059428   148.46582724
 C     51  50  38     1.528182493945   107.28690781   265.94513943
 O     52  51  50     1.215099571434   119.79850791   181.55848615
 C     51  50  38     1.547846312397   114.56044827   138.31965426
 C     54  51  50     1.559139893467   110.79023898   189.13055879
 C     55  54  51     1.500790421911   116.12179748   176.32074752
 O     56  55  54     1.221142285649   121.02930420     0.05728412
 N     56  55  54     1.355784724541   118.95242045   179.34676055
 H     51  50  38     1.109206026805   109.44754960    20.14824859
 H     50  38  37     1.027086152034   120.72916581   349.49912158
 H     54  51  50     1.110034129610   110.56044591    65.85238966
 H     54  51  50     1.110461881921   107.78154767   306.62332076
 H     55  54  51     1.113022993922   108.99157274    54.73444702
 H     55  54  51     1.102500546667   111.27416383   295.02637971
 H     58  56  55     1.029896948146   121.01513103   180.68920912
 H     58  56  55     1.032612383666   120.56208295     0.26278261
 N     52  51  50     1.364074953549   120.90629073    10.09682998
 C     67  52  51     1.439141766749   120.34041680   143.61237293
 C     68  67  52     1.526836582120   111.77702546   238.41291486
 O     69  68  67     1.217692739816   121.79251525   213.79108281
 C     68  67  52     1.510241708933   114.80654104    99.20014651
 H     71  68  67     1.107144593899   111.92004841    55.49852387
 H     71  68  67     1.104723928636   106.40892278   172.59590166
 C     71  68  67     1.546879309642   111.06971043   288.57368346
 H     74  71  68     1.107063608064   110.05433394   305.87779954
 H     74  71  68     1.106104496827   112.30829395    68.87776345
 C     74  71  68     1.475353374517   107.54480254   190.25848822
 O     77  74  71     1.354780885088   121.23276820   175.25637071
 O     77  74  71     1.757553838436   117.10983537   357.93850249
 H     79  77  74     0.080000000000   150.24959538    64.32459782
 H     67  52  51     1.010134008981   120.10689352   351.48608019
 H     68  67  52     1.086341371301   106.20541196   345.31334831
 N     69  68  67     1.355560455642   117.12211595    44.12105739
 C     83  69  68     1.449308948879   124.61641437   139.22088273
 C     84  83  69     1.555006573394   107.99514544   241.19934925
 O     85  84  83     1.216846655335   118.23980413   180.64607516
 H     84  83  69     1.115001883093   109.78714295   358.84349008
 C     84  83  69     1.528789191288   110.61784948   116.13808643
 H     88  84  83     1.111995657770   109.17293230   305.84092898
 S     88  84  83     1.828078189384   112.22266493   187.20572423
 H     88  84  83     1.101199683345   111.12082708    64.31483039
 H     90  88  84     1.410508127378    94.35976103    95.34845050
 H     83  69  68     1.015846251851   117.98883562   334.10434752
 N     85  84  83     1.381789928209   122.24151292     4.22157159
 C     94  85  84     1.459780297100   126.52839932   168.17172995
 C     95  94  85     1.522744313567   106.14848424   246.36583885
 O     96  95  94     1.216330874146   119.14812612   121.71603582
 C     95  94  85     1.538152907386   112.43504486   125.00796767
 C     98  95  94     1.539942584482   109.49854068   178.32222624
 C     99  98  95     1.526106095493   113.03981508   180.16932887
 C    100  99  98     1.533820124167   109.49802404   177.80472995
 N    101 100  99     1.457244256293   110.68535138   179.99370839
 H     95  94  85     1.104152591266   110.46447359     5.86121526
 H     98  95  94     1.108627252101   110.63559082    57.84209797
 H     98  95  94     1.111341321197   109.08189726   298.61508103
 H     99  98  95     1.112718898734   109.22245374    58.30167058
 H     99  98  95     1.112163560543   109.22198158   299.79073459
 H    100  99  98     1.112218207727   109.36546851    58.01294038
 H    100  99  98     1.111490142556   109.65354566   298.42366157
 H    101 100  99     1.112533282828   109.42613383    59.77709109
 H    101 100  99     1.114322044563   109.87881147   300.92612443
 H    102 101 100     1.045939384716   108.08518206   180.93710447
 H    102 101 100     1.045845693446   108.92329281    64.32482426
 H     94  85  84     1.019535042115   120.68743802   356.45416668
 N     96  95  94     1.362303279964   120.22922591   305.53496706
 C    115  96  95     1.456333645048   124.46214658   164.89400637
 C    116 115  96     1.538217447210   112.70949135   293.17188925
 O    117 116 115     1.222163018832   118.12093262   168.10788132
 H    116 115  96     1.107590055977   107.55530689    56.51375383
 H    116 115  96     1.109627608885   110.77850735   172.78867092
 H    115  96  95     1.016774063054   116.93756260   347.37739729
 N    117 116 115     1.372192836886   122.30497493   348.92116542
 C    122 117 116     1.465566168721   124.72371331   162.69447038
 C    123 122 117     1.535713803285   109.48293266   233.05091670
 O    124 123 122     1.211042289187   117.89715448   185.04342232
 C    123 122 117     1.541898492671   113.65236940   100.25595411
 C    126 123 122     1.519571948576   117.01650218   190.72689006
 O    127 126 123     1.222118548423   118.74420565   116.88007687
 O    127 126 123     1.832214979444   122.56235562   292.27606994
 H    123 122 117     1.109414093880   108.59478905   347.95033871
 H    126 123 122     1.074651023728   110.94283487    68.60250963
 H    126 123 122     1.113277781329   106.01618125   309.71354795
 H    129 127 126     0.022360679775   164.62120318   151.96254661
 H    122 117 116     1.021779483597   118.58156672   353.96155789
 N    124 123 122     1.378261472254   121.86214549    16.29530931
 C    135 124 123     1.453344725556   119.43970465   127.52170045
 C    136 135 124     1.540617117489   108.26033910   284.83216969
 O    137 136 135     1.208791387047   116.86889733   169.72559827
 H    136 135 124     1.098668738565   107.66420179    45.21221805
 C    136 135 124     1.535494955251   114.48808380   161.37009694
 H    140 136 135     1.103935707367   109.91513116   301.47658959
 H    140 136 135     1.106897453651   110.54663254    61.87394848
 O    140 136 135     1.405687818045   110.55492150   184.33636883
 H    143 140 136     0.993101301731   107.61891434   256.69511203
 H    135 124 123     1.006770244594   119.18372670   345.59258139
 N    137 136 135     1.381274087319   122.58713837   355.18432352
 C    146 137 136     1.461641609322   127.64203947   160.72419578
 C    147 146 137     1.526212551383   105.31298757   262.91414350
 O    148 147 146     1.220200624897   123.67386026   232.92599344
 C    147 146 137     1.563837336330   112.32421411   133.47358809
 C    150 147 146     1.540276746724   114.17148157   174.05018342
 C    150 147 146     1.537508387294   111.02871109   296.16221028
 H    147 146 137     1.088773272541   111.38060795    12.56461154
 H    146 137 136     1.003150516124   119.00152034   353.59121537
 H    150 147 146     1.094561704291   108.71124064    54.90636741
 H    151 150 147     1.105306760813   112.36512115   296.16532660
 H    151 150 147     1.112364638147   109.67778207   179.09975558
 H    151 150 147     1.109502067686   111.06768305    58.74279601
 H    152 150 147     1.111202318842   110.32607923   173.99593086
 H    152 150 147     1.103160252593   112.13419121    53.48671362
 H    152 150 147     1.103709038923   110.68647032   292.99093715
 N    148 147 146     1.358109444596   114.62378287    56.51242886
 C    162 148 147     1.444099466865   128.99678050   160.72715660
 C    163 162 148     1.545492833144   108.78018737   212.31027930
 O    164 163 162     1.210088065597   115.15840043   129.58328489
 C    163 162 148     1.531642832974   114.65065875    71.67933976
 H    166 163 162     1.110733204465   105.44980560   330.93045542
 H    166 163 162     1.105224808987   112.73444676    87.39651255
 C    166 163 162     1.519164592992   111.54536987   216.74021165
 C    169 166 163     1.401982888697   121.70660083   283.00499229
 H    170 169 166     1.081579187346   120.27909269   358.56712443
 C    170 169 166     1.402010823853   120.15942790   179.09148304
 H    172 170 169     1.081032696129   119.62810421   179.08726972
 C    172 170 169     1.403388636301   120.52605497   358.75731208
 C    174 172 170     1.395539002285   119.55495821     0.68879633
 H    175 174 172     1.084057737254   120.11266862   180.46123067
 C    175 174 172     1.396653328210   120.09864416     0.31457316
 H    177 175 174     1.083590367713   118.34446793   180.55507860
 O    174 172 170     1.348931817328   121.06452773   180.82344858
[...]
Atom 104H    basis set group =>   4
Atom 105H    basis set group =>   4
Atom 106H    basis set group =>   4
Atom 107H    basis set group =>   4
Atom 108H    basis set group =>   4
Atom 109H    basis set group =>   4
Atom 110H    basis set group =>   4
Atom 111H    basis set group =>   4
Atom 112H    basis set group =>   4
Atom 113H    basis set group =>   4
Atom 114N    basis set group =>   1
Atom 115C    basis set group =>   2
Atom 116C    basis set group =>   2
Atom 117O    basis set group =>   3
Atom 118H    basis set group =>   4
Atom 119H    basis set group =>   4
Atom 120H    basis set group =>   4
Atom 121N    basis set group =>   1
Atom 122C    basis set group =>   2
Atom 123C    basis set group =>   2
Atom 124O    basis set group =>   3
Atom 125C    basis set group =>   2
Atom 126C    basis set group =>   2
Atom 127O    basis set group =>   3
Atom 128O    basis set group =>   3
Atom 129H    basis set group =>   4
Atom 130H    basis set group =>   4
Atom 131H    basis set group =>   4
Atom 132H    basis set group =>   4
Atom 133H    basis set group =>   4
Atom 134N    basis set group =>   1
Atom 135C    basis set group =>   2
Atom 136C    basis set group =>   2
Atom 137O    basis set group =>   3
Atom 138H    basis set group =>   4
Atom 139C    basis set group =>   2
Atom 140H    basis set group =>   4
Atom 141H    basis set group =>   4
Atom 142O    basis set group =>   3
Atom 143H    basis set group =>   4
Atom 144H    basis set group =>   4
Atom 145N    basis set group =>   1
Atom 146C    basis set group =>   2
Atom 147C    basis set group =>   2
Atom 148O    basis set group =>   3
Atom 149C    basis set group =>   2
Atom 150C    basis set group =>   2
Atom 151C    basis set group =>   2
Atom 152H    basis set group =>   4
Atom 153H    basis set group =>   4
Atom 154H    basis set group =>   4
Atom 155H    basis set group =>   4
Atom 156H    basis set group =>   4
Atom 157H    basis set group =>   4
Atom 158H    basis set group =>   4
Atom 159H    basis set group =>   4
Atom 160H    basis set group =>   4
Atom 161N    basis set group =>   1
Atom 162C    basis set group =>   2
Atom 163C    basis set group =>   2
Atom 164O    basis set group =>   3
Atom 165C    basis set group =>   2
Atom 166H    basis set group =>   4
Atom 167H    basis set group =>   4
Atom 168C    basis set group =>   2
Atom 169C    basis set group =>   2
Atom 170H    basis set group =>   4
Atom 171C    basis set group =>   2
Atom 172H    basis set group =>   4
Atom 173C    basis set group =>   2
Atom 174C    basis set group =>   2
Atom 175H    basis set group =>   4
Atom 176C    basis set group =>   2
Atom 177H    basis set group =>   4
Atom 178O    basis set group =>   3
Atom 179H    basis set group =>   4
Atom 180H    basis set group =>   4
Atom 181H    basis set group =>   4
Atom 182N    basis set group =>   1
Atom 183C    basis set group =>   2
Atom 184C    basis set group =>   2
Atom 185O    basis set group =>   3
Atom 186H    basis set group =>   4
Atom 187C    basis set group =>   2
Atom 188H    basis set group =>   4
Atom 189H    basis set group =>   4
Atom 190C    basis set group =>   2
Atom 191H    basis set group =>   4
Atom 192H    basis set group =>   4
Atom 193C    basis set group =>   2
Atom 194H    basis set group =>   4
Atom 195H    basis set group =>   4
Atom 196N    basis set group =>   1
Atom 197C    basis set group =>   2
Atom 198C    basis set group =>   2
Atom 199O    basis set group =>   3
Atom 200H    basis set group =>   4
Atom 201H    basis set group =>   4
Atom 202C    basis set group =>   2
Atom 203H    basis set group =>   4
Atom 204H    basis set group =>   4
Atom 205C    basis set group =>   2
Atom 206H    basis set group =>   4
Atom 207C    basis set group =>   2
Atom 208H    basis set group =>   4
Atom 209H    basis set group =>   4
Atom 210H    basis set group =>   4
Atom 211C    basis set group =>   2
Atom 212H    basis set group =>   4
Atom 213H    basis set group =>   4
Atom 214H    basis set group =>   4
Atom 215N    basis set group =>   1
Atom 216C    basis set group =>   2
Atom 217C    basis set group =>   2
Atom 218O    basis set group =>   3
Atom 219C    basis set group =>   2
Atom 220C    basis set group =>   2
Atom 221C    basis set group =>   2
Atom 222H    basis set group =>   4
Atom 223C    basis set group =>   2
Atom 224H    basis set group =>   4
Atom 225H    basis set group =>   4
Atom 226H    basis set group =>   4
Atom 227H    basis set group =>   4
Atom 228H    basis set group =>   4
Atom 229H    basis set group =>   4
Atom 230H    basis set group =>   4
Atom 231H    basis set group =>   4
Atom 232H    basis set group =>   4
Atom 233H    basis set group =>   4
Atom 234N    basis set group =>   1
Atom 235C    basis set group =>   2
Atom 236C    basis set group =>   2
Atom 237O    basis set group =>   3
Atom 238C    basis set group =>   2
Atom 239H    basis set group =>   4
Atom 240H    basis set group =>   4
Atom 241C    basis set group =>   2
Atom 242N    basis set group =>   1
Atom 243C    basis set group =>   2
Atom 244H    basis set group =>   4
Atom 245N    basis set group =>   1
Atom 246C    basis set group =>   2
Atom 247H    basis set group =>   4
Atom 248H    basis set group =>   4
Atom 249H    basis set group =>   4
Atom 250H    basis set group =>   4
Atom 251N    basis set group =>   1
Atom 252C    basis set group =>   2
Atom 253C    basis set group =>   2
Atom 254O    basis set group =>   3
Atom 255C    basis set group =>   2
Atom 256C    basis set group =>   2
Atom 257S    basis set group =>   5
Atom 258C    basis set group =>   2
Atom 259H    basis set group =>   4
Atom 260H    basis set group =>   4
Atom 261H    basis set group =>   4
Atom 262H    basis set group =>   4
Atom 263H    basis set group =>   4
Atom 264H    basis set group =>   4
Atom 265H    basis set group =>   4
Atom 266H    basis set group =>   4
Atom 267H    basis set group =>   4
Atom 268N    basis set group =>   1
Atom 269C    basis set group =>   2
Atom 270C    basis set group =>   2
Atom 271O    basis set group =>   3
Atom 272C    basis set group =>   2
Atom 273C    basis set group =>   2
Atom 274O    basis set group =>   3
Atom 275H    basis set group =>   4
Atom 276H    basis set group =>   4
Atom 277H    basis set group =>   4
Atom 278H    basis set group =>   4
Atom 279H    basis set group =>   4
Atom 280H    basis set group =>   4
Atom 281H    basis set group =>   4
Atom 282N    basis set group =>   1
Atom 283C    basis set group =>   2
Atom 284C    basis set group =>   2
Atom 285O    basis set group =>   3
Atom 286C    basis set group =>   2
Atom 287H    basis set group =>   4
Atom 288H    basis set group =>   4
Atom 289C    basis set group =>   2
Atom 290C    basis set group =>   2
Atom 291N    basis set group =>   1
Atom 292H    basis set group =>   4
Atom 293C    basis set group =>   2
Atom 294C    basis set group =>   2
Atom 295C    basis set group =>   2
Atom 296H    basis set group =>   4
Atom 297C    basis set group =>   2
Atom 298H    basis set group =>   4
Atom 299C    basis set group =>   2
Atom 300H    basis set group =>   4
Atom 301C    basis set group =>   2
Atom 302H    basis set group =>   4
Atom 303H    basis set group =>   4
Atom 304H    basis set group =>   4
Atom 305H    basis set group =>   4
Atom 306N    basis set group =>   1
Atom 307C    basis set group =>   2
Atom 308C    basis set group =>   2
Atom 309O    basis set group =>   3
Atom 310C    basis set group =>   2
Atom 311C    basis set group =>   2
Atom 312C    basis set group =>   2
Atom 313C    basis set group =>   2
Atom 314C    basis set group =>   2
Atom 315C    basis set group =>   2
Atom 316C    basis set group =>   2
Atom 317H    basis set group =>   4
Atom 318H    basis set group =>   4
Atom 319H    basis set group =>   4
Atom 320H    basis set group =>   4
Atom 321H    basis set group =>   4
Atom 322H    basis set group =>   4
Atom 323H    basis set group =>   4
Atom 324H    basis set group =>   4
Atom 325H    basis set group =>   4
Atom 326O    basis set group =>   3
Atom 327H    basis set group =>   4
------------------------------------------------------------------------------
                           ORCA GTO INTEGRAL CALCULATION
                           -- RI-GTO INTEGRALS CHOSEN --
------------------------------------------------------------------------------
------------------------------------------------------------------------------
                   ___                                                        
                  /   \      - P O W E R E D   B Y -                         
                 /     \                                                     
                 |  |  |   _    _      __       _____    __    __             
                 |  |  |  | |  | |    /  \     |  _  \  |  |  /  |          
                  \  \/   | |  | |   /    \    | | | |  |  | /  /          
                 / \  \   | |__| |  /  /\  \   | |_| |  |  |/  /          
                |  |  |   |  __  | /  /__\  \  |    /   |      \           
                |  |  |   | |  | | |   __   |  |    \   |  |\   \          
                \     /   | |  | | |  |  |  |  | |\  \  |  | \   \       
                 \___/    |_|  |_| |__|  |__|  |_| \__\ |__|  \__/        
                                                                              
                      - O R C A' S   B I G   F R I E N D -                    
                                      &                                       
                       - I N T E G R A L  F E E D E R -                       
                                                                              
 v1 FN, 2020, v2 2021                                                         
------------------------------------------------------------------------------


Reading SHARK input file enzym_test.SHARKINP.tmp ... ok
----------------------
SHARK INTEGRAL PACKAGE
----------------------

Number of atoms                             ...    328
Number of basis functions                   ...   8334
Number of shells                            ...   3670
Maximum angular momentum                    ...      3
Integral batch strategy                     ... SHARK/LIBINT Hybrid
RI-J (if used) integral strategy            ... SPLIT-RIJ (Revised 2003 algorithm where possible)
Printlevel                                  ...      1
Contraction scheme used                     ... PARTIAL GENERAL contraction
Coulomb Range Separation                    ... NOT USED
Exchange Range Separation                   ... NOT USED
Finite Nucleus Model                        ... NOT USED
Auxiliary Coulomb fitting basis             ... AVAILABLE
   # of basis functions in Aux-J            ...   9996
   # of shells in Aux-J                     ...   3324
   Maximum angular momentum in Aux-J        ...      4
Auxiliary J/K fitting basis                 ... NOT available
Auxiliary Correlation fitting basis         ... NOT available
Auxiliary 'external' fitting basis          ... NOT available
Integral threshold                          ...     1.000000e-10
Primitive cut-off                           ...     1.000000e-11
Primitive pair pre-selection threshold      ...     1.000000e-11

Calculating pre-screening integrals         ... done ( 22.9 sec) Dimension = 3670
Calculating pre-screening integrals (ORCA)  ... done (144.5 sec) Dimension = 2644
Organizing shell pair data                  ... done ( 20.8 sec)
Shell pair information
Total number of shell pairs                 ...   6736285
Shell pairs after pre-screening             ...    930646
Total number of primitive shell pairs       ...   9342981
Primitive shell pairs kept                  ...   1077869
          la=0 lb=0: 279105 shell pairs
          la=1 lb=0: 287482 shell pairs
          la=1 lb=1:  72867 shell pairs
          la=2 lb=0: 130157 shell pairs
          la=2 lb=1:  70186 shell pairs
          la=2 lb=2:  15817 shell pairs
          la=3 lb=0:  40742 shell pairs
          la=3 lb=1:  22805 shell pairs
          la=3 lb=2:   9812 shell pairs
          la=3 lb=3:   1673 shell pairs

Calculating one electron integrals          ... done ( 40.9 sec)
Calculating RI/J V-Matrix + Cholesky decomp.... done ( 30.2 sec)
Calculating Nuclear repulsion               ... done (  0.0 sec) ENN=  53634.547046786131 Eh

SHARK setup successfully completed in 306.3 seconds

Maximum memory used throughout the entire GTOINT-calculation: 6843.7 MB
-------------------------------------------------------------------------------
                                 ORCA SCF
-------------------------------------------------------------------------------

------------
SCF SETTINGS
------------
Hamiltonian:
 Density Functional     Method          .... DFT(GTOs)
 Exchange Functional    Exchange        .... B88
   X-Alpha parameter    XAlpha          ....  0.666667
   Becke's b parameter  XBeta           ....  0.004200
 Correlation Functional Correlation     .... P86
 LDA part of GGA corr.  LDAOpt          .... PW91-LDA
 Gradients option       PostSCFGGA      .... off
   Density functional embedding theory  .... OFF
   NL short-range parameter             ....  4.400000
 RI-approximation to the Coulomb term is turned on
   Number of AuxJ basis functions       .... 9996


General Settings:
 Integral files         IntName         .... enzym_test
 Hartree-Fock type      HFTyp           .... RHF
 Total Charge           Charge          ....   -9
 Multiplicity           Mult            ....    1
 Number of Electrons    NEL             .... 1286
 Basis Dimension        Dim             .... 7288
 Nuclear Repulsion      ENuc            ....  53634.5470467861 Eh

Convergence Acceleration:
 DIIS                   CNVDIIS         .... on
   Start iteration      DIISMaxIt       ....     0
   Startup error        DIISStart       ....  0.200000
   # of expansion vecs  DIISMaxEq       ....     5
   Bias factor          DIISBfac        ....   1.050
   Max. coefficient     DIISMaxC        ....  10.000
 Trust-Rad. Augm. Hess. CNVTRAH         .... auto
   Auto Start mean grad. ratio tolernc. ....  1.125000
   Auto Start start iteration           ....    20
   Auto Start num. interpolation iter.  ....    10
   Max. Number of Micro iterations      ....    16
   Max. Number of Macro iterations      .... Maxiter - #DIIS iter
   Number of Davidson start vectors     ....     2
   Converg. threshold I  (grad. norm)   ....   5.000e-05
   Converg. threshold II (energy diff.) ....   1.000e-06
   Grad. Scal. Fac. for Micro threshold ....   0.100
   Minimum threshold for Micro iter.    ....   0.010
   NR start threshold (gradient norm)   ....   0.001
   Initial trust radius                 ....   0.400
   Minimum AH scaling param. (alpha)    ....   1.000
   Maximum AH scaling param. (alpha)    .... 1000.000
   Orbital update algorithm             .... Taylor
   White noise on init. David. guess    .... on
   Maximum white noise                  ....   0.010
   Quad. conv. algorithm                .... NR
 SOSCF                  CNVSOSCF        .... on
   Start iteration      SOSCFMaxIt      ....   150
   Startup grad/error   SOSCFStart      ....  0.001000
 Level Shifting         CNVShift        .... on
   Level shift para.    LevelShift      ....    0.2500
   Turn off err/grad.   ShiftErr        ....    0.0000
 Zerner damping         CNVZerner       .... off
 Static damping         CNVDamp         .... on
   Fraction old density DampFac         ....    0.8500
   Max. Damping (<1)    DampMax         ....    0.9800
   Min. Damping (>=0)   DampMin         ....    0.0000
   Turn off err/grad.   DampErr         ....    0.0300
 Fernandez-Rico         CNVRico         .... off

SCF Procedure:
 Maximum # iterations   MaxIter         ....  1000
 SCF integral mode      SCFMode         .... Direct
   Integral package                     .... SHARK and LIBINT hybrid scheme
 Reset frequency        DirectResetFreq ....    20
 Integral Threshold     Thresh          ....  1.000e-10 Eh
 Primitive CutOff       TCut            ....  1.000e-11 Eh

Convergence Tolerance:
 Convergence Check Mode ConvCheckMode   .... Total+1el-Energy
 Convergence forced     ConvForced      .... 0
 Energy Change          TolE            ....  1.000e-06 Eh
 1-El. energy change                    ....  1.000e-03 Eh
 Orbital Gradient       TolG            ....  5.000e-05
 Orbital Rotation angle TolX            ....  5.000e-05
 DIIS Error             TolErr          ....  1.000e-06


Diagonalization of the overlap matrix:
Smallest eigenvalue                        ... 2.248e-05
Time for diagonalization                   ...  135.458 sec
Threshold for overlap eigenvalues          ... 1.000e-08
Number of eigenvalues below threshold      ... 0
Time for construction of square roots      ...   75.606 sec
Total time needed                          ...  211.201 sec

Time for model grid setup =  461.273 sec

------------------------------
INITIAL GUESS: MODEL POTENTIAL
------------------------------
Loading Hartree-Fock densities                     ... done
Calculating cut-offs                               ... done
Initializing the effective Hamiltonian             ... done
Setting up the integral package (SHARK)            ... done
Starting the Coulomb interaction                   ... done ( 861.0 sec)
Reading the grid                                   ... done
Mapping shells                                     ... done
Starting the XC term evaluation                    ... done (  71.1 sec)
  promolecular density results
     # of electrons  =   1276.919030507
     EX              =  -1085.129964026
     EC              =    -47.735207536
     EX+EC           =  -1132.865171561
Transforming the Hamiltonian                       ... done (  66.0 sec)
Diagonalizing the Hamiltonian                      ... done ( 136.1 sec)
Back transforming the eigenvectors                 ... done (  38.5 sec)
Now organizing SCF variables                       ... done
                      ------------------
                      INITIAL GUESS DONE (1658.1 sec)
                      ------------------
-------------------
DFT GRID GENERATION
-------------------

General Integration Accuracy     IntAcc      ... 4.388
Radial Grid Type                 RadialGrid  ... OptM3 with GC (2021)
Angular Grid (max. ang.)         AngularGrid ... 4 (Lebedev-302)
Angular grid pruning method      GridPruning ... 4 (adaptive)
Weight generation scheme         WeightScheme... Becke
Basis function cutoff            BFCut       ... 1.0000e-10
Integration weight cutoff        WCut        ... 1.0000e-14
Angular grids for H and He will be reduced by one unit
Partially contracted basis set               ... off
Rotationally invariant grid construction     ... off

Total number of grid points                  ...  1486405
Total number of batches                      ...    23390
Average number of points per batch           ...       63
Average number of grid points per atom       ...     4532
Time for grid setup = 1391.866 sec


 Error  (ORCA_SCF): Not enough memory available!
                    Memory available for SCF calculation:         1024 MB
                    Memory needed (estimated)           :         4699 MB
       ====>        Please increase MaxCore to more than:         4699 MB


Error (ORCA_SCF): ... aborting the run

ORCA finished by error termination in SCF
Calling Command: orca_scf enzym_test.gbw b 
[file orca_tools/qcmsg.cpp, line 465]: 
  .... aborting the run

