18
# ORCA AIMD Position Step 0, t=0.00 fs, E_Pot=-473.55277729 Hartree, Unit is Angstrom
 C     -5.6936200255      0.8146500036      4.0222200180
 C     -6.1318600275      1.5748900071      2.9134100130
 C     -5.9739800268      1.0017200045      1.6743000075
 C     -5.4110500242     -0.3101100014      1.4085700063
 C     -5.0977700228     -1.1296900051      2.5627100115
 C     -5.1910800232     -0.5470000024      3.8077500171
 C     -5.7699800258      1.2579700056      5.4350800243
 H     -5.5421700248      0.4705300021      6.1908100277
 H     -6.8233100306      1.6927900076      5.6954600255
 H     -5.1350500230      2.1154200095      5.5705400249
 H     -6.5422500293      2.5450700114      3.1429000141
 H     -6.3071200282      1.5441000069      0.8022400036
 H     -5.2280800234     -0.6840300031      0.3944700018
 H     -4.7830500214     -2.1701300097      2.4829200111
 H     -4.8980100219     -1.1588200052      4.6939300210
 N     -7.7154900346      0.1820700008     -5.1450100230
 O     -7.1845600322      0.2166400010     -3.9164700175
 O     -7.5418200338      0.0790700004     -6.4517400289
18
# ORCA AIMD Position Step 1, t=1.00 fs, E_Pot=-473.54198984 Hartree, Unit is Angstrom
 C     -5.6875481311      0.8139842202      4.0259948188
 C     -6.1357877598      1.5922025068      2.9312762030
 C     -5.9665529574      1.0011392007      1.6746477846
 C     -5.4011773735     -0.3211324817      1.4158621242
 C     -5.1081254478     -1.1230440182      2.5577702540
 C     -5.2007056812     -0.5399757071      3.8038284453
 C     -5.7680744347      1.2519208381      5.4313108841
 H     -5.5187349534      0.4520906841      6.1873394702
 H     -6.8600581927      1.7051897609      5.6961352182
 H     -5.1264223085      2.0602666968      5.5578548466
 H     -6.5281798902      2.5349501577      3.1156386469
 H     -6.3017124967      1.5231758485      0.8110449853
 H     -5.1916629545     -0.6999751050      0.4004419801
 H     -4.8218907360     -2.1736040025      2.4686508358
 H     -4.8982024066     -1.1643519563      4.7197588474
 N     -7.7127144837      0.1767798979     -5.1462411776
 O     -7.1846976607      0.2140990070     -3.9159768950
 O     -7.5459068288      0.0841180283     -6.4626217274
18
# ORCA AIMD Position Step 2, t=2.00 fs, E_Pot=-473.53316643 Hartree, Unit is Angstrom
 C     -5.6814676764      0.8122294332      4.0299900053
 C     -6.1385510663      1.6072621274      2.9488298458
 C     -5.9589828322      1.0003390540      1.6745373170
 C     -5.3914834217     -0.3319374582      1.4240750426
 C     -5.1184638325     -1.1163663691      2.5521791085
 C     -5.2101079120     -0.5335771304      3.8012908502
 C     -5.7687771214      1.2451856198      5.4285521682
 H     -5.4976043889      0.4395078576      6.1769975259
 H     -6.8779235019      1.7085689306      5.6917464684
 H     -5.1024815377      2.0247613813      5.5507770866
 H     -6.5224647858      2.5424900914      3.0877158159
 H     -6.2985942144      1.5088014361      0.8120294206
 H     -5.1584198152     -0.7125805029      0.4099954516
 H     -4.8591999790     -2.1754310464      2.4531285061
 H     -4.9031342958     -1.1603523549      4.7338952786
 N     -7.7093807159      0.1714308766     -5.1475114314
 O     -7.1854163795      0.2114488893     -3.9178204547
 O     -7.5499140572      0.0893194792     -6.4711960643
18
# ORCA AIMD Position Step 3, t=3.00 fs, E_Pot=-473.53337813 Hartree, Unit is Angstrom
 C     -5.6756696182      0.8098277243      4.0340135203
 C     -6.1397004096      1.6190450108      2.9652877663
 C     -5.9512215043      0.9993836967      1.6746510104
 C     -5.3820440986     -0.3420914474      1.4327446887
 C     -5.1287378760     -1.1101316893      2.5463164597
 C     -5.2191472789     -0.5281332124      3.8003361765
 C     -5.7722635326      1.2375637775      5.4270211420
 H     -5.4806495830      0.4332884621      6.1597749350
 H     -6.8733687744      1.7019415412      5.6824224704
 H     -5.0618395623      2.0120403008      5.5501116173
 H     -6.5278657951      2.5744959929      3.0617082372
 H     -6.2983907042      1.5023262176      0.8033642733
 H     -5.1290623061     -0.7212719117      0.4239520062
 H     -4.8945563567     -2.1750132797      2.4374698888
 H     -4.9137311283     -1.1456695809      4.7331783800
 N     -7.7055113866      0.1660032890     -5.1489148327
 O     -7.1867032249      0.2086773389     -3.9220314265
 O     -7.5538439721      0.0946932348     -6.4774077178
18
# ORCA AIMD Position Step 4, t=4.00 fs, E_Pot=-473.53628487 Hartree, Unit is Angstrom
 C     -5.6704339018      0.8072543753      4.0378746681
 C     -6.1392892820      1.6276837351      2.9800791970
 C     -5.9433695907      0.9984930106      1.6752241680
 C     -5.3730080696     -0.3510338193      1.4413507090
 C     -5.1388532273     -1.1048451231      2.5406988234
 C     -5.2277343676     -0.5238159013      3.8008717492
 C     -5.7778267590      1.2297499448      5.4268787266
 H     -5.4689454787      0.4321895523      6.1375642048
 H     -6.8460735222      1.6857214695      5.6690925040
 H     -5.0116775376      2.0151595406      5.5547531915
 H     -6.5415110758      2.6241855885      3.0383252220
 H     -6.3001932398      1.5026755586      0.7872536251
 H     -5.1041324301     -0.7260078029      0.4417348156
 H     -4.9272394221     -2.1722645572      2.4228191601
 H     -4.9296920351     -1.1215627041      4.7178671221
 N     -7.7011657811      0.1605064563     -5.1505366355
 O     -7.1885283444      0.2057879624     -3.9285967523
 O     -7.5576741287      0.1002280873     -6.4811922186
18
# ORCA AIMD Position Step 5, t=5.00 fs, E_Pot=-473.53332148 Hartree, Unit is Angstrom
 C     -5.6659818593      0.8049634993      4.0414131338
 C     -6.1377025917      1.6340897374      2.9927469601
 C     -5.9356180789      0.9979830543      1.6761416676
 C     -5.3645614337     -0.3581363700      1.4493863864
 C     -5.1487120541     -1.1009718524      2.5359289558
 C     -5.2358807681     -0.5205843668      3.8024897801
 C     -5.7842225368      1.2227030553      5.4281137550
 H     -5.4625818952      0.4334143524      6.1138690942
 H     -6.7998883082      1.6620737747      5.6536382889
 H     -4.9628061091      2.0235867429      5.5627502426
 H     -6.5572072766      2.6765632799      3.0180190887
 H     -6.3019214859      1.5070149683      0.7688730532
 H     -5.0837961899     -0.7273081868      0.4613741096
 H     -4.9564009843     -2.1678245132      2.4102074712
 H     -4.9494163276     -1.0918387072      4.6920459976
 N     -7.6964308191      0.1549587268     -5.1524601253
 O     -7.1908433862      0.2027919699     -3.9374478969
 O     -7.5613731531      0.1059010419     -6.4825218952
18
# ORCA AIMD Position Step 6, t=6.00 fs, E_Pot=-473.52232052 Hartree, Unit is Angstrom
 C     -5.6624525343      0.8033354591      4.0445175585
 C     -6.1353183033      1.6391845146      3.0029365669
 C     -5.9281314098      0.9981555532      1.6771650346
 C     -5.3568677122     -0.3627958035      1.4564466244
 C     -5.1582724159     -1.0988705880      2.5326092252
 C     -5.2437631400     -0.5181302831      3.8044432246
 C     -5.7899584847      1.2170011626      5.4304613646
 H     -5.4607436086      0.4331878174      6.0930120729
 H     -6.7447062719      1.6357449389      5.6392067736
 H     -4.9239925394      2.0290697547      5.5724388342
 H     -6.5693865695      2.7181567329      3.0016962993
 H     -6.3013004163      1.5122300754      0.7538024212
 H     -5.0677426787     -0.7261187763      0.4799307946
 H     -4.9813128136     -2.1630006550      2.4004182442
 H     -4.9699980150     -1.0629005561      4.6640052537
 N     -7.6913947064      0.1493559828     -5.1547792383
 O     -7.1935929414      0.1996924912     -3.9485008206
 O     -7.5649224989      0.1117087682     -6.4814191476
18
# ORCA AIMD Position Step 7, t=7.00 fs, E_Pot=-473.50892439 Hartree, Unit is Angstrom
 C     -5.6599191452      0.8026587058      4.0471316106
 C     -6.1323519905      1.6435685072      3.0104100355
 C     -5.9209684002      0.9992321725      1.6781100307
 C     -5.3500274020     -0.3644924951      1.4622708268
 C     -5.1675812448     -1.0987760464      2.5312650867
 C     -5.2517160157     -0.5159424187      3.8057421534
 C     -5.7932231539      1.2125906033      5.4334628073
 H     -5.4622611253      0.4278129856      6.0789367911
 H     -6.6979784305      1.6148127085      5.6304416085
 H     -4.9004344787      2.0268184247      5.5828333152
 H     -6.5746068384      2.7407922567      2.9903839711
 H     -6.2965770656      1.5160113157      0.7461723821
 H     -5.0553188017     -0.7235039380      0.4942426622
 H     -5.0015045406     -2.1594839305      2.3939710068
 H     -4.9877055774     -1.0428669493      4.6451474893
 N     -7.6861240667      0.1436502491     -5.1576144520
 O     -7.1967295941      0.1964727373     -3.9617189625
 O     -7.5683283047      0.1176903052     -6.4779228639
18
# ORCA AIMD Position Step 8, t=8.00 fs, E_Pot=-473.50710846 Hartree, Unit is Angstrom
 C     -5.6584294826      0.8031558196      4.0492385927
 C     -6.1288383218      1.6475288114      3.0150302547
 C     -5.9140509236      1.0013524212      1.6789274806
 C     -5.3440482441     -0.3628212879      1.4667361768
 C     -5.1767912067     -1.1008280548      2.5322790172
 C     -5.2601130301     -0.5135827181      3.8055575809
 C     -5.7920908227      1.2089359138      5.4366907587
 H     -5.4664114012      0.4148316503      6.0740941322
 H     -6.6804259824      1.6088540936      5.6325058230
 H     -4.8945525652      2.0145624397      5.5935874001
 H     -6.5712415234      2.7408440940      2.9849425344
 H     -6.2867437265      1.5172725971      0.7480302211
 H     -5.0458435489     -0.7202456403      0.5018653596
 H     -5.0168052048     -2.1589128569      2.3912136697
 H     -4.9995639720     -1.0385292922      4.6453089665
 N     -7.6806479437      0.1377330096     -5.1611345335
 O     -7.2002276926      0.1930865195     -3.9771831849
 O     -7.5716269377      0.1239451927     -6.4720325474
18
# ORCA AIMD Position Step 9, t=9.00 fs, E_Pot=-473.52176834 Hartree, Unit is Angstrom
 C     -5.6580740290      0.8049892315      4.0507880718
 C     -6.1247377207      1.6509753928      3.0166009165
 C     -5.9073542361      1.0045303587      1.6797068195
 C     -5.3389947940     -0.3575673809      1.4697019262
 C     -5.1859029612     -1.1050441015      2.5358123594
 C     -5.2689470356     -0.5111419734      3.8038261809
 C     -5.7857569708      1.2057410736      5.4400502043
 H     -5.4733869956      0.3942106546      6.0789193485
 H     -6.7007586564      1.6219174524      5.6476006697
 H     -4.9068952474      1.9921038466      5.6046013617
 H     -6.5591614024      2.7182010321      2.9861352439
 H     -6.2718148786      1.5161930376      0.7592297712
 H     -5.0391802054     -0.7165991168      0.5016893903
 H     -5.0269284168     -2.1624720875      2.3924972056
 H     -5.0052227286     -1.0510868495      4.6657233828
 N     -7.6751111395      0.1315932638     -5.1654724183
 O     -7.2039871712      0.1895499646     -3.9946821615
 O     -7.5747929714      0.1304657906     -6.4638502780
18
# ORCA AIMD Position Step 10, t=10.00 fs, E_Pot=-473.53711030 Hartree, Unit is Angstrom
 C     -5.6589215896      0.8081745403      4.0517218684
 C     -6.1199641575      1.6534266815      3.0150374099
 C     -5.9009149120      1.0085922191      1.6806869276
 C     -5.3349426204     -0.3489632901      1.4710846845
 C     -5.1947383341     -1.1111976290      2.5416206134
 C     -5.2777656484     -0.5092976993      3.8014209760
 C     -5.7756298594      1.2032848919      5.4439350788
 H     -5.4840772202      0.3688736512      6.0913176987
 H     -6.7444896700      1.6470685250      5.6720573014
 H     -4.9348223106      1.9621002665      5.6160478520
 H     -6.5404216789      2.6779767196      2.9941651191
 H     -6.2531597866      1.5144014863      0.7768088391
 H     -5.0357212947     -0.7121846078      0.4947735757
 H     -5.0317818468     -2.1702550495      2.3979757102
 H     -5.0074819790     -1.0745637669      4.6968562893
 N     -7.6697948669      0.1253438617     -5.1706643991
 O     -7.2078059805      0.1859598398     -4.0135404609
 O     -7.5777390989      0.1371064970     -6.4537464616
18
# ORCA AIMD Position Step 11, t=11.00 fs, E_Pot=-473.54127817 Hartree, Unit is Angstrom
 C     -5.6609739247      0.8126036721      4.0520442166
 C     -6.1142305517      1.6540568203      3.0104663699
 C     -5.8946297801      1.0132850388      1.6822421036
 C     -5.3318253116     -0.3375399459      1.4709920031
 C     -5.2032250354     -1.1189485048      2.5491819901
 C     -5.2861593673     -0.5088158453      3.7994749076
 C     -5.7640085195      1.2017155649      5.4489368469
 H     -5.4995978784      0.3431454493      6.1076001553
 H     -6.7897838441      1.6737156795      5.6999859210
 H     -4.9718385389      1.9302364886      5.6289943071
 H     -6.5194099758      2.6310246313      3.0085858011
 H     -6.2328849765      1.5147489696      0.7956442979
 H     -5.0359971754     -0.7060531636      0.4839409870
 H     -5.0318444403     -2.1812425080      2.4075676497
 H     -5.0101555715     -1.1006624781      4.7262879328
 N     -7.6649264255      0.1190242212     -5.1767569230
 O     -7.2115062219      0.1823796573     -4.0331728803
 O     -7.5804230589      0.1437937898     -6.4421315565
18
# ORCA AIMD Position Step 12, t=12.00 fs, E_Pot=-473.53712703 Hartree, Unit is Angstrom
 C     -5.6641722117      0.8180659424      4.0518232680
 C     -6.1070648445      1.6517119297      3.0031109273
 C     -5.8883307689      1.0183544759      1.6847652576
 C     -5.3295194417     -0.3239590367      1.4696793536
 C     -5.2113530606     -1.1279132390      2.5578646249
 C     -5.2938940451     -0.5102324472      3.7988486428
 C     -5.7529814995      1.2005752305      5.4554214051
 H     -5.5206230649      0.3212878398      6.1239127571
 H     -6.8216340679      1.6943950924      5.7267881467
 H     -5.0073924556      1.9057229629      5.6456926629
 H     -6.5025722063      2.5930790125      3.0286904631
 H     -6.2132013909      1.5205449139      0.8099475135
 H     -5.0404627844     -0.6970732060      0.4724697900
 H     -5.0279095894     -2.1937352867      2.4210176931
 H     -5.0161101388     -1.1228956153      4.7449862256
 N     -7.6606913147      0.1126132308     -5.1837867268
 O     -7.2149323956      0.1788469638     -4.0530883926
 O     -7.5828338296      0.1505135216     -6.4294378299
18
# ORCA AIMD Position Step 13, t=13.00 fs, E_Pot=-473.53672800 Hartree, Unit is Angstrom
 C     -5.6683833256      0.8242474145      4.0511957273
 C     -6.0980478648      1.6454187721      2.9932227737
 C     -5.8818891207      1.0236382145      1.6884591498
 C     -5.3279106090     -0.3089192065      1.4675108373
 C     -5.2191250958     -1.1376780231      2.5670358437
 C     -5.3008937598     -0.5137992160      3.8000318093
 C     -5.7442234376      1.1990032430      5.4634204200
 H     -5.5469791964      0.3064876998      6.1372136955
 H     -6.8328165441      1.7053443624      5.7496534771
 H     -5.0290804788      1.8995057676      5.6692166834
 H     -6.4959485138      2.5786696809      3.0539160665
 H     -6.1955723136      1.5342488440      0.8155628572
 H     -5.0493021381     -0.6842970506      0.4630656513
 H     -5.0208919540     -2.2058491168      2.4378814012
 H     -5.0268900324     -1.1374794960      4.7484430562
 N     -7.6572576792      0.1060554522     -5.1917312503
 O     -7.2179380081      0.1753888859     -4.0728293853
 O     -7.5849739156      0.1572836115     -6.4161622571
18
# ORCA AIMD Position Step 14, t=14.00 fs, E_Pot=-473.54567001 Hartree, Unit is Angstrom
 C     -5.6733704283      0.8306968032      4.0503815286
 C     -6.0872619481      1.6353582999      2.9811478633
 C     -5.8753029121      1.0291367468      1.6931090568
 C     -5.3269276879     -0.2931228086      1.4649173422
 C     -5.2265185560     -1.1477769419      2.5761305777
 C     -5.3071804398     -0.5195038640      3.8031901896
 C     -5.7386625957      1.1964812469      5.4727828119
 H     -5.5775266398      0.3003611393      6.1456947567
 H     -6.8211058561      1.7052008291      5.7669586132
 H     -5.0298457069      1.9173502097      5.7013892904
 H     -6.5005193977      2.5901991605      3.0833259331
 H     -6.1800288127      1.5560708811      0.8121782388
 H     -5.0622628024     -0.6672772739      0.4572128553
 H     -5.0117083909     -2.2160424607      2.4574350162
 H     -5.0429004989     -1.1429747731      4.7359814488
 N     -7.6547961239      0.0992882779     -5.2004352073
 O     -7.2203729275      0.1720389381     -4.0918938479
 O     -7.5868440287      0.1641255516     -6.4029419748
18
# ORCA AIMD Position Step 15, t=15.00 fs, E_Pot=-473.55409935 Hartree, Unit is Angstrom
 C     -5.6788051136      0.8368524239      4.0496571240
 C     -6.0754043448      1.6230699557      2.9675126509
 C     -5.8686828684      1.0349797752      1.6980333032
 C     -5.3265401100     -0.2772605671      1.4623700664
 C     -5.2334821135     -1.1576855339      2.5846550936
 C     -5.3128585982     -0.5270537191      3.8081673745
 C     -5.7361251816      1.1934553295      5.4833762341
 H     -5.6102205270      0.3025057906      6.1490867120
 H     -6.7878089149      1.6943552873      5.7779363699
 H     -5.0136933620      1.9535736163      5.7403886015
 H     -6.5110516144      2.6157548253      3.1143252309
 H     -6.1653007574      1.5836944286      0.8034686894
 H     -5.0786376848     -0.6462231229      0.4550119132
 H     -5.0012118074     -2.2234124374      2.4786394830
 H     -5.0634322471     -1.1402978668      4.7106784109
 N     -7.6534714221      0.0922520184     -5.2095558629
 O     -7.2220902543      0.1688401136     -4.1097324596
 O     -7.5884396627      0.1710566984     -6.3905814597
18
# ORCA AIMD Position Step 16, t=16.00 fs, E_Pot=-473.55223130 Hartree, Unit is Angstrom
 C     -5.6843395426      0.8421452286      4.0493047556
 C     -6.0633441239      1.6104745146      2.9532049881
 C     -5.8621497429      1.0413466800      1.7022911534
 C     -5.3267399709     -0.2619171918      1.4603356417
 C     -5.2399755387     -1.1668936902      2.5922435194
 C     -5.3181446224     -0.5358807055      3.8144477665
 C     -5.7356768680      1.1909979162      5.4950837515
 H     -5.6424958130      0.3103826040      6.1487151980
 H     -6.7375981283      1.6750121891      5.7827900262
 H     -4.9910549778      1.9951588959      5.7816351275
 H     -6.5205217212      2.6397311901      3.1429747213
 H     -6.1496370848      1.6134942710      0.7949267805
 H     -5.0973629902     -0.6219979125      0.4551219605
 H     -4.9900920399     -2.2278447288      2.5002775697
 H     -5.0866543474     -1.1331107278      4.6796876815
 N     -7.6534165482      0.0848598229     -5.2185909260
 O     -7.2229691120      0.1658281705     -4.1258646226
 O     -7.5897601804      0.1781230263     -6.3799692393
18
# ORCA AIMD Position Step 17, t=17.00 fs, E_Pot=-473.53979848 Hartree, Unit is Angstrom
 C     -5.6896597035      0.8460596796      4.0495718142
 C     -6.0517604484      1.5990942436      2.9392189770
 C     -5.8557451569      1.0483482761      1.7049306110
 C     -5.3275339395     -0.2475243097      1.4592248801
 C     -5.2459856190     -1.1749423967      2.5986610412
 C     -5.3233649874     -0.5451761647      3.8211718658
 C     -5.7361273056      1.1900287208      5.5076021926
 H     -5.6716655963      0.3195583287      6.1472815765
 H     -6.6796982299      1.6519243098      5.7831572485
 H     -4.9709138386      2.0302269213      5.8206499569
 H     -6.5238123467      2.6512128493      3.1654669609
 H     -6.1316267009      1.6420835172      0.7913193004
 H     -5.1172674358     -0.5958584900      0.4553888506
 H     -4.9788219756     -2.2299273284      2.5210928108
 H     -5.1097730689     -1.1279143623      4.6540632030
 N     -7.6547316187      0.0769852514     -5.2269445705
 O     -7.2229199653      0.1630230126     -4.1399381864
 O     -7.5908089855      0.1854134636     -6.3719889007
18
# ORCA AIMD Position Step 18, t=18.00 fs, E_Pot=-473.52448163 Hartree, Unit is Angstrom
 C     -5.6945234685      0.8481797120      4.0506458961
 C     -6.0410614173      1.5898997726      2.9265344649
 C     -5.8494162782      1.0560106383      1.7051610889
 C     -5.3289262084     -0.2343808518      1.4593476748
 C     -5.2515233142     -1.1814647114      2.6037902074
 C     -5.3288836139     -0.5540734756      3.8273719722
 C     -5.7360653418      1.1909003560      5.5203920345
 H     -5.6953897968      0.3249328247      6.1479500747
 H     -6.6292077426      1.6330774546      5.7825894822
 H     -4.9583978849      2.0511969840      5.8543988212
 H     -6.5182622718      2.6450199281      3.1789625264
 H     -6.1105363116      1.6672094427      0.7953463028
 H     -5.1372626599     -0.5692165198      0.4534610818
 H     -4.9676958635     -2.2305774874      2.5399026987
 H     -5.1298850584     -1.1323333511      4.6459449230
 N     -7.6574894093      0.0684593370     -5.2340394340
 O     -7.2218800898      0.1604280370     -4.1517352691
 O     -7.5915948785      0.1930614558     -6.3674250390
18
# ORCA AIMD Position Step 19, t=19.00 fs, E_Pot=-473.51844095 Hartree, Unit is Angstrom
 C     -5.6987652831      0.8481850503      4.0526612462
 C     -6.0314234817      1.5834012177      2.9160145611
 C     -5.8430253541      1.0642861720      1.7024423073
 C     -5.3309117990     -0.2226873668      1.4608550314
 C     -5.2566119206     -1.1862007187      2.6075972064
 C     -5.3349529302     -0.5620637106      3.8325555865
 C     -5.7339444419      1.1933925032      5.5328549552
 H     -5.7121100363      0.3226965232      6.1530243699
 H     -6.6047587757      1.6283961235      5.7859424646
 H     -4.9555786284      2.0542699903      5.8812379307
 H     -6.5031118038      2.6203372184      3.1817154656
 H     -6.0862803385      1.6880583499      0.8073235260
 H     -5.1565525293     -0.5432864522      0.4477920537
 H     -4.9569209458     -2.2306276394      2.5556574663
 H     -5.1457025206     -1.1505239296      4.6618056139
 N     -7.6617519580      0.0590800313     -5.2394539675
 O     -7.2197997491      0.1580324023     -4.1611486846
 O     -7.5921315638      0.2012342514     -6.3668677350
18
# ORCA AIMD Position Step 20, t=20.00 fs, E_Pot=-473.52596333 Hartree, Unit is Angstrom
 C     -5.7022581012      0.8458430903      4.0556932263
 C     -6.0228858981      1.5797335533      2.9083862350
 C     -5.8364196281      1.0730165955      1.6965841536
 C     -5.3334576196     -0.2126731751      1.4636837213
 C     -5.2612380391     -1.1889662712      2.6100748094
 C     -5.3415828541     -0.5692494517      3.8371023383
 C     -5.7289502999      1.1971332035      5.5446421925
 H     -5.7211971149      0.3122277891      6.1627682163
 H     -6.6172371677      1.6436839304      5.7960183711
 H     -4.9625253757      2.0383524111      5.9003301424
 H     -6.4793389400      2.5802410015      3.1731213415
 H     -6.0594942355      1.7052075534      0.8250874187
 H     -5.1745724551     -0.5190644868      0.4384505770
 H     -4.9468046805     -2.2304849268      2.5673388166
 H     -5.1583955603     -1.1794121018      4.6972579494
 N     -7.6675458394      0.0487045586     -5.2430057216
 O     -7.2166485287      0.1558320491     -4.1680891479
 O     -7.5924358104      0.2100501602     -6.3706256870
18
# ORCA AIMD Position Step 21, t=21.00 fs, E_Pot=-473.53539166 Hartree, Unit is Angstrom
 C     -5.7048976179      0.8410592505      4.0597365935
 C     -6.0153470757      1.5785364500      2.9040999315
 C     -5.8294978588      1.0818921238      1.6879076619
 C     -5.3364853761     -0.2046299482      1.4675241379
 C     -5.2653279015     -1.1896660223      2.6112471413
 C     -5.3485924515     -0.5761019859      3.8419231740
 C     -5.7219410438      1.2020018606      5.5558367791
 H     -5.7230049382      0.2965981959      6.1752348111
 H     -6.6586739385      1.6746222686      5.8104985970
 H     -4.9772665137      2.0053357562      5.9116231863
 H     -6.4503228464      2.5330055894      3.1543795106
 H     -6.0315901692      1.7206191909      0.8439659427
 H     -5.1908425559     -0.4974681443      0.4273136618
 H     -4.9378726697     -2.2299664111      2.5739806312
 H     -5.1703340101     -1.2108808117      4.7402560473
 N     -7.6747924800      0.0373569941     -5.2448228435
 O     -7.2124540972      0.1538402525     -4.1724835847
 O     -7.5925350214      0.2194899819     -6.3785745389
18
# ORCA AIMD Position Step 22, t=22.00 fs, E_Pot=-473.53620033 Hartree, Unit is Angstrom
 C     -5.7066527540      0.8338942648      4.0647524503
 C     -6.0083999510      1.5787593595      2.9030944478
 C     -5.8221658724      1.0905786682      1.6771860945
 C     -5.3399102447     -0.1987473348      1.4719153671
 C     -5.2688135920     -1.1883283326      2.6112119487
 C     -5.3558231714     -0.5831142642      3.8478695110
 C     -5.7148033625      1.2078574515      5.5667409944
 H     -5.7187601153      0.2810183550      6.1873766245
 H     -6.7102447591      1.7110187843      5.8246105525
 H     -4.9951622559      1.9608189100      5.9165665415
 H     -6.4221702777      2.4928829156      3.1290293029
 H     -6.0041684714      1.7374919272      0.8578162213
 H     -5.2050638654     -0.4792085693      0.4173124998
 H     -4.9307174161     -2.2284044417      2.5749069856
 H     -5.1835160202     -1.2372358775      4.7788982406
 N     -7.6833424162      0.0251427243     -5.2453561284
 O     -7.2072881936      0.1520574907     -4.1744030344
 O     -7.5924763230      0.2294741238     -6.3901742565
18
# ORCA AIMD Position Step 23, t=23.00 fs, E_Pot=-473.53213090 Hartree, Unit is Angstrom
 C     -5.7075630833      0.8245214431      4.0707069257
 C     -6.0014014934      1.5788812902      2.9048790971
 C     -5.8143437479      1.0988358513      1.6653683479
 C     -5.3436735501     -0.1950685525      1.4763788520
 C     -5.2716558225     -1.1850494429      2.6101322928
 C     -5.3632157916     -0.5906195081      3.8554475670
 C     -5.7094198553      1.2140880381      5.5774329479
 H     -5.7101017439      0.2704329527      6.1965225908
 H     -6.7559253548      1.7442160514      5.8348914560
 H     -5.0080356893      1.9146697147      5.9186911706
 H     -6.4024934008      2.4775570869      3.1021245407
 H     -5.9783772046      1.7589516080      0.8612233339
 H     -5.2170356902     -0.4649539492      0.4112781489
 H     -4.9258718716     -2.2249843366      2.5697433455
 H     -5.1990160679     -1.2537639859      4.8052992546
 N     -7.6930097177      0.0121970408     -5.2452191352
 O     -7.2012485959      0.1504623204     -4.1740630732
 O     -7.5923233669      0.2399069615     -6.4046637096
18
# ORCA AIMD Position Step 24, t=24.00 fs, E_Pot=-473.53404547 Hartree, Unit is Angstrom
 C     -5.7077153129      0.8132103814      4.0775750675
 C     -5.9939093941      1.5778531362      2.9088906257
 C     -5.8060117857      1.1066205206      1.6532640881
 C     -5.3477434482     -0.1935215346      1.4805061416
 C     -5.2738389285     -1.1799429339      2.6082161875
 C     -5.3707771636     -0.5987723861      3.8647965317
 C     -5.7073626550      1.2196921471      5.5876429404
 H     -5.6987413740      0.2680587204      6.2011813011
 H     -6.7859516801      1.7690849876      5.8398131329
 H     -5.0049285535      1.8795141225      5.9231225054
 H     -6.3957288806      2.4977911570      3.0773799983
 H     -5.9545058261      1.7860132274      0.8520389768
 H     -5.2265359597     -0.4555343056      0.4110873746
 H     -4.9237491285     -2.2190392829      2.5583701916
 H     -5.2170961199     -1.2586581161      4.8156733006
 N     -7.7035643379     -0.0013073664     -5.2450113072
 O     -7.1944668872      0.1490156527     -4.1717884890
 O     -7.5921494426      0.2506724884     -6.4212146709
18
# ORCA AIMD Position Step 25, t=25.00 fs, E_Pot=-473.54381002 Hartree, Unit is Angstrom
 C     -5.7072235203      0.8003359081      4.0853092589
 C     -5.9861195055      1.5760563621      2.9147283782
 C     -5.7972438427      1.1141112687      1.6414010548
 C     -5.3520973854     -0.1939332323      1.4839942827
 C     -5.2753657450     -1.1731369981      2.6057134286
 C     -5.3785232165     -0.6075381256      3.8756954067
 C     -5.7095609944      1.2239360397      5.5969984449
 H     -5.6863374164      0.2747889820      6.2013224257
 H     -6.7951563700      1.7831207937      5.8391082634
 H     -4.9780034047      1.8642795126      5.9334734025
 H     -6.3986315856      2.5466901538      3.0552823006
 H     -5.9320732476      1.8163357142      0.8325496254
 H     -5.2332726931     -0.4519914440      0.4172103688
 H     -4.9245772169     -2.2103240728      2.5409609537
 H     -5.2373341980     -1.2525914576      4.8097890215
 N     -7.7146957352     -0.0151189754     -5.2452104591
 O     -7.1871351242      0.1476673199     -4.1679957776
 O     -7.5920317354      0.2616034578     -6.4389760552
18
# ORCA AIMD Position Step 26, t=26.00 fs, E_Pot=-473.55262445 Hartree, Unit is Angstrom
 C     -5.7062199576      0.7863499712      4.0938243998
 C     -5.9786177938      1.5748188263      2.9220012857
 C     -5.7881699518      1.1216205150      1.6300871275
 C     -5.3567193605     -0.1960136522      1.4866775502
 C     -5.2762655434     -1.1647848043      2.6029085733
 C     -5.3864692648     -0.6166711346      3.8875508978
 C     -5.7157509121      1.2270354371      5.6053959340
 H     -5.6743567782      0.2890775807      6.1984218947
 H     -6.7816515589      1.7856470400      5.8332869983
 H     -4.9305642855      1.8670869087      5.9480676249
 H     -6.4032995728      2.6055989359      3.0351897394
 H     -5.9102923822      1.8451833008      0.8081089095
 H     -5.2369443503     -0.4554260740      0.4285587663
 H     -4.9283440031     -2.1991376156      2.5180295993
 H     -5.2586860680     -1.2388793949      4.7912372651