
                                 *****************
                                 * O   R   C   A *
                                 *****************

                                            #,                                       
                                            ###                                      
                                            ####                                     
                                            #####                                    
                                            ######                                   
                                           ########,                                 
                                     ,,################,,,,,                         
                               ,,#################################,,                 
                          ,,##########################################,,             
                       ,#########################################, ''#####,          
                    ,#############################################,,   '####,        
                  ,##################################################,,,,####,       
                ,###########''''           ''''###############################       
              ,#####''   ,,,,##########,,,,          '''####'''          '####       
            ,##' ,,,,###########################,,,                        '##       
           ' ,,###''''                  '''############,,,                           
         ,,##''                                '''############,,,,        ,,,,,,###''
      ,#''                                            '''#######################'''  
     '                                                          ''''####''''         
             ,#######,   #######,   ,#######,      ##                                
            ,#'     '#,  ##    ##  ,#'     '#,    #''#        ######   ,####,        
            ##       ##  ##   ,#'  ##            #'  '#       #        #'  '#        
            ##       ##  #######   ##           ,######,      #####,   #    #        
            '#,     ,#'  ##    ##  '#,     ,#' ,#      #,         ##   #,  ,#        
             '#######'   ##     ##  '#######'  #'      '#     #####' # '####'        



                  #######################################################
                  #                        -***-                        #
                  #          Department of theory and spectroscopy      #
                  #    Directorship and core code : Frank Neese         #
                  #        Max Planck Institute fuer Kohlenforschung    #
                  #                Kaiser Wilhelm Platz 1               #
                  #                 D-45470 Muelheim/Ruhr               #
                  #                      Germany                        #
                  #                                                     #
                  #                  All rights reserved                #
                  #                        -***-                        #
                  #######################################################



                         Program Version 5.0.4 -  RELEASE  -

 With contributions from (in alphabetic order):
   Daniel Aravena         : Magnetic Suceptibility
   Michael Atanasov       : Ab Initio Ligand Field Theory (pilot matlab implementation)
   Alexander A. Auer      : GIAO ZORA, VPT2 properties, NMR spectrum
   Ute Becker             : Parallelization
   Giovanni Bistoni       : ED, misc. LED, open-shell LED, HFLD
   Martin Brehm           : Molecular dynamics
   Dmytro Bykov           : SCF Hessian
   Vijay G. Chilkuri      : MRCI spin determinant printing, contributions to CSF-ICE
   Dipayan Datta          : RHF DLPNO-CCSD density
   Achintya Kumar Dutta   : EOM-CC, STEOM-CC
   Dmitry Ganyushin       : Spin-Orbit,Spin-Spin,Magnetic field MRCI
   Miquel Garcia          : C-PCM and meta-GGA Hessian, CC/C-PCM, Gaussian charge scheme
   Yang Guo               : DLPNO-NEVPT2, F12-NEVPT2, CIM, IAO-localization
   Andreas Hansen         : Spin unrestricted coupled pair/coupled cluster methods
   Benjamin Helmich-Paris : MC-RPA, TRAH-SCF, COSX integrals
   Lee Huntington         : MR-EOM, pCC
   Robert Izsak           : Overlap fitted RIJCOSX, COSX-SCS-MP3, EOM
   Marcus Kettner         : VPT2
   Christian Kollmar      : KDIIS, OOCD, Brueckner-CCSD(T), CCSD density, CASPT2, CASPT2-K
   Simone Kossmann        : Meta GGA functionals, TD-DFT gradient, OOMP2, MP2 Hessian
   Martin Krupicka        : Initial AUTO-CI
   Lucas Lang             : DCDCAS
   Marvin Lechner         : AUTO-CI (C++ implementation), FIC-MRCC
   Dagmar Lenk            : GEPOL surface, SMD
   Dimitrios Liakos       : Extrapolation schemes; Compound Job, initial MDCI parallelization
   Dimitrios Manganas     : Further ROCIS development; embedding schemes
   Dimitrios Pantazis     : SARC Basis sets
   Anastasios Papadopoulos: AUTO-CI, single reference methods and gradients
   Taras Petrenko         : DFT Hessian,TD-DFT gradient, ASA, ECA, R-Raman, ABS, FL, XAS/XES, NRVS
   Peter Pinski           : DLPNO-MP2, DLPNO-MP2 Gradient
   Christoph Reimann      : Effective Core Potentials
   Marius Retegan         : Local ZFS, SOC
   Christoph Riplinger    : Optimizer, TS searches, QM/MM, DLPNO-CCSD(T), (RO)-DLPNO pert. Triples
   Tobias Risthaus        : Range-separated hybrids, TD-DFT gradient, RPA, STAB
   Michael Roemelt        : Original ROCIS implementation
   Masaaki Saitow         : Open-shell DLPNO-CCSD energy and density
   Barbara Sandhoefer     : DKH picture change effects
   Avijit Sen             : IP-ROCIS
   Kantharuban Sivalingam : CASSCF convergence, NEVPT2, FIC-MRCI
   Bernardo de Souza      : ESD, SOC TD-DFT
   Georgi Stoychev        : AutoAux, RI-MP2 NMR, DLPNO-MP2 response
   Willem Van den Heuvel  : Paramagnetic NMR
   Boris Wezisla          : Elementary symmetry handling
   Frank Wennmohs         : Technical directorship


 We gratefully acknowledge several colleagues who have allowed us to
 interface, adapt or use parts of their codes:
   Stefan Grimme, W. Hujo, H. Kruse, P. Pracht,  : VdW corrections, initial TS optimization,
                  C. Bannwarth, S. Ehlert          DFT functionals, gCP, sTDA/sTD-DF
   Ed Valeev, F. Pavosevic, A. Kumar             : LibInt (2-el integral package), F12 methods
   Garnet Chan, S. Sharma, J. Yang, R. Olivares  : DMRG
   Ulf Ekstrom                                   : XCFun DFT Library
   Mihaly Kallay                                 : mrcc  (arbitrary order and MRCC methods)
   Jiri Pittner, Ondrej Demel                    : Mk-CCSD
   Frank Weinhold                                : gennbo (NPA and NBO analysis)
   Christopher J. Cramer and Donald G. Truhlar   : smd solvation model
   Lars Goerigk                                  : TD-DFT with DH, B97 family of functionals
   V. Asgeirsson, H. Jonsson                     : NEB implementation
   FAccTs GmbH                                   : IRC, NEB, NEB-TS, DLPNO-Multilevel, CI-OPT
                                                   MM, QMMM, 2- and 3-layer-ONIOM, Crystal-QMMM,
                                                   LR-CPCM, SF, NACMEs, symmetry and pop. for TD-DFT,
                                                   nearIR, NL-DFT gradient (VV10), updates on ESD,
                                                   ML-optimized integration grids
   S Lehtola, MJT Oliveira, MAL Marques          : LibXC Library
   Liviu Ungur et al                             : ANISO software


 Your calculation uses the libint2 library for the computation of 2-el integrals
 For citations please refer to: http://libint.valeyev.net

 Your ORCA version has been built with support for libXC version: 5.1.0
 For citations please refer to: https://tddft.org/programs/libxc/

 This ORCA versions uses:
   CBLAS   interface :  Fast vector & matrix operations
   LAPACKE interface :  Fast linear algebra routines
   Shared memory     :  Shared parallel matrices


Your calculation utilizes the atom-pairwise dispersion correction
with the Becke-Johnson damping scheme (D3BJ)
Cite in your paper:
S.Grimme, S.Ehrlich, L.Goerigk, J Comput Chem, (2011), 32, 1456–1465 
S.Grimme, J.Antony, S.Ehrlich and H.Krieg, J.Chem.Phys., 132, (2010), 154104 
   

================================================================================

----- Orbital basis set information -----
Your calculation utilizes the basis: def2-SVP
   F. Weigend and R. Ahlrichs, Phys. Chem. Chem. Phys. 7, 3297 (2005).

----- AuxJ basis set information -----
Your calculation utilizes the auxiliary basis: def2/J
   F. Weigend, Phys. Chem. Chem. Phys. 8, 1057 (2006).

================================================================================
                                        WARNINGS
                       Please study these warnings very carefully!
================================================================================


WARNING: your system is open-shell and RHF/RKS was chosen
  ===> : WILL SWITCH to UHF/UKS


INFO   : the flag for use of the SHARK integral package has been found!

================================================================================
                                       INPUT FILE
================================================================================
NAME = lactone_anion.inp
|  1> !B3LYP D3 DEF2-SVP KEEPDENS
|  2> 
|  3> * xyz -1 2
|  4>   C   -2.22228878158883      3.02859625455643     -0.21035396487253
|  5>   C   -2.50830439779609      1.54791789780224      0.07602730919541
|  6>   O   -1.28019171891555      0.86292489456393     -0.19752365471928
|  7>   H   -3.29279866693753      1.11226368229766     -0.55882412139207
|  8>   H   -2.78129033761928      1.38083967617559      1.13343223202784
|  9>   C   -0.73508193412564      3.12413342164026      0.12809792804256
| 10>   H   -2.86397098602036      3.70229449871120      0.37527275872271
| 11>   H   -2.38623672040265      3.24574776644390     -1.27800975944110
| 12>   C   -0.21849123873636      1.71461968337449     -0.15303530810893
| 13>   H   -0.56392689440653      3.33449540230340      1.19850628759754
| 14>   H   -0.16145763230755      3.86205509865162     -0.44841287057201
| 15>   O   0.91007930885637      1.34911172347926     -0.30702683648014
| 16> **                         ****END OF INPUT****
================================================================================

                       ****************************
                       * Single Point Calculation *
                       ****************************

---------------------------------
CARTESIAN COORDINATES (ANGSTROEM)
---------------------------------
  C     -2.222289    3.028596   -0.210354
  C     -2.508304    1.547918    0.076027
  O     -1.280192    0.862925   -0.197524
  H     -3.292799    1.112264   -0.558824
  H     -2.781290    1.380840    1.133432
  C     -0.735082    3.124133    0.128098
  H     -2.863971    3.702294    0.375273
  H     -2.386237    3.245748   -1.278010
  C     -0.218491    1.714620   -0.153035
  H     -0.563927    3.334495    1.198506
  H     -0.161458    3.862055   -0.448413
  O      0.910079    1.349112   -0.307027

----------------------------
CARTESIAN COORDINATES (A.U.)
----------------------------
  NO LB      ZA    FRAG     MASS         X           Y           Z
   0 C     6.0000    0    12.011   -4.199517    5.723217   -0.397511
   1 C     6.0000    0    12.011   -4.740008    2.925141    0.143671
   2 O     8.0000    0    15.999   -2.419212    1.630692   -0.373266
   3 H     1.0000    0     1.008   -6.222488    2.101874   -1.056025
   4 H     1.0000    0     1.008   -5.255877    2.609409    2.141877
   5 C     6.0000    0    12.011   -1.389104    5.903757    0.242070
   6 H     1.0000    0     1.008   -5.412121    6.996323    0.709163
   7 H     1.0000    0     1.008   -4.509334    6.133574   -2.415088
   8 C     6.0000    0    12.011   -0.412889    3.240162   -0.289195
   9 H     1.0000    0     1.008   -1.065667    6.301283    2.264849
  10 H     1.0000    0     1.008   -0.305111    7.298226   -0.847378
  11 O     8.0000    0    15.999    1.719801    2.549452   -0.580197

--------------------------------
INTERNAL COORDINATES (ANGSTROEM)
--------------------------------
 C      0   0   0     0.000000000000     0.00000000     0.00000000
 C      1   0   0     1.535000834857     0.00000000     0.00000000
 O      2   1   0     1.432587273562   105.41867856     0.00000000
 H      2   1   3     1.099209803778   114.05018959   241.47542515
 H      2   1   3     1.104781257224   111.74571269   118.02965567
 C      1   2   3     1.528221594290   101.55524774   329.68635339
 H      1   2   3     1.099356191164   112.51850901   207.02255348
 H      1   2   3     1.101781557947   110.07067307    86.55101881
 C      3   2   1     1.361826397117   111.28844528    20.92821679
 H      6   1   2     1.104228358056   112.17483170   272.76796989
 H      6   1   2     1.098152057758   115.72654607   148.99488701
 O      9   3   2     1.196236155803   122.69852528   177.44404470

---------------------------
INTERNAL COORDINATES (A.U.)
---------------------------
 C      0   0   0     0.000000000000     0.00000000     0.00000000
 C      1   0   0     2.900731193220     0.00000000     0.00000000
 O      2   1   0     2.707197609973   105.41867856     0.00000000
 H      2   1   3     2.077205492862   114.05018959   241.47542515
 H      2   1   3     2.087734014042   111.74571269   118.02965567
 C      1   2   3     2.887920285152   101.55524774   329.68635339
 H      1   2   3     2.077482124930   112.51850901   207.02255348
 H      1   2   3     2.082065403925   110.07067307    86.55101881
 C      3   2   1     2.573478932495   111.28844528    20.92821679
 H      6   1   2     2.086689186035   112.17483170   272.76796989
 H      6   1   2     2.075206642565   115.72654607   148.99488701
 O      9   3   2     2.260558725963   122.69852528   177.44404470

---------------------
BASIS SET INFORMATION
---------------------
There are 3 groups of distinct atoms

 Group   1 Type C   : 7s4p1d contracted to 3s2p1d pattern {511/31/1}
 Group   2 Type O   : 7s4p1d contracted to 3s2p1d pattern {511/31/1}
 Group   3 Type H   : 4s1p contracted to 2s1p pattern {31/1}

Atom   0C    basis set group =>   1
Atom   1C    basis set group =>   1
Atom   2O    basis set group =>   2
Atom   3H    basis set group =>   3
Atom   4H    basis set group =>   3
Atom   5C    basis set group =>   1
Atom   6H    basis set group =>   3
Atom   7H    basis set group =>   3
Atom   8C    basis set group =>   1
Atom   9H    basis set group =>   3
Atom  10H    basis set group =>   3
Atom  11O    basis set group =>   2
---------------------------------
AUXILIARY/J BASIS SET INFORMATION
---------------------------------
There are 3 groups of distinct atoms

 Group   1 Type C   : 12s5p4d2f1g contracted to 6s4p3d1f1g pattern {711111/2111/211/2/1}
 Group   2 Type O   : 12s5p4d2f1g contracted to 6s4p3d1f1g pattern {711111/2111/211/2/1}
 Group   3 Type H   : 5s2p1d contracted to 3s1p1d pattern {311/2/1}

Atom   0C    basis set group =>   1
Atom   1C    basis set group =>   1
Atom   2O    basis set group =>   2
Atom   3H    basis set group =>   3
Atom   4H    basis set group =>   3
Atom   5C    basis set group =>   1
Atom   6H    basis set group =>   3
Atom   7H    basis set group =>   3
Atom   8C    basis set group =>   1
Atom   9H    basis set group =>   3
Atom  10H    basis set group =>   3
Atom  11O    basis set group =>   2
------------------------------------------------------------------------------
                           ORCA GTO INTEGRAL CALCULATION
                           -- RI-GTO INTEGRALS CHOSEN --
------------------------------------------------------------------------------
------------------------------------------------------------------------------
                   ___                                                        
                  /   \      - P O W E R E D   B Y -                         
                 /     \                                                     
                 |  |  |   _    _      __       _____    __    __             
                 |  |  |  | |  | |    /  \     |  _  \  |  |  /  |          
                  \  \/   | |  | |   /    \    | | | |  |  | /  /          
                 / \  \   | |__| |  /  /\  \   | |_| |  |  |/  /          
                |  |  |   |  __  | /  /__\  \  |    /   |      \           
                |  |  |   | |  | | |   __   |  |    \   |  |\   \          
                \     /   | |  | | |  |  |  |  | |\  \  |  | \   \       
                 \___/    |_|  |_| |__|  |__|  |_| \__\ |__|  \__/        
                                                                              
                      - O R C A' S   B I G   F R I E N D -                    
                                      &                                       
                       - I N T E G R A L  F E E D E R -                       
                                                                              
 v1 FN, 2020, v2 2021                                                         
------------------------------------------------------------------------------


Reading SHARK input file lactone_anion.SHARKINP.tmp ... ok
----------------------
SHARK INTEGRAL PACKAGE
----------------------

Number of atoms                             ...     12
Number of basis functions                   ...    114
Number of shells                            ...     54
Maximum angular momentum                    ...      2
Integral batch strategy                     ... SHARK/LIBINT Hybrid
RI-J (if used) integral strategy            ... SPLIT-RIJ (Revised 2003 algorithm where possible)
Printlevel                                  ...      1
Contraction scheme used                     ... SEGMENTED contraction
Coulomb Range Separation                    ... NOT USED
Exchange Range Separation                   ... NOT USED
Finite Nucleus Model                        ... NOT USED
Auxiliary Coulomb fitting basis             ... AVAILABLE
   # of basis functions in Aux-J            ...    360
   # of shells in Aux-J                     ...    120
   Maximum angular momentum in Aux-J        ...      4
Auxiliary J/K fitting basis                 ... NOT available
Auxiliary Correlation fitting basis         ... NOT available
Auxiliary 'external' fitting basis          ... NOT available
Integral threshold                          ...     1.000000e-10
Primitive cut-off                           ...     1.000000e-11
Primitive pair pre-selection threshold      ...     1.000000e-11

Calculating pre-screening integrals         ... done (  0.0 sec) Dimension = 54
Organizing shell pair data                  ... done (  0.0 sec)
Shell pair information
Total number of shell pairs                 ...      1485
Shell pairs after pre-screening             ...      1458
Total number of primitive shell pairs       ...      5349
Primitive shell pairs kept                  ...      4109
          la=0 lb=0:    452 shell pairs
          la=1 lb=0:    532 shell pairs
          la=1 lb=1:    170 shell pairs
          la=2 lb=0:    176 shell pairs
          la=2 lb=1:    107 shell pairs
          la=2 lb=2:     21 shell pairs

Calculating one electron integrals          ... done (  0.0 sec)
Calculating RI/J V-Matrix + Cholesky decomp.... done (  0.0 sec)
Calculating Nuclear repulsion               ... done (  0.0 sec) ENN=    240.531044986492 Eh

SHARK setup successfully completed in   0.2 seconds

Maximum memory used throughout the entire GTOINT-calculation: 13.4 MB
-------------------------------------------------------------------------------
                                 ORCA SCF
-------------------------------------------------------------------------------

------------
SCF SETTINGS
------------
Hamiltonian:
 Density Functional     Method          .... DFT(GTOs)
 Exchange Functional    Exchange        .... B88
   X-Alpha parameter    XAlpha          ....  0.666667
   Becke's b parameter  XBeta           ....  0.004200
 Correlation Functional Correlation     .... LYP
 LDA part of GGA corr.  LDAOpt          .... VWN-5
 Gradients option       PostSCFGGA      .... off
 Hybrid DFT is turned on
   Fraction HF Exchange ScalHFX         ....  0.200000
   Scaling of DF-GGA-X  ScalDFX         ....  0.720000
   Scaling of DF-GGA-C  ScalDFC         ....  0.810000
   Scaling of DF-LDA-C  ScalLDAC        ....  1.000000
   Perturbative correction              ....  0.000000
   Density functional embedding theory  .... OFF
   NL short-range parameter             ....  4.800000
 RI-approximation to the Coulomb term is turned on
   Number of AuxJ basis functions       .... 360
   RIJ-COSX (HFX calculated with COS-X)).... on


General Settings:
 Integral files         IntName         .... lactone_anion
 Hartree-Fock type      HFTyp           .... UHF
 Total Charge           Charge          ....   -1
 Multiplicity           Mult            ....    2
 Number of Electrons    NEL             ....   47
 Basis Dimension        Dim             ....  114
 Nuclear Repulsion      ENuc            ....    240.5310449865 Eh

Convergence Acceleration:
 DIIS                   CNVDIIS         .... on
   Start iteration      DIISMaxIt       ....    12
   Startup error        DIISStart       ....  0.200000
   # of expansion vecs  DIISMaxEq       ....     5
   Bias factor          DIISBfac        ....   1.050
   Max. coefficient     DIISMaxC        ....  10.000
 Trust-Rad. Augm. Hess. CNVTRAH         .... auto
   Auto Start mean grad. ratio tolernc. ....  1.125000
   Auto Start start iteration           ....    20
   Auto Start num. interpolation iter.  ....    10
   Max. Number of Micro iterations      ....    16
   Max. Number of Macro iterations      .... Maxiter - #DIIS iter
   Number of Davidson start vectors     ....     2
   Converg. threshold I  (grad. norm)   ....   5.000e-05
   Converg. threshold II (energy diff.) ....   1.000e-06
   Grad. Scal. Fac. for Micro threshold ....   0.100
   Minimum threshold for Micro iter.    ....   0.010
   NR start threshold (gradient norm)   ....   0.001
   Initial trust radius                 ....   0.400
   Minimum AH scaling param. (alpha)    ....   1.000
   Maximum AH scaling param. (alpha)    .... 1000.000
   Orbital update algorithm             .... Taylor
   White noise on init. David. guess    .... on
   Maximum white noise                  ....   0.010
   Quad. conv. algorithm                .... NR
 SOSCF                  CNVSOSCF        .... off
 Level Shifting         CNVShift        .... on
   Level shift para.    LevelShift      ....    0.2500
   Turn off err/grad.   ShiftErr        ....    0.0010
 Zerner damping         CNVZerner       .... off
 Static damping         CNVDamp         .... on
   Fraction old density DampFac         ....    0.7000
   Max. Damping (<1)    DampMax         ....    0.9800
   Min. Damping (>=0)   DampMin         ....    0.0000
   Turn off err/grad.   DampErr         ....    0.1000
 Fernandez-Rico         CNVRico         .... off

SCF Procedure:
 Maximum # iterations   MaxIter         ....   125
 SCF integral mode      SCFMode         .... Direct
   Integral package                     .... SHARK and LIBINT hybrid scheme
 Reset frequency        DirectResetFreq ....    20
 Integral Threshold     Thresh          ....  1.000e-10 Eh
 Primitive CutOff       TCut            ....  1.000e-11 Eh

Convergence Tolerance:
 Convergence Check Mode ConvCheckMode   .... Total+1el-Energy
 Convergence forced     ConvForced      .... 0
 Energy Change          TolE            ....  1.000e-06 Eh
 1-El. energy change                    ....  1.000e-03 Eh
 DIIS Error             TolErr          ....  1.000e-06


Diagonalization of the overlap matrix:
Smallest eigenvalue                        ... 1.502e-03
Time for diagonalization                   ...    0.005 sec
Threshold for overlap eigenvalues          ... 1.000e-08
Number of eigenvalues below threshold      ... 0
Time for construction of square roots      ...    0.003 sec
Total time needed                          ...    0.008 sec

Time for model grid setup =    0.140 sec

------------------------------
INITIAL GUESS: MODEL POTENTIAL
------------------------------
Loading Hartree-Fock densities                     ... done
Calculating cut-offs                               ... done
Initializing the effective Hamiltonian             ... done
Setting up the integral package (SHARK)            ... done
Starting the Coulomb interaction                   ... done (   0.1 sec)
Reading the grid                                   ... done
Mapping shells                                     ... done
Starting the XC term evaluation                    ... done (   0.2 sec)
  promolecular density results
     # of electrons  =     45.997201710
     EX              =    -38.746080208
     EC              =     -1.569633391
     EX+EC           =    -40.315713599
Transforming the Hamiltonian                       ... done (   0.0 sec)
Diagonalizing the Hamiltonian                      ... done (   0.0 sec)
Back transforming the eigenvectors                 ... done (   0.0 sec)
Now organizing SCF variables                       ... done
                      ------------------
                      INITIAL GUESS DONE (   0.4 sec)
                      ------------------
-------------------
DFT GRID GENERATION
-------------------

General Integration Accuracy     IntAcc      ... 4.388
Radial Grid Type                 RadialGrid  ... OptM3 with GC (2021)
Angular Grid (max. ang.)         AngularGrid ... 4 (Lebedev-302)
Angular grid pruning method      GridPruning ... 4 (adaptive)
Weight generation scheme         WeightScheme... Becke
Basis function cutoff            BFCut       ... 1.0000e-10
Integration weight cutoff        WCut        ... 1.0000e-14
Angular grids for H and He will be reduced by one unit
Partially contracted basis set               ... off
Rotationally invariant grid construction     ... off

Total number of grid points                  ...    55586
Total number of batches                      ...      875
Average number of points per batch           ...       63
Average number of grid points per atom       ...     4632
Time for grid setup =    0.966 sec

--------------------
COSX GRID GENERATION
--------------------

GRIDX 1
-------
General Integration Accuracy     IntAcc      ... 3.816
Radial Grid Type                 RadialGrid  ... OptM3 with GC (2021)
Angular Grid (max. ang.)         AngularGrid ... 1 (Lebedev-50)
Angular grid pruning method      GridPruning ... 4 (adaptive)
Weight generation scheme         WeightScheme... Becke
Basis function cutoff            BFCut       ... 1.0000e-10
Integration weight cutoff        WCut        ... 1.0000e-14
Angular grids for H and He will be reduced by one unit
Partially contracted basis set               ... on
Rotationally invariant grid construction     ... off

Total number of grid points                  ...     7121
Total number of batches                      ...      119
Average number of points per batch           ...       59
Average number of grid points per atom       ...      593
UseSFitting                                  ... on

GRIDX 2
-------
General Integration Accuracy     IntAcc      ... 4.020
Radial Grid Type                 RadialGrid  ... OptM3 with GC (2021)
Angular Grid (max. ang.)         AngularGrid ... 2 (Lebedev-110)
Angular grid pruning method      GridPruning ... 4 (adaptive)
Weight generation scheme         WeightScheme... Becke
Basis function cutoff            BFCut       ... 1.0000e-10
Integration weight cutoff        WCut        ... 1.0000e-14
Angular grids for H and He will be reduced by one unit
Partially contracted basis set               ... on
Rotationally invariant grid construction     ... off

Total number of grid points                  ...    15498
Total number of batches                      ...      249
Average number of points per batch           ...       62
Average number of grid points per atom       ...     1292
UseSFitting                                  ... on

GRIDX 3
-------
General Integration Accuracy     IntAcc      ... 4.338
Radial Grid Type                 RadialGrid  ... OptM3 with GC (2021)
Angular Grid (max. ang.)         AngularGrid ... 3 (Lebedev-194)
Angular grid pruning method      GridPruning ... 4 (adaptive)
Weight generation scheme         WeightScheme... Becke
Basis function cutoff            BFCut       ... 1.0000e-10
Integration weight cutoff        WCut        ... 1.0000e-14
Angular grids for H and He will be reduced by one unit
Partially contracted basis set               ... on
Rotationally invariant grid construction     ... off

Total number of grid points                  ...    34078
Total number of batches                      ...      539
Average number of points per batch           ...       63
Average number of grid points per atom       ...     2840
UseSFitting                                  ... on

Time for X-Grid setup             =    1.038 sec

--------------
SCF ITERATIONS
--------------
ITER       Energy         Delta-E        Max-DP      RMS-DP      [F,P]     Damp
               ***  Starting incremental Fock matrix formation  ***
  0   -305.7081589268   0.000000000000 0.16582378  0.00401952  0.1742258 0.7000
  1   -305.8436201222  -0.135461195357 0.16095225  0.00360114  0.0735093 0.7000
                               ***Turning on DIIS***
  2   -305.8965715096  -0.052951387480 0.38497355  0.00717630  0.0201420 0.0000
  3   -305.9748973071  -0.078325797463 0.12437680  0.00232819  0.0434808 0.0000
  4   -305.9973075426  -0.022410235521 0.03325644  0.00079099  0.0095579 0.0000
  5   -305.9989758325  -0.001668289881 0.02004884  0.00059359  0.0059063 0.0000
  6   -305.9994519927  -0.000476160162 0.02524445  0.00062383  0.0016419 0.0000
  7   -305.9996916095  -0.000239616865 0.02471649  0.00061760  0.0010390 0.0000
  8   -305.9998846086  -0.000192999097 0.20459164  0.00557307  0.0009655 0.0000
               *** Restarting incremental Fock matrix formation ***
                                   *** Resetting DIIS ***
  9   -306.0008500451  -0.000965436494 0.03146726  0.00064142  0.0038355 0.0000
 10   -306.0011113829  -0.000261337820 0.01859849  0.00046419  0.0043250 0.0000
 11   -306.0013869894  -0.000275606403 0.14111695  0.00380808  0.0007346 0.0000
 12   -306.0017232230  -0.000336233655 0.00324893  0.00010850  0.0028390 0.0000
 13   -306.0018250275  -0.000101804507 0.00470680  0.00015178  0.0022486 0.0000
 14   -306.0019049435  -0.000079916021 0.00341610  0.00009107  0.0017978 0.0000
 15   -306.0019113807  -0.000006437204 0.00236692  0.00005928  0.0018485 0.0000
 16   -306.0018975316   0.000013849137 0.01049399  0.00033918  0.0020424 0.0000
 17   -306.0020612208  -0.000163689214 0.06705275  0.00200352  0.0003963 0.0000
 18   -306.0021865895  -0.000125368731 0.00350802  0.00010134  0.0017164 0.0000
 19   -306.0022281578  -0.000041568291 0.04052994  0.00119263  0.0009016 0.0000

 WARNING: the maximum gradient error descreased on average only by a factor   1.1
          during the last 20 iterations

                      *** Initiating the TRAH-SCF procedure ***


TRAH GRIDX
----------

General Integration Accuracy     IntAcc      ... 3.067
Radial Grid Type                 RadialGrid  ... OptM3 with GC (2021)
Angular Grid (max. ang.)         AngularGrid ... 1 (Lebedev-50)
Angular grid pruning method      GridPruning ... 4 (adaptive)
Weight generation scheme         WeightScheme... Becke
Basis function cutoff            BFCut       ... 1.0000e-10
Integration weight cutoff        WCut        ... 1.0000e-14
Angular grids for H and He will be reduced by one unit
Partially contracted basis set               ... on
Rotationally invariant grid construction     ... off

Total number of grid points                  ...     3734
Total number of batches                      ...       65
Average number of points per batch           ...       57
Average number of grid points per atom       ...      311


TRAH GRID
---------

General Integration Accuracy     IntAcc      ... 3.467
Radial Grid Type                 RadialGrid  ... OptM3 with GC (2021)
Angular Grid (max. ang.)         AngularGrid ... 1 (Lebedev-50)
Angular grid pruning method      GridPruning ... 4 (adaptive)
Weight generation scheme         WeightScheme... Becke
Basis function cutoff            BFCut       ... 1.0000e-10
Integration weight cutoff        WCut        ... 1.0000e-14
Angular grids for H and He will be reduced by one unit
Partially contracted basis set               ... off
Rotationally invariant grid construction     ... off

Total number of grid points                  ...     8109
Total number of batches                      ...      132
Average number of points per batch           ...       61
Average number of grid points per atom       ...      676

 --------------------------------------------------------------------------------------------
   Iter.        energy            ||Error||_2        Shift      TRadius  Mac/Mic        Rej.
 --------------------------------------------------------------------------------------------
    0       -306.002304518142     4.570054e-03                     0.400 (TRAH MAcro)   No
    0     dE    -1.005989e-05     3.611794e-03    -1.0060e-05      0.002 (TRAH MIcro)
    0     dE    -4.068934e-05     2.830501e-03    -4.0647e-05      0.032 (TRAH MIcro)
    0     dE    -4.523388e-05     7.542501e-04    -4.5161e-05      0.040 (TRAH MIcro)
    0     dE    -4.546732e-05     1.584965e-04    -4.5392e-05      0.041 (TRAH MIcro)
    1       -306.002350620530     2.709886e-04                           (NR   MAcro)
    1     dE    -3.846667e-08     9.945771e-05                           (NR   MIcro)
    1     dE    -5.230343e-08     6.634656e-05                           (NR   MIcro)
    1     dE    -5.556471e-08     3.584761e-05                           (NR   MIcro)
    1     dE    -5.691275e-08     1.491585e-05                           (NR   MIcro)
    1     dE    -5.720744e-08     1.108974e-05                           (NR   MIcro)
    1     dE    -5.731385e-08     5.593098e-06                           (NR   MIcro)
    1     dE    -5.733758e-08     2.622797e-06                           (NR   MIcro)
    2       -306.002350675585     2.736791e-06                           (NR   MAcro)

               *****************************************************
               *                     SUCCESS                       *
               *           SCF CONVERGED AFTER  34 CYCLES          *
               *****************************************************

Old exchange energy                            =     -7.903547998 Eh
New exchange energy                            =     -7.903529367 Eh
Exchange energy change after final integration =      0.000018631 Eh
Total energy after final integration           =   -306.002332045 Eh
Final COS-X integration done in                =    12.568 sec

----------------
TOTAL SCF ENERGY
----------------

Total Energy       :         -306.00233205 Eh           -8326.74678 eV

Components:
Nuclear Repulsion  :          240.53104499 Eh            6545.18248 eV
Electronic Energy  :         -546.53337703 Eh          -14871.92926 eV
One Electron Energy:         -902.38562899 Eh          -24555.16133 eV
Two Electron Energy:          355.85225196 Eh            9683.23206 eV
Max COSX asymmetry :            0.00000100 Eh               0.00003 eV

Virial components:
Potential Energy   :         -609.80308741 Eh          -16593.58561 eV
Kinetic Energy     :          303.80075537 Eh            8266.83883 eV
Virial Ratio       :            2.00724678


DFT components:
N(Alpha)           :       23.999995896577 electrons
N(Beta)            :       22.999980638002 electrons
N(Total)           :       46.999976534579 electrons
E(X)               :      -31.441333537501 Eh       
E(C)               :       -1.880664746529 Eh       
E(XC)              :      -33.321998284030 Eh       
DFET-embed. en.    :        0.000000000000 Eh       

---------------
SCF CONVERGENCE
---------------

  Last Energy change         ...   -5.5054e-08  Tolerance :   1.0000e-06
  Last Orbital Gradient      ...    2.7368e-06  Tolerance :   5.0000e-05
  Last Orbital Rotation      ...    5.2426e-04

             **** THE GBW FILE WAS UPDATED (lactone_anion.gbw) ****
             **** DENSITY lactone_anion.scfp WAS UPDATED ****
             **** ENERGY FILE WAS UPDATED (lactone_anion.en.tmp) ****
----------------------
UHF SPIN CONTAMINATION
----------------------

Warning: in a DFT calculation there is little theoretical justification to 
         calculate <S**2> as in Hartree-Fock theory. We will do it anyways
         but you should keep in mind that the values have only limited relevance

Expectation value of <S**2>     :     0.751965
Ideal value S*(S+1) for S=0.5   :     0.750000
Deviation                       :     0.001965

             **** THE GBW FILE WAS UPDATED (lactone_anion.gbw) ****
             **** DENSITY lactone_anion.scfp WAS UPDATED ****
----------------
ORBITAL ENERGIES
----------------
                 SPIN UP ORBITALS
  NO   OCC          E(Eh)            E(eV) 
   0   1.0000     -18.946593      -515.5630 
   1   1.0000     -18.868448      -513.4366 
   2   1.0000     -10.061038      -273.7748 
   3   1.0000     -10.044807      -273.3331 
   4   1.0000     -10.007468      -272.3170 
   5   1.0000      -9.992951      -271.9220 
   6   1.0000      -0.866162       -23.5695 
   7   1.0000      -0.778083       -21.1727 
   8   1.0000      -0.593503       -16.1500 
   9   1.0000      -0.518570       -14.1110 
  10   1.0000      -0.418657       -11.3922 
  11   1.0000      -0.348663        -9.4876 
  12   1.0000      -0.315532        -8.5861 
  13   1.0000      -0.300301        -8.1716 
  14   1.0000      -0.239097        -6.5061 
  15   1.0000      -0.234424        -6.3790 
  16   1.0000      -0.210479        -5.7274 
  17   1.0000      -0.189432        -5.1547 
  18   1.0000      -0.178118        -4.8468 
  19   1.0000      -0.149167        -4.0591 
  20   1.0000      -0.144594        -3.9346 
  21   1.0000      -0.088413        -2.4058 
  22   1.0000      -0.043605        -1.1865 
  23   1.0000       0.169657         4.6166 
  24   0.0000       0.210039         5.7155 
  25   0.0000       0.240990         6.5577 
  26   0.0000       0.251288         6.8379 
  27   0.0000       0.268872         7.3164 
  28   0.0000       0.303647         8.2627 
  29   0.0000       0.317979         8.6526 
  30   0.0000       0.325550         8.8587 
  31   0.0000       0.385818        10.4986 
  32   0.0000       0.395129        10.7520 
  33   0.0000       0.450240        12.2516 
  34   0.0000       0.482296        13.1239 
  35   0.0000       0.570994        15.5375 
  36   0.0000       0.581136        15.8135 
  37   0.0000       0.611969        16.6525 
  38   0.0000       0.649668        17.6784 
  39   0.0000       0.657571        17.8934 
  40   0.0000       0.704257        19.1638 
  41   0.0000       0.732397        19.9295 
  42   0.0000       0.749773        20.4024 
  43   0.0000       0.761599        20.7242 
  44   0.0000       0.780562        21.2402 
  45   0.0000       0.792797        21.5731 
  46   0.0000       0.819163        22.2905 
  47   0.0000       0.824131        22.4257 
  48   0.0000       0.833735        22.6871 
  49   0.0000       0.848378        23.0855 
  50   0.0000       0.853808        23.2333 
  51   0.0000       0.865336        23.5470 
  52   0.0000       0.883158        24.0320 
  53   0.0000       0.906712        24.6729 
  54   0.0000       0.918566        24.9954 
  55   0.0000       1.038258        28.2524 
  56   0.0000       1.088688        29.6247 
  57   0.0000       1.128942        30.7201 
  58   0.0000       1.217627        33.1333 
  59   0.0000       1.262047        34.3420 
  60   0.0000       1.276638        34.7391 
  61   0.0000       1.306108        35.5410 
  62   0.0000       1.336031        36.3552 
  63   0.0000       1.436276        39.0831 
  64   0.0000       1.484195        40.3870 
  65   0.0000       1.514718        41.2176 
  66   0.0000       1.560717        42.4693 
  67   0.0000       1.642139        44.6849 
  68   0.0000       1.725484        46.9528 
  69   0.0000       1.760804        47.9139 
  70   0.0000       1.789673        48.6995 
  71   0.0000       1.822733        49.5991 
  72   0.0000       1.859243        50.5926 
  73   0.0000       1.883546        51.2539 
  74   0.0000       1.914965        52.1088 
  75   0.0000       1.927849        52.4594 
  76   0.0000       1.940444        52.8022 
  77   0.0000       1.965444        53.4825 
  78   0.0000       1.970211        53.6122 
  79   0.0000       2.000044        54.4240 
  80   0.0000       2.012525        54.7636 
  81   0.0000       2.051243        55.8172 
  82   0.0000       2.075363        56.4735 
  83   0.0000       2.089496        56.8581 
  84   0.0000       2.144395        58.3519 
  85   0.0000       2.160505        58.7903 
  86   0.0000       2.186260        59.4912 
  87   0.0000       2.275095        61.9085 
  88   0.0000       2.308372        62.8140 
  89   0.0000       2.363864        64.3240 
  90   0.0000       2.432030        66.1789 
  91   0.0000       2.470855        67.2354 
  92   0.0000       2.512693        68.3739 
  93   0.0000       2.578479        70.1640 
  94   0.0000       2.636638        71.7466 
  95   0.0000       2.709816        73.7379 
  96   0.0000       2.812446        76.5305 
  97   0.0000       2.831000        77.0354 
  98   0.0000       2.871323        78.1327 
  99   0.0000       2.898656        78.8764 
 100   0.0000       2.944503        80.1240 
 101   0.0000       2.979401        81.0736 
 102   0.0000       3.005488        81.7835 
 103   0.0000       3.086673        83.9926 
 104   0.0000       3.121624        84.9437 
 105   0.0000       3.162266        86.0496 
 106   0.0000       3.206656        87.2575 
 107   0.0000       3.233519        87.9885 
 108   0.0000       3.263490        88.8041 
 109   0.0000       3.442698        93.6806 
 110   0.0000       3.458071        94.0989 
 111   0.0000       3.539225        96.3072 
 112   0.0000       3.849977       104.7632 
 113   0.0000       3.894740       105.9813 

                 SPIN DOWN ORBITALS
  NO   OCC          E(Eh)            E(eV) 
   0   1.0000     -18.944619      -515.5093 
   1   1.0000     -18.864259      -513.3226 
   2   1.0000     -10.060440      -273.7585 
   3   1.0000     -10.039024      -273.1757 
   4   1.0000     -10.006172      -272.2818 
   5   1.0000      -9.992977      -271.9227 
   6   1.0000      -0.860917       -23.4267 
   7   1.0000      -0.771139       -20.9838 
   8   1.0000      -0.590823       -16.0771 
   9   1.0000      -0.514056       -13.9882 
  10   1.0000      -0.415160       -11.2971 
  11   1.0000      -0.342603        -9.3227 
  12   1.0000      -0.309592        -8.4244 
  13   1.0000      -0.297768        -8.1027 
  14   1.0000      -0.234404        -6.3785 
  15   1.0000      -0.226205        -6.1554 
  16   1.0000      -0.198686        -5.4065 
  17   1.0000      -0.185275        -5.0416 
  18   1.0000      -0.174643        -4.7523 
  19   1.0000      -0.145413        -3.9569 
  20   1.0000      -0.135811        -3.6956 
  21   1.0000      -0.070409        -1.9159 
  22   1.0000      -0.039738        -1.0813 
  23   0.0000       0.214579         5.8390 
  24   0.0000       0.241253         6.5648 
  25   0.0000       0.256029         6.9669 
  26   0.0000       0.257498         7.0069 
  27   0.0000       0.280187         7.6243 
  28   0.0000       0.312482         8.5031 
  29   0.0000       0.324012         8.8168 
  30   0.0000       0.331274         9.0144 
  31   0.0000       0.391535        10.6542 
  32   0.0000       0.401698        10.9308 
  33   0.0000       0.457015        12.4360 
  34   0.0000       0.485451        13.2098 
  35   0.0000       0.576704        15.6929 
  36   0.0000       0.586275        15.9533 
  37   0.0000       0.613520        16.6947 
  38   0.0000       0.657335        17.8870 
  39   0.0000       0.660946        17.9853 
  40   0.0000       0.708848        19.2887 
  41   0.0000       0.738585        20.0979 
  42   0.0000       0.756354        20.5814 
  43   0.0000       0.768545        20.9132 
  44   0.0000       0.782947        21.3051 
  45   0.0000       0.794664        21.6239 
  46   0.0000       0.823356        22.4047 
  47   0.0000       0.833424        22.6786 
  48   0.0000       0.837430        22.7876 
  49   0.0000       0.852170        23.1887 
  50   0.0000       0.856364        23.3029 
  51   0.0000       0.868393        23.6302 
  52   0.0000       0.885106        24.0850 
  53   0.0000       0.910216        24.7682 
  54   0.0000       0.925222        25.1766 
  55   0.0000       1.042362        28.3641 
  56   0.0000       1.091425        29.6992 
  57   0.0000       1.133592        30.8466 
  58   0.0000       1.222204        33.2579 
  59   0.0000       1.266555        34.4647 
  60   0.0000       1.286145        34.9978 
  61   0.0000       1.308264        35.5997 
  62   0.0000       1.341476        36.5034 
  63   0.0000       1.439176        39.1620 
  64   0.0000       1.487230        40.4696 
  65   0.0000       1.517798        41.3014 
  66   0.0000       1.563485        42.5446 
  67   0.0000       1.644656        44.7534 
  68   0.0000       1.729608        47.0650 
  69   0.0000       1.765010        48.0284 
  70   0.0000       1.796496        48.8851 
  71   0.0000       1.831891        49.8483 
  72   0.0000       1.862013        50.6680 
  73   0.0000       1.885946        51.3192 
  74   0.0000       1.918414        52.2027 
  75   0.0000       1.930557        52.5331 
  76   0.0000       1.944051        52.9003 
  77   0.0000       1.968875        53.5758 
  78   0.0000       1.972876        53.6847 
  79   0.0000       2.007485        54.6264 
  80   0.0000       2.015370        54.8410 
  81   0.0000       2.053882        55.8890 
  82   0.0000       2.081558        56.6421 
  83   0.0000       2.091710        56.9183 
  84   0.0000       2.146308        58.4040 
  85   0.0000       2.165939        58.9382 
  86   0.0000       2.193627        59.6916 
  87   0.0000       2.279571        62.0303 
  88   0.0000       2.314347        62.9766 
  89   0.0000       2.375623        64.6440 
  90   0.0000       2.434200        66.2380 
  91   0.0000       2.476462        67.3879 
  92   0.0000       2.516351        68.4734 
  93   0.0000       2.582638        70.2771 
  94   0.0000       2.640837        71.8608 
  95   0.0000       2.712836        73.8200 
  96   0.0000       2.815640        76.6175 
  97   0.0000       2.833162        77.0943 
  98   0.0000       2.881663        78.4140 
  99   0.0000       2.905544        79.0639 
 100   0.0000       2.951890        80.3250 
 101   0.0000       2.984686        81.2174 
 102   0.0000       3.009806        81.9010 
 103   0.0000       3.092166        84.1421 
 104   0.0000       3.126408        85.0739 
 105   0.0000       3.166168        86.1558 
 106   0.0000       3.214032        87.4583 
 107   0.0000       3.236682        88.0746 
 108   0.0000       3.269277        88.9616 
 109   0.0000       3.446295        93.7785 
 110   0.0000       3.472918        94.5029 
 111   0.0000       3.542335        96.3918 
 112   0.0000       3.852825       104.8407 
 113   0.0000       3.899840       106.1200 

                    ********************************
                    * MULLIKEN POPULATION ANALYSIS *
                    ********************************

--------------------------------------------
MULLIKEN ATOMIC CHARGES AND SPIN POPULATIONS
--------------------------------------------
   0 C :    0.097872   -0.025167
   1 C :    0.321138   -0.065281
   2 O :   -0.349393    0.038355
   3 H :   -0.110129    0.062849
   4 H :   -0.103653    0.063667
   5 C :    0.117041   -0.083384
   6 H :   -0.234121    0.209467
   7 H :   -0.098285    0.052288
   8 C :   -0.024165    0.342884
   9 H :   -0.245080    0.274675
  10 H :   -0.049909   -0.001594
  11 O :   -0.321316    0.131240
Sum of atomic charges         :   -1.0000000
Sum of atomic spin populations:    1.0000000

-----------------------------------------------------
MULLIKEN REDUCED ORBITAL CHARGES AND SPIN POPULATIONS
-----------------------------------------------------
CHARGE
  0 C s       :     2.931723  s :     2.931723
      pz      :     0.948412  p :     2.934901
      px      :     1.001255
      py      :     0.985233
      dz2     :     0.008576  d :     0.035504
      dxz     :     0.005925
      dyz     :     0.005225
      dx2y2   :     0.008403
      dxy     :     0.007375
  1 C s       :     2.905513  s :     2.905513
      pz      :     0.964598  p :     2.712799
      px      :     0.805006
      py      :     0.943195
      dz2     :     0.011673  d :     0.060550
      dxz     :     0.013056
      dyz     :     0.006592
      dx2y2   :     0.013264
      dxy     :     0.015965
  2 O s       :     3.741273  s :     3.741273
      pz      :     1.790442  p :     4.591930
      px      :     1.190435
      py      :     1.611054
      dz2     :     0.002163  d :     0.016189
      dxz     :     0.002457
      dyz     :     0.002392
      dx2y2   :     0.002496
      dxy     :     0.006681
  3 H s       :     1.089298  s :     1.089298
      pz      :     0.008017  p :     0.020831
      px      :     0.007675
      py      :     0.005138
  4 H s       :     1.082955  s :     1.082955
      pz      :     0.013317  p :     0.020698
      px      :     0.003512
      py      :     0.003869
  5 C s       :     2.895588  s :     2.895588
      pz      :     0.992727  p :     2.950245
      px      :     0.931129
      py      :     1.026389
      dz2     :     0.009637  d :     0.037126
      dxz     :     0.005124
      dyz     :     0.007293
      dx2y2   :     0.007563
      dxy     :     0.007509
  6 H s       :     1.212154  s :     1.212154
      pz      :     0.007569  p :     0.021967
      px      :     0.006708
      py      :     0.007690
  7 H s       :     1.076197  s :     1.076197
      pz      :     0.013003  p :     0.022088
      px      :     0.004279
      py      :     0.004807
  8 C s       :     3.070533  s :     3.070533
      pz      :     1.040040  p :     2.826851
      px      :     0.843815
      py      :     0.942996
      dz2     :     0.008337  d :     0.126781
      dxz     :     0.027063
      dyz     :     0.010250
      dx2y2   :     0.033260
      dxy     :     0.047871
  9 H s       :     1.222220  s :     1.222220
      pz      :     0.013529  p :     0.022860
      px      :     0.004164
      py      :     0.005167
 10 H s       :     1.027815  s :     1.027815
      pz      :     0.007580  p :     0.022094
      px      :     0.006499
      py      :     0.008015
 11 O s       :     3.677917  s :     3.677917
      pz      :     1.530890  p :     4.625333
      px      :     1.395169
      py      :     1.699274
      dz2     :     0.002112  d :     0.018066
      dxz     :     0.005299
      dyz     :     0.000642
      dx2y2   :     0.005440
      dxy     :     0.004573

SPIN
  0 C s       :    -0.048278  s :    -0.048278
      pz      :    -0.002295  p :     0.022523
      px      :    -0.005291
      py      :     0.030109
      dz2     :    -0.000049  d :     0.000589
      dxz     :     0.000197
      dyz     :     0.000409
      dx2y2   :    -0.000181
      dxy     :     0.000213
  1 C s       :    -0.063597  s :    -0.063597
      pz      :     0.000541  p :    -0.001674
      px      :     0.000251
      py      :    -0.002466
      dz2     :    -0.000068  d :    -0.000011
      dxz     :     0.000058
      dyz     :     0.000136
      dx2y2   :    -0.000052
      dxy     :    -0.000085
  2 O s       :    -0.000231  s :    -0.000231
      pz      :     0.042488  p :     0.037962
      px      :    -0.002595
      py      :    -0.001932
      dz2     :    -0.000015  d :     0.000625
      dxz     :     0.000387
      dyz     :     0.000230
      dx2y2   :     0.000035
      dxy     :    -0.000013
  3 H s       :     0.062918  s :     0.062918
      pz      :     0.000093  p :    -0.000069
      px      :    -0.000064
      py      :    -0.000099
  4 H s       :     0.063538  s :     0.063538
      pz      :     0.000160  p :     0.000130
      px      :    -0.000019
      py      :    -0.000011
  5 C s       :    -0.074748  s :    -0.074748
      pz      :    -0.000704  p :    -0.014188
      px      :     0.001197
      py      :    -0.014681
      dz2     :     0.001962  d :     0.005552
      dxz     :     0.000073
      dyz     :     0.003284
      dx2y2   :    -0.000032
      dxy     :     0.000265
  6 H s       :     0.209844  s :     0.209844
      pz      :     0.000011  p :    -0.000377
      px      :    -0.000237
      py      :    -0.000151
  7 H s       :     0.051803  s :     0.051803
      pz      :     0.000338  p :     0.000485
      px      :     0.000003
      py      :     0.000143
  8 C s       :     0.047936  s :     0.047936
      pz      :     0.265773  p :     0.292692
      px      :     0.012177
      py      :     0.014743
      dz2     :    -0.000710  d :     0.002256
      dxz     :     0.001036
      dyz     :     0.001792
      dx2y2   :    -0.000017
      dxy     :     0.000156
  9 H s       :     0.275535  s :     0.275535
      pz      :    -0.001109  p :    -0.000860
      px      :     0.000112
      py      :     0.000137
 10 H s       :    -0.001643  s :    -0.001643
      pz      :     0.000169  p :     0.000049
      px      :    -0.000070
      py      :    -0.000051
 11 O s       :     0.002902  s :     0.002902
      pz      :     0.130682  p :     0.128198
      px      :    -0.004825
      py      :     0.002341
      dz2     :     0.000005  d :     0.000140
      dxz     :     0.000153
      dyz     :     0.000050
      dx2y2   :    -0.000035
      dxy     :    -0.000033


                     *******************************
                     * LOEWDIN POPULATION ANALYSIS *
                     *******************************

-------------------------------------------
LOEWDIN ATOMIC CHARGES AND SPIN POPULATIONS
-------------------------------------------
   0 C :   -0.073234    0.054526
   1 C :    0.070232    0.022544
   2 O :   -0.171239    0.054903
   3 H :   -0.035992    0.029062
   4 H :   -0.044894    0.036754
   5 C :   -0.087582    0.026328
   6 H :   -0.106884    0.123177
   7 H :   -0.026751    0.030238
   8 C :   -0.094592    0.301622
   9 H :   -0.127629    0.174932
  10 H :    0.001779    0.005512
  11 O :   -0.303214    0.140404

----------------------------------------------------
LOEWDIN REDUCED ORBITAL CHARGES AND SPIN POPULATIONS
----------------------------------------------------
CHARGE
  0 C s       :     2.867049  s :     2.867049
      pz      :     1.044042  p :     3.112952
      px      :     1.032774
      py      :     1.036136
      dz2     :     0.022081  d :     0.093233
      dxz     :     0.014300
      dyz     :     0.013573
      dx2y2   :     0.024475
      dxy     :     0.018805
  1 C s       :     2.868011  s :     2.868011
      pz      :     1.050892  p :     2.924857
      px      :     0.877629
      py      :     0.996336
      dz2     :     0.027809  d :     0.136901
      dxz     :     0.031432
      dyz     :     0.012804
      dx2y2   :     0.031090
      dxy     :     0.033766
  2 O s       :     3.465198  s :     3.465198
      pz      :     1.778195  p :     4.674671
      px      :     1.256844
      py      :     1.639632
      dz2     :     0.003867  d :     0.031370
      dxz     :     0.004571
      dyz     :     0.003334
      dx2y2   :     0.005216
      dxy     :     0.014382
  3 H s       :     0.968618  s :     0.968618
      pz      :     0.025018  p :     0.067374
      px      :     0.025490
      py      :     0.016865
  4 H s       :     0.976934  s :     0.976934
      pz      :     0.044284  p :     0.067960
      px      :     0.011393
      py      :     0.012283
  5 C s       :     2.860448  s :     2.860448
      pz      :     1.068510  p :     3.126359
      px      :     1.004598
      py      :     1.053252
      dz2     :     0.028517  d :     0.100774
      dxz     :     0.011536
      dyz     :     0.019801
      dx2y2   :     0.022016
      dxy     :     0.018905
  6 H s       :     1.022502  s :     1.022502
      pz      :     0.030993  p :     0.084382
      px      :     0.027861
      py      :     0.025528
  7 H s       :     0.955464  s :     0.955464
      pz      :     0.042522  p :     0.071287
      px      :     0.013688
      py      :     0.015077
  8 C s       :     2.844852  s :     2.844852
      pz      :     1.035586  p :     2.950801
      px      :     0.959847
      py      :     0.955367
      dz2     :     0.018467  d :     0.298938
      dxz     :     0.057053
      dyz     :     0.022067
      dx2y2   :     0.082822
      dxy     :     0.118530
  9 H s       :     1.039733  s :     1.039733
      pz      :     0.056932  p :     0.087896
      px      :     0.012512
      py      :     0.018452
 10 H s       :     0.932488  s :     0.932488
      pz      :     0.021254  p :     0.065733
      px      :     0.019335
      py      :     0.025144
 11 O s       :     3.523524  s :     3.523524
      pz      :     1.530263  p :     4.747238
      px      :     1.505295
      py      :     1.711680
      dz2     :     0.004171  d :     0.032452
      dxz     :     0.008913
      dyz     :     0.001070
      dx2y2   :     0.010165
      dxy     :     0.008133

SPIN
  0 C s       :     0.025068  s :     0.025068
      pz      :    -0.000477  p :     0.024035
      px      :    -0.000081
      py      :     0.024594
      dz2     :     0.000116  d :     0.005423
      dxz     :     0.001551
      dyz     :     0.001750
      dx2y2   :    -0.000069
      dxy     :     0.002075
  1 C s       :     0.016582  s :     0.016582
      pz      :     0.001787  p :     0.005778
      px      :     0.004473
      py      :    -0.000482
      dz2     :    -0.000236  d :     0.000184
      dxz     :     0.000144
      dyz     :     0.000316
      dx2y2   :    -0.000089
      dxy     :     0.000050
  2 O s       :     0.002594  s :     0.002594
      pz      :     0.049587  p :     0.050155
      px      :    -0.000694
      py      :     0.001263
      dz2     :     0.000027  d :     0.002154
      dxz     :     0.000788
      dyz     :     0.001039
      dx2y2   :     0.000203
      dxy     :     0.000097
  3 H s       :     0.023545  s :     0.023545
      pz      :     0.003388  p :     0.005517
      px      :     0.001685
      py      :     0.000444
  4 H s       :     0.030968  s :     0.030968
      pz      :     0.005899  p :     0.005786
      px      :    -0.000088
      py      :    -0.000025
  5 C s       :     0.009651  s :     0.009651
      pz      :     0.005706  p :    -0.002982
      px      :    -0.001094
      py      :    -0.007594
      dz2     :     0.009213  d :     0.019658
      dxz     :     0.000042
      dyz     :     0.009256
      dx2y2   :     0.000310
      dxy     :     0.000837
  6 H s       :     0.103294  s :     0.103294
      pz      :     0.011050  p :     0.019883
      px      :     0.006224
      py      :     0.002609
  7 H s       :     0.021366  s :     0.021366
      pz      :     0.006829  p :     0.008872
      px      :     0.000188
      py      :     0.001854
  8 C s       :     0.011919  s :     0.011919
      pz      :     0.269055  p :     0.279717
      px      :     0.004382
      py      :     0.006280
      dz2     :    -0.000545  d :     0.009986
      dxz     :     0.003586
      dyz     :     0.006611
      dx2y2   :    -0.000133
      dxy     :     0.000467
  9 H s       :     0.154011  s :     0.154011
      pz      :     0.017531  p :     0.020920
      px      :    -0.000039
      py      :     0.003429
 10 H s       :     0.004241  s :     0.004241
      pz      :     0.001433  p :     0.001270
      px      :    -0.000074
      py      :    -0.000089
 11 O s       :     0.002708  s :     0.002708
      pz      :     0.133524  p :     0.134566
      px      :    -0.001399
      py      :     0.002441
      dz2     :     0.000129  d :     0.003130
      dxz     :     0.002501
      dyz     :     0.000344
      dx2y2   :     0.000044
      dxy     :     0.000112


                      *****************************
                      * MAYER POPULATION ANALYSIS *
                      *****************************

  NA   - Mulliken gross atomic population
  ZA   - Total nuclear charge
  QA   - Mulliken gross atomic charge
  VA   - Mayer's total valence
  BVA  - Mayer's bonded valence
  FA   - Mayer's free valence

  ATOM       NA         ZA         QA         VA         BVA        FA
  0 C      5.9021     6.0000     0.0979     3.8026     3.7982     0.0044
  1 C      5.6789     6.0000     0.3211     3.7857     3.7815     0.0043
  2 O      8.3494     8.0000    -0.3494     2.0810     2.0780     0.0030
  3 H      1.1101     1.0000    -0.1101     1.0288     1.0247     0.0041
  4 H      1.1037     1.0000    -0.1037     1.0644     1.0600     0.0044
  5 C      5.8830     6.0000     0.1170     3.6711     3.6674     0.0038
  6 H      1.2341     1.0000    -0.2341     1.1266     1.0809     0.0457
  7 H      1.0983     1.0000    -0.0983     1.0494     1.0463     0.0031
  8 C      6.0242     6.0000    -0.0242     4.4404     4.3398     0.1005
  9 H      1.2451     1.0000    -0.2451     1.0825     1.0041     0.0784
 10 H      1.0499     1.0000    -0.0499     0.9932     0.9932     0.0001
 11 O      8.3213     8.0000    -0.3213     2.2103     2.1908     0.0195

  Mayer bond orders larger than 0.100000
B(  0-C ,  1-C ) :   1.0807 B(  0-C ,  5-C ) :   1.0950 B(  0-C ,  6-H ) :   0.7295 
B(  0-C ,  7-H ) :   0.8907 B(  1-C ,  2-O ) :   0.9898 B(  1-C ,  3-H ) :   0.8876 
B(  1-C ,  4-H ) :   0.8870 B(  2-O ,  8-C ) :   0.9877 B(  5-C ,  8-C ) :   1.0142 
B(  5-C ,  9-H ) :   0.6540 B(  5-C , 10-H ) :   0.9415 B(  6-H ,  8-C ) :   0.1275 
B(  8-C ,  9-H ) :   0.1107 B(  8-C , 11-O ) :   1.9979 

-------
TIMINGS
-------

Total SCF time: 0 days 0 hours 3 min 56 sec 

Total time                  ....     236.084 sec
Sum of individual times     ....     234.284 sec  ( 99.2%)

Fock matrix formation       ....     230.564 sec  ( 97.7%)
  Split-RI-J                ....      14.493 sec  (  6.3% of F)
  Chain of spheres X        ....     157.084 sec  ( 68.1% of F)
  XC integration            ....      57.973 sec  ( 25.1% of F)
    Basis function eval.    ....      13.459 sec  ( 23.2% of XC)
    Density eval.           ....      19.298 sec  ( 33.3% of XC)
    XC-Functional eval.     ....       5.019 sec  (  8.7% of XC)
    XC-Potential eval.      ....      16.114 sec  ( 27.8% of XC)
Diagonalization             ....       0.265 sec  (  0.1%)
Density matrix formation    ....       0.024 sec  (  0.0%)
Population analysis         ....       0.219 sec  (  0.1%)
Initial guess               ....       0.275 sec  (  0.1%)
Orbital Transformation      ....       0.051 sec  (  0.0%)
Orbital Orthonormalization  ....       0.000 sec  (  0.0%)
DIIS solution               ....       0.741 sec  (  0.3%)
Grid generation             ....       2.144 sec  (  0.9%)

Maximum memory used throughout the entire SCF-calculation: 58.7 MB


-------------------------------------------------------------------------------
                          DFT DISPERSION CORRECTION                            
                                                                               
                              DFTD3 V3.1  Rev 1                                
                          USING Becke-Johnson damping                          
-------------------------------------------------------------------------------
The B3LYP functional is recognized
Active option DFTDOPT                   ...         4   

molecular C6(AA) [au] = 1226.349971 


            DFT-D V3
 parameters
 s6 scaling factor         :     1.0000 
 a1 scaling factor         :     0.3981 
 s8 scaling factor         :     1.9889 
 a2 scaling factor         :     4.4211 
 ad hoc parameters k1-k3   :    16.0000     1.3333    -4.0000 

 Edisp/kcal,au: -9.647646358176  -0.015374501466 
 E6   /kcal   :  -4.640369207 
 E8   /kcal   :  -5.007277151 
 % E8         :  51.901541219 

-------------------------   ----------------
Dispersion correction           -0.015374501
-------------------------   ----------------


-------------------------   --------------------
FINAL SINGLE POINT ENERGY      -306.017706546537
-------------------------   --------------------


                            ***************************************
                            *     ORCA property calculations      *
                            ***************************************

                                    ---------------------
                                    Active property flags
                                    ---------------------
   (+) Dipole Moment


------------------------------------------------------------------------------
                       ORCA ELECTRIC PROPERTIES CALCULATION
------------------------------------------------------------------------------

Dipole Moment Calculation                       ... on
Quadrupole Moment Calculation                   ... off
Polarizability Calculation                      ... off
GBWName                                         ... lactone_anion.gbw
Electron density                                ... lactone_anion.scfp
The origin for moment calculation is the CENTER OF MASS  = (-1.895214,  3.627290 -0.209845)

-------------
DIPOLE MOMENT
-------------
                                X             Y             Z
Electronic contribution:      4.72794      -4.80833      -1.35550
Nuclear contribution   :     -5.63513       4.78017       1.01678
                        -----------------------------------------
Total Dipole Moment    :     -0.90719      -0.02816      -0.33872
                        -----------------------------------------
Magnitude (a.u.)       :      0.96878
Magnitude (Debye)      :      2.46243



--------------------
Rotational spectrum 
--------------------
 
Rotational constants in cm-1:     0.242899     0.119204     0.085243 
Rotational constants in MHz :  7281.918709  3573.634312  2555.522165 

 Dipole components along the rotational axes: 
x,y,z [a.u.] :     0.832141    -0.317130    -0.381439 
x,y,z [Debye]:     2.115134    -0.806081    -0.969540 

 

Timings for individual modules:

Sum of individual times         ...      236.399 sec (=   3.940 min)
GTO integral calculation        ...        0.258 sec (=   0.004 min)   0.1 %
SCF iterations                  ...      236.141 sec (=   3.936 min)  99.9 %
                             ****ORCA TERMINATED NORMALLY****
TOTAL RUN TIME: 0 days 0 hours 3 minutes 57 seconds 638 msec
