
                                 *****************
                                 * O   R   C   A *
                                 *****************

                                            #,                                       
                                            ###                                      
                                            ####                                     
                                            #####                                    
                                            ######                                   
                                           ########,                                 
                                     ,,################,,,,,                         
                               ,,#################################,,                 
                          ,,##########################################,,             
                       ,#########################################, ''#####,          
                    ,#############################################,,   '####,        
                  ,##################################################,,,,####,       
                ,###########''''           ''''###############################       
              ,#####''   ,,,,##########,,,,          '''####'''          '####       
            ,##' ,,,,###########################,,,                        '##       
           ' ,,###''''                  '''############,,,                           
         ,,##''                                '''############,,,,        ,,,,,,###''
      ,#''                                            '''#######################'''  
     '                                                          ''''####''''         
             ,#######,   #######,   ,#######,      ##                                
            ,#'     '#,  ##    ##  ,#'     '#,    #''#        ######   ,####,        
            ##       ##  ##   ,#'  ##            #'  '#       #        #'  '#        
            ##       ##  #######   ##           ,######,      #####,   #    #        
            '#,     ,#'  ##    ##  '#,     ,#' ,#      #,         ##   #,  ,#        
             '#######'   ##     ##  '#######'  #'      '#     #####' # '####'        



                  #######################################################
                  #                        -***-                        #
                  #          Department of theory and spectroscopy      #
                  #    Directorship and core code : Frank Neese         #
                  #        Max Planck Institute fuer Kohlenforschung    #
                  #                Kaiser Wilhelm Platz 1               #
                  #                 D-45470 Muelheim/Ruhr               #
                  #                      Germany                        #
                  #                                                     #
                  #                  All rights reserved                #
                  #                        -***-                        #
                  #######################################################



                         Program Version 5.0.4 -  RELEASE  -

 With contributions from (in alphabetic order):
   Daniel Aravena         : Magnetic Suceptibility
   Michael Atanasov       : Ab Initio Ligand Field Theory (pilot matlab implementation)
   Alexander A. Auer      : GIAO ZORA, VPT2 properties, NMR spectrum
   Ute Becker             : Parallelization
   Giovanni Bistoni       : ED, misc. LED, open-shell LED, HFLD
   Martin Brehm           : Molecular dynamics
   Dmytro Bykov           : SCF Hessian
   Vijay G. Chilkuri      : MRCI spin determinant printing, contributions to CSF-ICE
   Dipayan Datta          : RHF DLPNO-CCSD density
   Achintya Kumar Dutta   : EOM-CC, STEOM-CC
   Dmitry Ganyushin       : Spin-Orbit,Spin-Spin,Magnetic field MRCI
   Miquel Garcia          : C-PCM and meta-GGA Hessian, CC/C-PCM, Gaussian charge scheme
   Yang Guo               : DLPNO-NEVPT2, F12-NEVPT2, CIM, IAO-localization
   Andreas Hansen         : Spin unrestricted coupled pair/coupled cluster methods
   Benjamin Helmich-Paris : MC-RPA, TRAH-SCF, COSX integrals
   Lee Huntington         : MR-EOM, pCC
   Robert Izsak           : Overlap fitted RIJCOSX, COSX-SCS-MP3, EOM
   Marcus Kettner         : VPT2
   Christian Kollmar      : KDIIS, OOCD, Brueckner-CCSD(T), CCSD density, CASPT2, CASPT2-K
   Simone Kossmann        : Meta GGA functionals, TD-DFT gradient, OOMP2, MP2 Hessian
   Martin Krupicka        : Initial AUTO-CI
   Lucas Lang             : DCDCAS
   Marvin Lechner         : AUTO-CI (C++ implementation), FIC-MRCC
   Dagmar Lenk            : GEPOL surface, SMD
   Dimitrios Liakos       : Extrapolation schemes; Compound Job, initial MDCI parallelization
   Dimitrios Manganas     : Further ROCIS development; embedding schemes
   Dimitrios Pantazis     : SARC Basis sets
   Anastasios Papadopoulos: AUTO-CI, single reference methods and gradients
   Taras Petrenko         : DFT Hessian,TD-DFT gradient, ASA, ECA, R-Raman, ABS, FL, XAS/XES, NRVS
   Peter Pinski           : DLPNO-MP2, DLPNO-MP2 Gradient
   Christoph Reimann      : Effective Core Potentials
   Marius Retegan         : Local ZFS, SOC
   Christoph Riplinger    : Optimizer, TS searches, QM/MM, DLPNO-CCSD(T), (RO)-DLPNO pert. Triples
   Tobias Risthaus        : Range-separated hybrids, TD-DFT gradient, RPA, STAB
   Michael Roemelt        : Original ROCIS implementation
   Masaaki Saitow         : Open-shell DLPNO-CCSD energy and density
   Barbara Sandhoefer     : DKH picture change effects
   Avijit Sen             : IP-ROCIS
   Kantharuban Sivalingam : CASSCF convergence, NEVPT2, FIC-MRCI
   Bernardo de Souza      : ESD, SOC TD-DFT
   Georgi Stoychev        : AutoAux, RI-MP2 NMR, DLPNO-MP2 response
   Willem Van den Heuvel  : Paramagnetic NMR
   Boris Wezisla          : Elementary symmetry handling
   Frank Wennmohs         : Technical directorship


 We gratefully acknowledge several colleagues who have allowed us to
 interface, adapt or use parts of their codes:
   Stefan Grimme, W. Hujo, H. Kruse, P. Pracht,  : VdW corrections, initial TS optimization,
                  C. Bannwarth, S. Ehlert          DFT functionals, gCP, sTDA/sTD-DF
   Ed Valeev, F. Pavosevic, A. Kumar             : LibInt (2-el integral package), F12 methods
   Garnet Chan, S. Sharma, J. Yang, R. Olivares  : DMRG
   Ulf Ekstrom                                   : XCFun DFT Library
   Mihaly Kallay                                 : mrcc  (arbitrary order and MRCC methods)
   Jiri Pittner, Ondrej Demel                    : Mk-CCSD
   Frank Weinhold                                : gennbo (NPA and NBO analysis)
   Christopher J. Cramer and Donald G. Truhlar   : smd solvation model
   Lars Goerigk                                  : TD-DFT with DH, B97 family of functionals
   V. Asgeirsson, H. Jonsson                     : NEB implementation
   FAccTs GmbH                                   : IRC, NEB, NEB-TS, DLPNO-Multilevel, CI-OPT
                                                   MM, QMMM, 2- and 3-layer-ONIOM, Crystal-QMMM,
                                                   LR-CPCM, SF, NACMEs, symmetry and pop. for TD-DFT,
                                                   nearIR, NL-DFT gradient (VV10), updates on ESD,
                                                   ML-optimized integration grids
   S Lehtola, MJT Oliveira, MAL Marques          : LibXC Library
   Liviu Ungur et al                             : ANISO software


 Your calculation uses the libint2 library for the computation of 2-el integrals
 For citations please refer to: http://libint.valeyev.net

 Your ORCA version has been built with support for libXC version: 5.1.0
 For citations please refer to: https://tddft.org/programs/libxc/

 This ORCA versions uses:
   CBLAS   interface :  Fast vector & matrix operations
   LAPACKE interface :  Fast linear algebra routines
   Shared memory     :  Shared parallel matrices


================================================================================

----- Orbital basis set information -----
Your calculation utilizes the basis: def2-QZVPP
   F. Weigend and R. Ahlrichs, Phys. Chem. Chem. Phys. 7, 3297 (2005).

----- AuxJ basis set information -----
Your calculation utilizes the auxiliary basis: def2/J
   F. Weigend, Phys. Chem. Chem. Phys. 8, 1057 (2006).

================================================================================
                                        WARNINGS
                       Please study these warnings very carefully!
================================================================================


WARNING: your system is open-shell and RHF/RKS was chosen
  ===> : WILL SWITCH to UHF/UKS


INFO   : the flag for use of the SHARK integral package has been found!

================================================================================
                                       INPUT FILE
================================================================================
NAME = kation.inp
|  1> !B3LYP DEF2-QZVPP
|  2> 
|  3> %scf
|  4> convergence tight
|  5> end
|  6> 
|  7> * xyz 1 2
|  8>   C   -7.64955123257574      1.05667496322029      0.00014520838104
|  9>   C   -8.79916351080206      0.24872780425274      0.00008905118997
| 10>   C   -8.67321655981621     -1.13811711906506     -0.00000919817803
| 11>   C   -7.40029987012933     -1.72545521617015     -0.00005668085097
| 12>   C   -6.25283944731800     -0.92603412378881     -0.00000445009069
| 13>   C   -6.37843668408918      0.46455608191688      0.00009149100933
| 14>   H   -9.77661143532832      0.73646330403028      0.00013423090312
| 15>   H   -9.56538097816012     -1.76944944365123     -0.00004787808665
| 16>   H   -7.30398836209473     -2.81446583393220     -0.00013419510464
| 17>   H   -5.26279373559463     -1.38857504724656     -0.00004062474458
| 18>   H   -5.48778053780068      1.10055393291687      0.00013390758895
| 19>   C   -7.78086952931509      2.53411063434570      0.00027982611682
| 20>   O   -8.83232576750578      3.13199127167985     -0.00028240644287
| 21>   H   -6.80289234947011      3.08481879149140     -0.00029828169081
| 22> **                         ****END OF INPUT****
================================================================================

                       ****************************
                       * Single Point Calculation *
                       ****************************

---------------------------------
CARTESIAN COORDINATES (ANGSTROEM)
---------------------------------
  C     -7.649551    1.056675    0.000145
  C     -8.799164    0.248728    0.000089
  C     -8.673217   -1.138117   -0.000009
  C     -7.400300   -1.725455   -0.000057
  C     -6.252839   -0.926034   -0.000004
  C     -6.378437    0.464556    0.000091
  H     -9.776611    0.736463    0.000134
  H     -9.565381   -1.769449   -0.000048
  H     -7.303988   -2.814466   -0.000134
  H     -5.262794   -1.388575   -0.000041
  H     -5.487781    1.100554    0.000134
  C     -7.780870    2.534111    0.000280
  O     -8.832326    3.131991   -0.000282
  H     -6.802892    3.084819   -0.000298

----------------------------
CARTESIAN COORDINATES (A.U.)
----------------------------
  NO LB      ZA    FRAG     MASS         X           Y           Z
   0 C     6.0000    0    12.011  -14.455557    1.996826    0.000274
   1 C     6.0000    0    12.011  -16.628009    0.470027    0.000168
   2 C     6.0000    0    12.011  -16.390004   -2.150730   -0.000017
   3 C     6.0000    0    12.011  -13.984540   -3.260638   -0.000107
   4 C     6.0000    0    12.011  -11.816154   -1.749951   -0.000008
   5 C     6.0000    0    12.011  -12.053498    0.877884    0.000173
   6 H     1.0000    0     1.008  -18.475118    1.391714    0.000254
   7 H     1.0000    0     1.008  -18.075950   -3.343775   -0.000090
   8 H     1.0000    0     1.008  -13.802538   -5.318570   -0.000254
   9 H     1.0000    0     1.008   -9.945239   -2.624027   -0.000077
  10 H     1.0000    0     1.008  -10.370402    2.079746    0.000253
  11 C     6.0000    0    12.011  -14.703712    4.788775    0.000529
  12 O     8.0000    0    15.999  -16.690677    5.918606   -0.000534
  13 H     1.0000    0     1.008  -12.855603    5.829463   -0.000564

--------------------------------
INTERNAL COORDINATES (ANGSTROEM)
--------------------------------
 C      0   0   0     0.000000000000     0.00000000     0.00000000
 C      1   0   0     1.405128821527     0.00000000     0.00000000
 C      2   1   0     1.392552148197   119.91042912     0.00000000
 C      3   2   1     1.401885495128   119.95824004     0.00000000
 C      4   3   2     1.398477567782   120.36643130     0.00000000
 C      5   4   3     1.396250620517   119.70352069     0.00000000
 H      2   1   3     1.092378306698   118.38178369   179.99941564
 H      3   2   1     1.092949154775   120.09569114   179.99968451
 H      4   3   2     1.093261193945   119.82319040   180.00002277
 H      5   4   3     1.092764667476   120.09398267   179.99992937
 H      6   5   4     1.094422970883   120.36887618   179.99995085
 C      1   2   3     1.483260150983   120.02028762   180.00133630
 O     12   1   2     1.209554378040   124.70273360   359.96364377
 H     12   1   2     1.122372118708   114.30501524   180.03437023

---------------------------
INTERNAL COORDINATES (A.U.)
---------------------------
 C      0   0   0     0.000000000000     0.00000000     0.00000000
 C      1   0   0     2.655308655566     0.00000000     0.00000000
 C      2   1   0     2.631542187296   119.91042912     0.00000000
 C      3   2   1     2.649179656908   119.95824004     0.00000000
 C      4   3   2     2.642739607541   120.36643130     0.00000000
 C      5   4   3     2.638531287095   119.70352069     0.00000000
 H      2   1   3     2.064295834297   118.38178369   179.99941564
 H      3   2   1     2.065374580825   120.09569114   179.99968451
 H      4   3   2     2.065964249401   119.82319040   180.00002277
 H      5   4   3     2.065025950355   120.09398267   179.99992937
 H      6   5   4     2.068159689642   120.36887618   179.99995085
 C      1   2   3     2.802955470717   120.02028762   180.00133630
 O     12   1   2     2.285726518580   124.70273360   359.96364377
 H     12   1   2     2.120975924707   114.30501524   180.03437023

---------------------
BASIS SET INFORMATION
---------------------
There are 3 groups of distinct atoms

 Group   1 Type C   : 15s8p3d2f1g contracted to 7s4p3d2f1g pattern {8211111/5111/111/11/1}
 Group   2 Type H   : 7s3p2d1f contracted to 4s3p2d1f pattern {4111/111/11/1}
 Group   3 Type O   : 15s8p3d2f1g contracted to 7s4p3d2f1g pattern {8211111/5111/111/11/1}

Atom   0C    basis set group =>   1
Atom   1C    basis set group =>   1
Atom   2C    basis set group =>   1
Atom   3C    basis set group =>   1
Atom   4C    basis set group =>   1
Atom   5C    basis set group =>   1
Atom   6H    basis set group =>   2
Atom   7H    basis set group =>   2
Atom   8H    basis set group =>   2
Atom   9H    basis set group =>   2
Atom  10H    basis set group =>   2
Atom  11C    basis set group =>   1
Atom  12O    basis set group =>   3
Atom  13H    basis set group =>   2
---------------------------------
AUXILIARY/J BASIS SET INFORMATION
---------------------------------
There are 3 groups of distinct atoms

 Group   1 Type C   : 12s5p4d2f1g contracted to 6s4p3d1f1g pattern {711111/2111/211/2/1}
 Group   2 Type H   : 5s2p1d contracted to 3s1p1d pattern {311/2/1}
 Group   3 Type O   : 12s5p4d2f1g contracted to 6s4p3d1f1g pattern {711111/2111/211/2/1}

Atom   0C    basis set group =>   1
Atom   1C    basis set group =>   1
Atom   2C    basis set group =>   1
Atom   3C    basis set group =>   1
Atom   4C    basis set group =>   1
Atom   5C    basis set group =>   1
Atom   6H    basis set group =>   2
Atom   7H    basis set group =>   2
Atom   8H    basis set group =>   2
Atom   9H    basis set group =>   2
Atom  10H    basis set group =>   2
Atom  11C    basis set group =>   1
Atom  12O    basis set group =>   3
Atom  13H    basis set group =>   2
------------------------------------------------------------------------------
                           ORCA GTO INTEGRAL CALCULATION
                           -- RI-GTO INTEGRALS CHOSEN --
------------------------------------------------------------------------------
------------------------------------------------------------------------------
                   ___                                                        
                  /   \      - P O W E R E D   B Y -                         
                 /     \                                                     
                 |  |  |   _    _      __       _____    __    __             
                 |  |  |  | |  | |    /  \     |  _  \  |  |  /  |          
                  \  \/   | |  | |   /    \    | | | |  |  | /  /          
                 / \  \   | |__| |  /  /\  \   | |_| |  |  |/  /          
                |  |  |   |  __  | /  /__\  \  |    /   |      \           
                |  |  |   | |  | | |   __   |  |    \   |  |\   \          
                \     /   | |  | | |  |  |  |  | |\  \  |  | \   \       
                 \___/    |_|  |_| |__|  |__|  |_| \__\ |__|  \__/        
                                                                              
                      - O R C A' S   B I G   F R I E N D -                    
                                      &                                       
                       - I N T E G R A L  F E E D E R -                       
                                                                              
 v1 FN, 2020, v2 2021                                                         
------------------------------------------------------------------------------


Reading SHARK input file kation.SHARKINP.tmp ... ok
----------------------
SHARK INTEGRAL PACKAGE
----------------------

Number of atoms                             ...     14
Number of basis functions                   ...    636
Number of shells                            ...    196
Maximum angular momentum                    ...      4
Integral batch strategy                     ... SHARK/LIBINT Hybrid
RI-J (if used) integral strategy            ... SPLIT-RIJ (Revised 2003 algorithm where possible)
Printlevel                                  ...      1
Contraction scheme used                     ... SEGMENTED contraction
Coulomb Range Separation                    ... NOT USED
Exchange Range Separation                   ... NOT USED
Finite Nucleus Model                        ... NOT USED
Auxiliary Coulomb fitting basis             ... AVAILABLE
   # of basis functions in Aux-J            ...    458
   # of shells in Aux-J                     ...    150
   Maximum angular momentum in Aux-J        ...      4
Auxiliary J/K fitting basis                 ... NOT available
Auxiliary Correlation fitting basis         ... NOT available
Auxiliary 'external' fitting basis          ... NOT available
Integral threshold                          ...     2.500000e-11
Primitive cut-off                           ...     2.500000e-12
Primitive pair pre-selection threshold      ...     2.500000e-12

Calculating pre-screening integrals         ... done (  2.1 sec) Dimension = 196
Organizing shell pair data                  ... done (  1.5 sec)
Shell pair information
Total number of shell pairs                 ...     19306
Shell pairs after pre-screening             ...     16460
Total number of primitive shell pairs       ...     48553
Primitive shell pairs kept                  ...     31784
          la=0 lb=0:   2548 shell pairs
          la=1 lb=0:   3484 shell pairs
          la=1 lb=1:   1179 shell pairs
          la=2 lb=0:   2379 shell pairs
          la=2 lb=1:   1616 shell pairs
          la=2 lb=2:    570 shell pairs
          la=3 lb=0:   1450 shell pairs
          la=3 lb=1:    977 shell pairs
          la=3 lb=2:    678 shell pairs
          la=3 lb=3:    216 shell pairs
          la=4 lb=0:    555 shell pairs
          la=4 lb=1:    365 shell pairs
          la=4 lb=2:    254 shell pairs
          la=4 lb=3:    156 shell pairs
          la=4 lb=4:     33 shell pairs

Calculating one electron integrals          ... done (  0.4 sec)
Calculating RI/J V-Matrix + Cholesky decomp.... done (  0.0 sec)
Calculating Nuclear repulsion               ... done (  0.0 sec) ENN=    320.254665227820 Eh

SHARK setup successfully completed in   7.9 seconds

Maximum memory used throughout the entire GTOINT-calculation: 571.1 MB
-------------------------------------------------------------------------------
                                 ORCA SCF
-------------------------------------------------------------------------------

------------
SCF SETTINGS
------------
Hamiltonian:
 Density Functional     Method          .... DFT(GTOs)
 Exchange Functional    Exchange        .... B88
   X-Alpha parameter    XAlpha          ....  0.666667
   Becke's b parameter  XBeta           ....  0.004200
 Correlation Functional Correlation     .... LYP
 LDA part of GGA corr.  LDAOpt          .... VWN-5
 Gradients option       PostSCFGGA      .... off
 Hybrid DFT is turned on
   Fraction HF Exchange ScalHFX         ....  0.200000
   Scaling of DF-GGA-X  ScalDFX         ....  0.720000
   Scaling of DF-GGA-C  ScalDFC         ....  0.810000
   Scaling of DF-LDA-C  ScalLDAC        ....  1.000000
   Perturbative correction              ....  0.000000
   Density functional embedding theory  .... OFF
   NL short-range parameter             ....  4.800000
 RI-approximation to the Coulomb term is turned on
   Number of AuxJ basis functions       .... 458
   RIJ-COSX (HFX calculated with COS-X)).... on


General Settings:
 Integral files         IntName         .... kation
 Hartree-Fock type      HFTyp           .... UHF
 Total Charge           Charge          ....    1
 Multiplicity           Mult            ....    2
 Number of Electrons    NEL             ....   55
 Basis Dimension        Dim             ....  636
 Nuclear Repulsion      ENuc            ....    320.2546652278 Eh

Convergence Acceleration:
 DIIS                   CNVDIIS         .... on
   Start iteration      DIISMaxIt       ....    12
   Startup error        DIISStart       ....  0.200000
   # of expansion vecs  DIISMaxEq       ....     5
   Bias factor          DIISBfac        ....   1.050
   Max. coefficient     DIISMaxC        ....  10.000
 Trust-Rad. Augm. Hess. CNVTRAH         .... auto
   Auto Start mean grad. ratio tolernc. ....  1.125000
   Auto Start start iteration           ....    20
   Auto Start num. interpolation iter.  ....    10
   Max. Number of Micro iterations      ....    16
   Max. Number of Macro iterations      .... Maxiter - #DIIS iter
   Number of Davidson start vectors     ....     2
   Converg. threshold I  (grad. norm)   ....   1.000e-05
   Converg. threshold II (energy diff.) ....   1.000e-08
   Grad. Scal. Fac. for Micro threshold ....   0.100
   Minimum threshold for Micro iter.    ....   0.010
   NR start threshold (gradient norm)   ....   0.001
   Initial trust radius                 ....   0.400
   Minimum AH scaling param. (alpha)    ....   1.000
   Maximum AH scaling param. (alpha)    .... 1000.000
   Orbital update algorithm             .... Taylor
   White noise on init. David. guess    .... on
   Maximum white noise                  ....   0.010
   Quad. conv. algorithm                .... NR
 SOSCF                  CNVSOSCF        .... off
 Level Shifting         CNVShift        .... on
   Level shift para.    LevelShift      ....    0.2500
   Turn off err/grad.   ShiftErr        ....    0.0010
 Zerner damping         CNVZerner       .... off
 Static damping         CNVDamp         .... on
   Fraction old density DampFac         ....    0.7000
   Max. Damping (<1)    DampMax         ....    0.9800
   Min. Damping (>=0)   DampMin         ....    0.0000
   Turn off err/grad.   DampErr         ....    0.1000
 Fernandez-Rico         CNVRico         .... off

SCF Procedure:
 Maximum # iterations   MaxIter         ....   125
 SCF integral mode      SCFMode         .... Direct
   Integral package                     .... SHARK and LIBINT hybrid scheme
 Reset frequency        DirectResetFreq ....    20
 Integral Threshold     Thresh          ....  2.500e-11 Eh
 Primitive CutOff       TCut            ....  2.500e-12 Eh

Convergence Tolerance:
 Convergence Check Mode ConvCheckMode   .... Total+1el-Energy
 Convergence forced     ConvForced      .... 0
 Energy Change          TolE            ....  1.000e-08 Eh
 1-El. energy change                    ....  1.000e-05 Eh
 DIIS Error             TolErr          ....  5.000e-07


Diagonalization of the overlap matrix:
Smallest eigenvalue                        ... 6.756e-06
Time for diagonalization                   ...    0.160 sec
Threshold for overlap eigenvalues          ... 1.000e-08
Number of eigenvalues below threshold      ... 0
Time for construction of square roots      ...    0.106 sec
Total time needed                          ...    0.267 sec

Time for model grid setup =    1.503 sec

------------------------------
INITIAL GUESS: MODEL POTENTIAL
------------------------------
Loading Hartree-Fock densities                     ... done
Calculating cut-offs                               ... done
Initializing the effective Hamiltonian             ... done
Setting up the integral package (SHARK)            ... done
Starting the Coulomb interaction                   ... done (   3.2 sec)
Reading the grid                                   ... done
Mapping shells                                     ... done
Starting the XC term evaluation                    ... done (   4.7 sec)
  promolecular density results
     # of electrons  =     55.995658813
     EX              =    -45.917422734
     EC              =     -1.881935341
     EX+EC           =    -47.799358075
Transforming the Hamiltonian                       ... done (   0.1 sec)
Diagonalizing the Hamiltonian                      ... done (   0.2 sec)
Back transforming the eigenvectors                 ... done (   0.0 sec)
Now organizing SCF variables                       ... done
                      ------------------
                      INITIAL GUESS DONE (   9.8 sec)
                      ------------------
-------------------
DFT GRID GENERATION
-------------------

General Integration Accuracy     IntAcc      ... 4.388
Radial Grid Type                 RadialGrid  ... OptM3 with GC (2021)
Angular Grid (max. ang.)         AngularGrid ... 4 (Lebedev-302)
Angular grid pruning method      GridPruning ... 4 (adaptive)
Weight generation scheme         WeightScheme... Becke
Basis function cutoff            BFCut       ... 1.0000e-11
Integration weight cutoff        WCut        ... 1.0000e-14
Angular grids for H and He will be reduced by one unit
Partially contracted basis set               ... off
Rotationally invariant grid construction     ... off

Total number of grid points                  ...    69667
Total number of batches                      ...     1095
Average number of points per batch           ...       63
Average number of grid points per atom       ...     4976
Time for grid setup =    6.078 sec

--------------------
COSX GRID GENERATION
--------------------

GRIDX 1
-------
General Integration Accuracy     IntAcc      ... 3.816
Radial Grid Type                 RadialGrid  ... OptM3 with GC (2021)
Angular Grid (max. ang.)         AngularGrid ... 1 (Lebedev-50)
Angular grid pruning method      GridPruning ... 4 (adaptive)
Weight generation scheme         WeightScheme... Becke
Basis function cutoff            BFCut       ... 1.0000e-11
Integration weight cutoff        WCut        ... 1.0000e-14
Angular grids for H and He will be reduced by one unit
Partially contracted basis set               ... on
Rotationally invariant grid construction     ... off

Total number of grid points                  ...     8916
Total number of batches                      ...      146
Average number of points per batch           ...       61
Average number of grid points per atom       ...      637
UseSFitting                                  ... on

GRIDX 2
-------
General Integration Accuracy     IntAcc      ... 4.020
Radial Grid Type                 RadialGrid  ... OptM3 with GC (2021)
Angular Grid (max. ang.)         AngularGrid ... 2 (Lebedev-110)
Angular grid pruning method      GridPruning ... 4 (adaptive)
Weight generation scheme         WeightScheme... Becke
Basis function cutoff            BFCut       ... 1.0000e-11
Integration weight cutoff        WCut        ... 1.0000e-14
Angular grids for H and He will be reduced by one unit
Partially contracted basis set               ... on
Rotationally invariant grid construction     ... off

Total number of grid points                  ...    21562
Total number of batches                      ...      342
Average number of points per batch           ...       63
Average number of grid points per atom       ...     1540
UseSFitting                                  ... on

GRIDX 3
-------
General Integration Accuracy     IntAcc      ... 4.338
Radial Grid Type                 RadialGrid  ... OptM3 with GC (2021)
Angular Grid (max. ang.)         AngularGrid ... 3 (Lebedev-194)
Angular grid pruning method      GridPruning ... 4 (adaptive)
Weight generation scheme         WeightScheme... Becke
Basis function cutoff            BFCut       ... 1.0000e-11
Integration weight cutoff        WCut        ... 1.0000e-14
Angular grids for H and He will be reduced by one unit
Partially contracted basis set               ... on
Rotationally invariant grid construction     ... off

Total number of grid points                  ...    46656
Total number of batches                      ...      735
Average number of points per batch           ...       63
Average number of grid points per atom       ...     3333
UseSFitting                                  ... on

Time for X-Grid setup             =   16.805 sec

--------------
SCF ITERATIONS
--------------
ITER       Energy         Delta-E        Max-DP      RMS-DP      [F,P]     Damp
               ***  Starting incremental Fock matrix formation  ***
  0   -345.0264763021   0.000000000000 0.03249248  0.00018884  0.1490630 0.7000
  1   -345.0959636308  -0.069487328610 0.02691789  0.00013583  0.0505344 0.7000
                               ***Turning on DIIS***
  2   -345.1190063200  -0.023042689204 0.02990132  0.00018718  0.0187244 0.0000
  3   -345.1675184948  -0.048512174874 0.02722026  0.00012897  0.0232751 0.0000
  4   -345.1720010464  -0.004482551543 0.00560445  0.00003802  0.0192881 0.0000
  5   -345.1736318205  -0.001630774108 0.00112148  0.00001448  0.0018130 0.0000
  6   -345.1737446464  -0.000112825887 0.00041364  0.00000593  0.0015574 0.0000
  7   -345.1738036322  -0.000058985849 0.00036943  0.00000383  0.0012144 0.0000
  8   -345.1738478621  -0.000044229899 0.00142492  0.00001565  0.0009579 0.0000
               *** Restarting incremental Fock matrix formation ***
                                   *** Resetting DIIS ***
  9   -345.1740180089  -0.000170146775 0.00111658  0.00000749  0.0015740 0.0000
 10   -345.1740599631  -0.000041954157 0.00037678  0.00000311  0.0017906 0.0000
 11   -345.1741033310  -0.000043367951 0.00034688  0.00000306  0.0010065 0.0000
 12   -345.1741398275  -0.000036496466 0.00151127  0.00002001  0.0008380 0.0000
 13   -345.1743231998  -0.000183372312 0.00006344  0.00000048  0.0017967 0.0000
 14   -345.1743160406   0.000007159142 0.00011363  0.00000100  0.0018702 0.0000
 15   -345.1742989567   0.000017083943 0.00004093  0.00000046  0.0020119 0.0000
 16   -345.1742944440   0.000004512690 0.00006192  0.00000039  0.0020080 0.0000
 17   -345.1742990402  -0.000004596223 0.00146102  0.00000925  0.0019096 0.0000
 18   -345.1743730529  -0.000074012711 0.00043548  0.00000381  0.0017839 0.0000
 19   -345.1744230198  -0.000049966828 0.00026623  0.00000299  0.0010914 0.0000

 WARNING: the maximum gradient error descreased on average only by a factor   1.0
          during the last 20 iterations

                      *** Initiating the TRAH-SCF procedure ***


TRAH GRIDX
----------

General Integration Accuracy     IntAcc      ... 3.067
Radial Grid Type                 RadialGrid  ... OptM3 with GC (2021)
Angular Grid (max. ang.)         AngularGrid ... 1 (Lebedev-50)
Angular grid pruning method      GridPruning ... 4 (adaptive)
Weight generation scheme         WeightScheme... Becke
Basis function cutoff            BFCut       ... 1.0000e-11
Integration weight cutoff        WCut        ... 1.0000e-14
Angular grids for H and He will be reduced by one unit
Partially contracted basis set               ... on
Rotationally invariant grid construction     ... off

Total number of grid points                  ...     4714
Total number of batches                      ...       81
Average number of points per batch           ...       58
Average number of grid points per atom       ...      337


TRAH GRID
---------

General Integration Accuracy     IntAcc      ... 3.467
Radial Grid Type                 RadialGrid  ... OptM3 with GC (2021)
Angular Grid (max. ang.)         AngularGrid ... 1 (Lebedev-50)
Angular grid pruning method      GridPruning ... 4 (adaptive)
Weight generation scheme         WeightScheme... Becke
Basis function cutoff            BFCut       ... 1.0000e-11
Integration weight cutoff        WCut        ... 1.0000e-14
Angular grids for H and He will be reduced by one unit
Partially contracted basis set               ... off
Rotationally invariant grid construction     ... off

Total number of grid points                  ...    10440
Total number of batches                      ...      168
Average number of points per batch           ...       62
Average number of grid points per atom       ...      746

 --------------------------------------------------------------------------------------------
   Iter.        energy            ||Error||_2        Shift      TRadius  Mac/Mic        Rej.
 --------------------------------------------------------------------------------------------
    0       -345.174459353331     3.094365e-03                     0.400 (TRAH MAcro)   No
WARNING : small    HOMO - LUMO gap : (op =  beta) 0.014731
    0     dE    -1.022000e-05     8.503540e-03    -1.0220e-05      0.003 (TRAH MIcro)
    0     dE    -2.827766e-03     5.465766e-02    -1.7133e-02      0.351 (TRAH MIcro)
    0     dE    -4.341732e-03     1.538109e-02    -2.2375e-02      0.400 (TRAH MIcro)
    0     dE    -4.534491e-03     1.522087e-02    -2.3730e-02      0.400 (TRAH MIcro)
    0     dE    -4.671592e-03     7.186218e-03    -2.4907e-02      0.400 (TRAH MIcro)
    0     dE    -4.695609e-03     3.188964e-03    -2.5182e-02      0.400 (TRAH MIcro)
    0     dE    -4.707509e-03     2.033930e-03    -2.5381e-02      0.400 (TRAH MIcro)
    0     dE    -4.709490e-03     1.148655e-03    -2.5427e-02      0.400 (TRAH MIcro)
    0     dE    -4.710112e-03     4.326413e-04    -2.5445e-02      0.400 (TRAH MIcro)
    0     dE    -4.710263e-03     2.170040e-04    -2.5452e-02      0.400 (TRAH MIcro)
    1       -345.175522329109     6.633211e-02                     0.280 (TRAH MAcro)   No
    1     dE    -1.431669e-03     7.059822e-02    -1.4310e-03      0.022 (TRAH MIcro)
    1     dE    -2.354501e-03     1.560516e-02    -2.3490e-03      0.049 (TRAH MIcro)
    1     dE    -3.218628e-03     2.380254e-02    -3.1605e-03      0.136 (TRAH MIcro)
    1     dE    -3.721153e-03     8.334146e-03    -3.5582e-03      0.214 (TRAH MIcro)
    1     dE    -3.810483e-03     5.916958e-03    -3.6249e-03      0.226 (TRAH MIcro)
    2       -345.179734833097     9.800019e-03                     0.336 (TRAH MAcro)   No
    2     dE    -2.762218e-05     3.746550e-02    -2.7622e-05      0.003 (TRAH MIcro)
    2     dE    -1.310731e-04     3.586830e-02    -1.3091e-04      0.036 (TRAH MIcro)
    2     dE    -3.725243e-04     4.699250e-02    -3.6894e-04      0.099 (TRAH MIcro)
    2     dE    -5.070773e-04     1.284227e-02    -4.9634e-04      0.147 (TRAH MIcro)
    2     dE    -5.669639e-04     1.187277e-02    -5.5087e-04      0.171 (TRAH MIcro)
    2     dE    -5.842620e-04     2.282099e-03    -5.6649e-04      0.177 (TRAH MIcro)
    2     dE    -5.875260e-04     1.689516e-03    -5.6942e-04      0.178 (TRAH MIcro)
    2     dE    -5.918002e-04     2.128895e-03    -5.7293e-04      0.182 (TRAH MIcro)
    2     dE    -5.980794e-04     1.837079e-03    -5.7793e-04      0.187 (TRAH MIcro)
    2     dE    -6.010716e-04     1.190808e-03    -5.8023e-04      0.190 (TRAH MIcro)
    2     dE    -6.023399e-04     5.157720e-04    -5.8112e-04      0.191 (TRAH MIcro)
    3       -345.180344447939     3.659867e-03                     0.403 (TRAH MAcro)   No
    3     dE    -4.815183e-06     7.105052e-03    -4.8152e-06      0.001 (TRAH MIcro)
    3     dE    -1.169881e-05     2.330386e-03    -1.1698e-05      0.008 (TRAH MIcro)
    3     dE    -1.482357e-05     4.100973e-03    -1.4822e-05      0.011 (TRAH MIcro)
    3     dE    -1.854655e-05     1.895881e-03    -1.8540e-05      0.019 (TRAH MIcro)
    3     dE    -2.199624e-05     2.252653e-03    -2.1976e-05      0.031 (TRAH MIcro)
    3     dE    -2.701226e-05     1.586935e-03    -2.6948e-05      0.049 (TRAH MIcro)
    3     dE    -2.884361e-05     1.040342e-03    -2.8753e-05      0.056 (TRAH MIcro)
    3     dE    -3.023205e-05     7.654990e-04    -3.0115e-05      0.062 (TRAH MIcro)
    3     dE    -3.054277e-05     4.527469e-04    -3.0419e-05      0.064 (TRAH MIcro)
    3     dE    -3.074508e-05     3.042673e-04    -3.0617e-05      0.065 (TRAH MIcro)
    4       -345.180378230827     1.153488e-03                     0.484 (TRAH MAcro)   No
    4     dE    -3.036151e-07     4.892461e-03    -3.0362e-07      0.000 (TRAH MIcro)
    4     dE    -7.348671e-07     9.017485e-04    -7.3487e-07      0.001 (TRAH MIcro)
    4     dE    -9.709928e-07     6.765106e-04    -9.7099e-07      0.002 (TRAH MIcro)
    4     dE    -1.252981e-06     5.352290e-04    -1.2530e-06      0.004 (TRAH MIcro)
    4     dE    -1.422091e-06     4.399519e-04    -1.4220e-06      0.007 (TRAH MIcro)
    4     dE    -1.659976e-06     6.774600e-04    -1.6598e-06      0.010 (TRAH MIcro)
    4     dE    -1.911422e-06     2.753287e-04    -1.9110e-06      0.015 (TRAH MIcro)
    4     dE    -1.956881e-06     1.500748e-04    -1.9564e-06      0.016 (TRAH MIcro)
    4     dE    -1.975253e-06     7.920910e-05    -1.9747e-06      0.016 (TRAH MIcro)
    5       -345.180380305277     1.104527e-04                           (NR   MAcro)
    5     dE    -5.603084e-09     6.690227e-05                           (NR   MIcro)
    5     dE    -9.304256e-09     4.461312e-05                           (NR   MIcro)
    5     dE    -1.337333e-08     4.587203e-05                           (NR   MIcro)
    5     dE    -1.571030e-08     3.931828e-05                           (NR   MIcro)
    5     dE    -1.888893e-08     5.433445e-05                           (NR   MIcro)
    5     dE    -2.197300e-08     3.963963e-05                           (NR   MIcro)
    5     dE    -2.328153e-08     2.586750e-05                           (NR   MIcro)
    5     dE    -2.409524e-08     2.325564e-05                           (NR   MIcro)
    5     dE    -2.466583e-08     1.483778e-05                           (NR   MIcro)
    5     dE    -2.494250e-08     1.350188e-05                           (NR   MIcro)
    5     dE    -2.509892e-08     9.787425e-06                           (NR   MIcro)
    5     dE    -2.516180e-08     4.821650e-06                           (NR   MIcro)
    5     dE    -2.517694e-08     2.581041e-06                           (NR   MIcro)
    5     dE    -2.518132e-08     1.093093e-06                           (NR   MIcro)
    5     dE    -2.518211e-08     4.786612e-07                           (NR   MIcro)
    6       -345.180380329282     3.234317e-06                           (NR   MAcro)
    6     dE    -1.695569e-12     2.305471e-06                           (NR   MIcro)
    6     dE    -3.094155e-12     7.462031e-07                           (NR   MIcro)
    7       -345.180380329302     7.476707e-07                           (NR   MAcro)

               *****************************************************
               *                     SUCCESS                       *
               *           SCF CONVERGED AFTER  90 CYCLES          *
               *****************************************************

Old exchange energy                            =     -9.247006328 Eh
New exchange energy                            =     -9.247000888 Eh
Exchange energy change after final integration =      0.000005440 Eh
Total energy after final integration           =   -345.180374890 Eh
Final COS-X integration done in                =   555.859 sec

----------------
TOTAL SCF ENERGY
----------------

Total Energy       :         -345.18037489 Eh           -9392.83552 eV

Components:
Nuclear Repulsion  :          320.25466523 Eh            8714.57248 eV
Electronic Energy  :         -665.43504012 Eh          -18107.40800 eV
One Electron Energy:        -1089.53493177 Eh          -29647.75276 eV
Two Electron Energy:          424.09989165 Eh           11540.34475 eV
Max COSX asymmetry :            0.00000018 Eh               0.00000 eV

Virial components:
Potential Energy   :         -688.77204015 Eh          -18742.44006 eV
Kinetic Energy     :          343.59166526 Eh            9349.60454 eV
Virial Ratio       :            2.00462383


DFT components:
N(Alpha)           :       28.000008547424 electrons
N(Beta)            :       27.000006546223 electrons
N(Total)           :       55.000015093646 electrons
E(X)               :      -36.808940267172 Eh       
E(C)               :       -2.189991594733 Eh       
E(XC)              :      -38.998931861905 Eh       
DFET-embed. en.    :        0.000000000000 Eh       

---------------
SCF CONVERGENCE
---------------

  Last Energy change         ...   -2.0066e-11  Tolerance :   1.0000e-08
  Last Orbital Gradient      ...    7.4767e-07  Tolerance :   1.0000e-05
  Last Orbital Rotation      ...    2.3690e-06

             **** THE GBW FILE WAS UPDATED (kation.gbw) ****
             **** DENSITY kation.scfp WAS UPDATED ****
             **** ENERGY FILE WAS UPDATED (kation.en.tmp) ****
----------------------
UHF SPIN CONTAMINATION
----------------------

Warning: in a DFT calculation there is little theoretical justification to 
         calculate <S**2> as in Hartree-Fock theory. We will do it anyways
         but you should keep in mind that the values have only limited relevance

Expectation value of <S**2>     :     0.770293
Ideal value S*(S+1) for S=0.5   :     0.750000
Deviation                       :     0.020293

             **** THE GBW FILE WAS UPDATED (kation.gbw) ****
             **** DENSITY kation.scfp WAS UPDATED ****
----------------
ORBITAL ENERGIES
----------------
                 SPIN UP ORBITALS
  NO   OCC          E(Eh)            E(eV) 
   0   1.0000     -19.397116      -527.8224 
   1   1.0000     -10.490771      -285.4684 
   2   1.0000     -10.425326      -283.6876 
   3   1.0000     -10.412369      -283.3350 
   4   1.0000     -10.405236      -283.1409 
   5   1.0000     -10.404253      -283.1141 
   6   1.0000     -10.398810      -282.9660 
   7   1.0000     -10.384966      -282.5893 
   8   1.0000      -1.305464       -35.5235 
   9   1.0000      -1.081824       -29.4379 
  10   1.0000      -0.987649       -26.8753 
  11   1.0000      -0.963807       -26.2265 
  12   1.0000      -0.868744       -23.6397 
  13   1.0000      -0.824563       -22.4375 
  14   1.0000      -0.785780       -21.3822 
  15   1.0000      -0.735981       -20.0270 
  16   1.0000      -0.703277       -19.1371 
  17   1.0000      -0.680058       -18.5053 
  18   1.0000      -0.656566       -17.8661 
  19   1.0000      -0.647948       -17.6316 
  20   1.0000      -0.643579       -17.5127 
  21   1.0000      -0.628768       -17.1096 
  22   1.0000      -0.585923       -15.9438 
  23   1.0000      -0.572237       -15.5714 
  24   1.0000      -0.554734       -15.0951 
  25   1.0000      -0.520090       -14.1524 
  26   1.0000      -0.487350       -13.2615 
  27   1.0000      -0.469932       -12.7875 
  28   0.0000      -0.288572        -7.8524 
  29   0.0000      -0.223874        -6.0919 
  30   0.0000      -0.185375        -5.0443 
  31   0.0000      -0.127620        -3.4727 
  32   0.0000      -0.113153        -3.0791 
  33   0.0000      -0.095188        -2.5902 
  34   0.0000      -0.081135        -2.2078 
  35   0.0000      -0.077894        -2.1196 
  36   0.0000      -0.075239        -2.0473 
  37   0.0000      -0.068978        -1.8770 
  38   0.0000      -0.041687        -1.1344 
  39   0.0000      -0.040541        -1.1032 
  40   0.0000      -0.034107        -0.9281 
  41   0.0000      -0.006986        -0.1901 
  42   0.0000      -0.005579        -0.1518 
  43   0.0000      -0.002760        -0.0751 
  44   0.0000       0.009223         0.2510 
  45   0.0000       0.015021         0.4088 
  46   0.0000       0.020948         0.5700 
  47   0.0000       0.042215         1.1487 
  48   0.0000       0.049051         1.3348 
  49   0.0000       0.065680         1.7872 
  50   0.0000       0.066515         1.8100 
  51   0.0000       0.068833         1.8730 
  52   0.0000       0.081807         2.2261 
  53   0.0000       0.083776         2.2796 
  54   0.0000       0.098060         2.6683 
  55   0.0000       0.108725         2.9586 
  56   0.0000       0.115268         3.1366 
  57   0.0000       0.124972         3.4006 
  58   0.0000       0.131765         3.5855 
  59   0.0000       0.134702         3.6654 
  60   0.0000       0.154119         4.1938 
  61   0.0000       0.168016         4.5720 
  62   0.0000       0.172403         4.6913 
  63   0.0000       0.179768         4.8917 
  64   0.0000       0.186235         5.0677 
  65   0.0000       0.187565         5.1039 
  66   0.0000       0.198517         5.4019 
  67   0.0000       0.220468         5.9992 
  68   0.0000       0.222171         6.0456 
  69   0.0000       0.236492         6.4353 
  70   0.0000       0.258544         7.0354 
  71   0.0000       0.263236         7.1630 
  72   0.0000       0.277493         7.5510 
  73   0.0000       0.282076         7.6757 
  74   0.0000       0.295897         8.0518 
  75   0.0000       0.298209         8.1147 
  76   0.0000       0.302847         8.2409 
  77   0.0000       0.324284         8.8242 
  78   0.0000       0.332967         9.0605 
  79   0.0000       0.341311         9.2875 
  80   0.0000       0.347097         9.4450 
  81   0.0000       0.353840         9.6285 
  82   0.0000       0.359354         9.7785 
  83   0.0000       0.362016         9.8509 
  84   0.0000       0.383955        10.4480 
  85   0.0000       0.386490        10.5169 
  86   0.0000       0.390864        10.6359 
  87   0.0000       0.414746        11.2858 
  88   0.0000       0.445622        12.1260 
  89   0.0000       0.446927        12.1615 
  90   0.0000       0.461904        12.5691 
  91   0.0000       0.486881        13.2487 
  92   0.0000       0.488908        13.3039 
  93   0.0000       0.500851        13.6289 
  94   0.0000       0.514450        13.9989 
  95   0.0000       0.518356        14.1052 
  96   0.0000       0.521368        14.1871 
  97   0.0000       0.535349        14.5676 
  98   0.0000       0.539863        14.6904 
  99   0.0000       0.557960        15.1829 
 100   0.0000       0.573554        15.6072 
 101   0.0000       0.578768        15.7491 
 102   0.0000       0.578951        15.7540 
 103   0.0000       0.583741        15.8844 
 104   0.0000       0.617211        16.7952 
 105   0.0000       0.627134        17.0652 
 106   0.0000       0.635795        17.3009 
 107   0.0000       0.637299        17.3418 
 108   0.0000       0.650752        17.7079 
 109   0.0000       0.658483        17.9182 
 110   0.0000       0.676522        18.4091 
 111   0.0000       0.677535        18.4367 
 112   0.0000       0.695319        18.9206 
 113   0.0000       0.706143        19.2151 
 114   0.0000       0.719258        19.5720 
 115   0.0000       0.723989        19.7007 
 116   0.0000       0.727159        19.7870 
 117   0.0000       0.728881        19.8339 
 118   0.0000       0.738390        20.0926 
 119   0.0000       0.746998        20.3269 
 120   0.0000       0.760538        20.6953 
 121   0.0000       0.777037        21.1443 
 122   0.0000       0.804795        21.8996 
 123   0.0000       0.807411        21.9708 
 124   0.0000       0.826386        22.4871 
 125   0.0000       0.831408        22.6238 
 126   0.0000       0.833175        22.6718 
 127   0.0000       0.834954        22.7202 
 128   0.0000       0.843319        22.9479 
 129   0.0000       0.855755        23.2863 
 130   0.0000       0.874738        23.8028 
 131   0.0000       0.884657        24.0727 
 132   0.0000       0.923077        25.1182 
 133   0.0000       0.940689        25.5974 
 134   0.0000       0.943819        25.6826 
 135   0.0000       0.947485        25.7824 
 136   0.0000       0.958754        26.0890 
 137   0.0000       0.967740        26.3335 
 138   0.0000       0.969862        26.3913 
 139   0.0000       0.977986        26.6123 
 140   0.0000       1.048710        28.5368 
 141   0.0000       1.050648        28.5896 
 142   0.0000       1.061979        28.8979 
 143   0.0000       1.067445        29.0466 
 144   0.0000       1.087266        29.5860 
 145   0.0000       1.107073        30.1250 
 146   0.0000       1.128107        30.6974 
 147   0.0000       1.143840        31.1255 
 148   0.0000       1.157119        31.4868 
 149   0.0000       1.179470        32.0950 
 150   0.0000       1.188652        32.3449 
 151   0.0000       1.220112        33.2009 
 152   0.0000       1.236418        33.6447 
 153   0.0000       1.255626        34.1673 
 154   0.0000       1.262112        34.3438 
 155   0.0000       1.267494        34.4903 
 156   0.0000       1.310943        35.6726 
 157   0.0000       1.324632        36.0451 
 158   0.0000       1.347867        36.6773 
 159   0.0000       1.366834        37.1935 
 160   0.0000       1.376982        37.4696 
 161   0.0000       1.382387        37.6167 
 162   0.0000       1.382872        37.6299 
 163   0.0000       1.406884        38.2833 
 164   0.0000       1.431212        38.9453 
 165   0.0000       1.439969        39.1835 
 166   0.0000       1.440841        39.2073 
 167   0.0000       1.452059        39.5125 
 168   0.0000       1.472482        40.0683 
 169   0.0000       1.488235        40.4969 
 170   0.0000       1.501379        40.8546 
 171   0.0000       1.537530        41.8383 
 172   0.0000       1.551803        42.2267 
 173   0.0000       1.558589        42.4114 
 174   0.0000       1.559080        42.4247 
 175   0.0000       1.590629        43.2832 
 176   0.0000       1.593811        43.3698 
 177   0.0000       1.611904        43.8621 
 178   0.0000       1.614942        43.9448 
 179   0.0000       1.635804        44.5125 
 180   0.0000       1.637696        44.5640 
 181   0.0000       1.658653        45.1343 
 182   0.0000       1.661352        45.2077 
 183   0.0000       1.701543        46.3013 
 184   0.0000       1.707060        46.4515 
 185   0.0000       1.717326        46.7308 
 186   0.0000       1.734594        47.2007 
 187   0.0000       1.739594        47.3368 
 188   0.0000       1.743056        47.4310 
 189   0.0000       1.748961        47.5917 
 190   0.0000       1.759550        47.8798 
 191   0.0000       1.772745        48.2388 
 192   0.0000       1.789424        48.6927 
 193   0.0000       1.793642        48.8075 
 194   0.0000       1.801992        49.0347 
 195   0.0000       1.809899        49.2499 
 196   0.0000       1.828909        49.7671 
 197   0.0000       1.841597        50.1124 
 198   0.0000       1.843395        50.1613 
 199   0.0000       1.868968        50.8572 
 200   0.0000       1.891829        51.4793 
 201   0.0000       1.894230        51.5446 
 202   0.0000       1.908478        51.9323 
 203   0.0000       1.913476        52.0683 
 204   0.0000       1.945855        52.9494 
 205   0.0000       1.949637        53.0523 
 206   0.0000       1.962840        53.4116 
 207   0.0000       1.969261        53.5863 
 208   0.0000       1.977969        53.8233 
 209   0.0000       2.004335        54.5407 
 210   0.0000       2.007841        54.6361 
 211   0.0000       2.031608        55.2829 
 212   0.0000       2.036839        55.4252 
 213   0.0000       2.052748        55.8581 
 214   0.0000       2.060088        56.0578 
 215   0.0000       2.063119        56.1403 
 216   0.0000       2.072335        56.3911 
 217   0.0000       2.087711        56.8095 
 218   0.0000       2.091608        56.9156 
 219   0.0000       2.110292        57.4240 
 220   0.0000       2.125999        57.8514 
 221   0.0000       2.152296        58.5669 
 222   0.0000       2.161452        58.8161 
 223   0.0000       2.164528        58.8998 
 224   0.0000       2.191772        59.6412 
 225   0.0000       2.202267        59.9267 
 226   0.0000       2.217669        60.3459 
 227   0.0000       2.226088        60.5749 
 228   0.0000       2.239515        60.9403 
 229   0.0000       2.249846        61.2214 
 230   0.0000       2.258645        61.4608 
 231   0.0000       2.263682        61.5979 
 232   0.0000       2.268461        61.7280 
 233   0.0000       2.291228        62.3475 
 234   0.0000       2.312540        62.9274 
 235   0.0000       2.315934        63.0198 
 236   0.0000       2.323687        63.2307 
 237   0.0000       2.336896        63.5902 
 238   0.0000       2.342892        63.7533 
 239   0.0000       2.352328        64.0101 
 240   0.0000       2.354580        64.0714 
 241   0.0000       2.362158        64.2776 
 242   0.0000       2.369922        64.4889 
 243   0.0000       2.403882        65.4130 
 244   0.0000       2.431389        66.1615 
 245   0.0000       2.431555        66.1660 
 246   0.0000       2.434082        66.2347 
 247   0.0000       2.437605        66.3306 
 248   0.0000       2.454950        66.8026 
 249   0.0000       2.462822        67.0168 
 250   0.0000       2.490503        67.7700 
 251   0.0000       2.500779        68.0497 
 252   0.0000       2.510861        68.3240 
 253   0.0000       2.532168        68.9038 
 254   0.0000       2.544910        69.2505 
 255   0.0000       2.552810        69.4655 
 256   0.0000       2.567805        69.8735 
 257   0.0000       2.573513        70.0288 
 258   0.0000       2.598742        70.7154 
 259   0.0000       2.600140        70.7534 
 260   0.0000       2.604444        70.8705 
 261   0.0000       2.625254        71.4368 
 262   0.0000       2.637346        71.7658 
 263   0.0000       2.657900        72.3251 
 264   0.0000       2.683292        73.0161 
 265   0.0000       2.702210        73.5309 
 266   0.0000       2.744049        74.6694 
 267   0.0000       2.752215        74.8916 
 268   0.0000       2.759309        75.0846 
 269   0.0000       2.793407        76.0125 
 270   0.0000       2.812742        76.5386 
 271   0.0000       2.817325        76.6633 
 272   0.0000       2.849268        77.5325 
 273   0.0000       2.874691        78.2243 
 274   0.0000       2.890511        78.6548 
 275   0.0000       2.899279        78.8934 
 276   0.0000       2.914040        79.2951 
 277   0.0000       2.966245        80.7156 
 278   0.0000       2.967454        80.7485 
 279   0.0000       2.983062        81.1732 
 280   0.0000       3.004229        81.7492 
 281   0.0000       3.027848        82.3919 
 282   0.0000       3.031094        82.4803 
 283   0.0000       3.064875        83.3995 
 284   0.0000       3.112901        84.7063 
 285   0.0000       3.133358        85.2630 
 286   0.0000       3.140064        85.4455 
 287   0.0000       3.153190        85.8027 
 288   0.0000       3.165219        86.1300 
 289   0.0000       3.178165        86.4823 
 290   0.0000       3.209900        87.3458 
 291   0.0000       3.213569        87.4457 
 292   0.0000       3.244643        88.2912 
 293   0.0000       3.250317        88.4456 
 294   0.0000       3.272839        89.0585 
 295   0.0000       3.283641        89.3524 
 296   0.0000       3.288254        89.4779 
 297   0.0000       3.293462        89.6197 
 298   0.0000       3.310197        90.0750 
 299   0.0000       3.343642        90.9851 
 300   0.0000       3.366451        91.6058 
 301   0.0000       3.392198        92.3064 
 302   0.0000       3.409628        92.7807 
 303   0.0000       3.435885        93.4952 
 304   0.0000       3.478499        94.6548 
 305   0.0000       3.493836        95.0721 
 306   0.0000       3.508938        95.4831 
 307   0.0000       3.574927        97.2787 
 308   0.0000       3.591917        97.7410 
 309   0.0000       3.627980        98.7224 
 310   0.0000       3.628257        98.7299 
 311   0.0000       3.665772        99.7507 
 312   0.0000       3.672700        99.9393 
 313   0.0000       3.713419       101.0473 
 314   0.0000       3.744816       101.9016 
 315   0.0000       3.750739       102.0628 
 316   0.0000       3.834546       104.3433 
 317   0.0000       3.845068       104.6296 
 318   0.0000       3.869984       105.3076 
 319   0.0000       3.887443       105.7827 
 320   0.0000       3.910826       106.4190 
 321   0.0000       3.920354       106.6783 
 322   0.0000       3.947624       107.4203 
 323   0.0000       3.972155       108.0878 
 324   0.0000       3.997549       108.7788 
 325   0.0000       4.067179       110.6736 
 326   0.0000       4.071221       110.7836 
 327   0.0000       4.086440       111.1977 
 328   0.0000       4.127540       112.3161 
 329   0.0000       4.247389       115.5773 
 330   0.0000       4.260713       115.9399 
 331   0.0000       4.271017       116.2203 
 332   0.0000       4.301986       117.0630 
 333   0.0000       4.323519       117.6489 
 334   0.0000       4.351754       118.4172 
 335   0.0000       4.411320       120.0381 
 336   0.0000       4.452014       121.1455 
 337   0.0000       4.516162       122.8910 
 338   0.0000       4.524893       123.1286 
 339   0.0000       4.537670       123.4763 
 340   0.0000       4.577485       124.5597 
 341   0.0000       4.610868       125.4681 
 342   0.0000       4.640026       126.2615 
 343   0.0000       4.651311       126.5686 
 344   0.0000       4.654442       126.6538 
 345   0.0000       4.707629       128.1011 
 346   0.0000       4.723429       128.5310 
 347   0.0000       4.749862       129.2503 
 348   0.0000       4.770735       129.8183 
 349   0.0000       4.796227       130.5120 
 350   0.0000       4.797967       130.5593 
 351   0.0000       4.814597       131.0118 
 352   0.0000       4.839757       131.6965 
 353   0.0000       4.860710       132.2666 
 354   0.0000       4.883822       132.8956 
 355   0.0000       4.921935       133.9327 
 356   0.0000       4.947766       134.6356 
 357   0.0000       4.959283       134.9490 
 358   0.0000       4.971907       135.2925 
 359   0.0000       5.003638       136.1559 
 360   0.0000       5.008607       136.2911 
 361   0.0000       5.020033       136.6020 
 362   0.0000       5.030027       136.8740 
 363   0.0000       5.043347       137.2364 
 364   0.0000       5.084552       138.3577 
 365   0.0000       5.117550       139.2556 
 366   0.0000       5.133304       139.6843 
 367   0.0000       5.160671       140.4290 
 368   0.0000       5.171094       140.7126 
 369   0.0000       5.176191       140.8513 
 370   0.0000       5.187362       141.1553 
 371   0.0000       5.226437       142.2186 
 372   0.0000       5.255784       143.0172 
 373   0.0000       5.275752       143.5605 
 374   0.0000       5.279129       143.6524 
 375   0.0000       5.311042       144.5208 
 376   0.0000       5.322822       144.8414 
 377   0.0000       5.345378       145.4551 
 378   0.0000       5.351219       145.6141 
 379   0.0000       5.379012       146.3703 
 380   0.0000       5.380244       146.4039 
 381   0.0000       5.396167       146.8372 
 382   0.0000       5.451324       148.3381 
 383   0.0000       5.464055       148.6845 
 384   0.0000       5.484582       149.2431 
 385   0.0000       5.505284       149.8064 
 386   0.0000       5.519365       150.1896 
 387   0.0000       5.548927       150.9940 
 388   0.0000       5.575644       151.7210 
 389   0.0000       5.602589       152.4542 
 390   0.0000       5.621833       152.9778 
 391   0.0000       5.635360       153.3460 
 392   0.0000       5.636623       153.3803 
 393   0.0000       5.660670       154.0346 
 394   0.0000       5.675819       154.4469 
 395   0.0000       5.682924       154.6402 
 396   0.0000       5.685690       154.7155 
 397   0.0000       5.696964       155.0223 
 398   0.0000       5.734304       156.0384 
 399   0.0000       5.745911       156.3542 
 400   0.0000       5.753729       156.5669 
 401   0.0000       5.759296       156.7184 
 402   0.0000       5.777086       157.2025 
 403   0.0000       5.798883       157.7956 
 404   0.0000       5.809649       158.0886 
 405   0.0000       5.827156       158.5650 
 406   0.0000       5.835393       158.7891 
 407   0.0000       5.841255       158.9486 
 408   0.0000       5.864801       159.5893 
 409   0.0000       5.867235       159.6556 
 410   0.0000       5.890432       160.2868 
 411   0.0000       5.908195       160.7702 
 412   0.0000       5.919527       161.0785 
 413   0.0000       5.928842       161.3320 
 414   0.0000       5.938277       161.5887 
 415   0.0000       5.946631       161.8160 
 416   0.0000       5.957748       162.1186 
 417   0.0000       5.972254       162.5133 
 418   0.0000       5.988384       162.9522 
 419   0.0000       5.995529       163.1466 
 420   0.0000       6.005490       163.4177 
 421   0.0000       6.014438       163.6612 
 422   0.0000       6.031569       164.1273 
 423   0.0000       6.041344       164.3933 
 424   0.0000       6.046040       164.5211 
 425   0.0000       6.056105       164.7950 
 426   0.0000       6.069515       165.1599 
 427   0.0000       6.088220       165.6689 
 428   0.0000       6.101069       166.0185 
 429   0.0000       6.105781       166.1467 
 430   0.0000       6.115567       166.4130 
 431   0.0000       6.125749       166.6901 
 432   0.0000       6.153708       167.4509 
 433   0.0000       6.184773       168.2962 
 434   0.0000       6.202187       168.7701 
 435   0.0000       6.208907       168.9530 
 436   0.0000       6.218743       169.2206 
 437   0.0000       6.226892       169.4423 
 438   0.0000       6.234151       169.6399 
 439   0.0000       6.249572       170.0595 
 440   0.0000       6.287135       171.0816 
 441   0.0000       6.324005       172.0849 
 442   0.0000       6.336958       172.4374 
 443   0.0000       6.340637       172.5375 
 444   0.0000       6.350282       172.8000 
 445   0.0000       6.361183       173.0966 
 446   0.0000       6.369426       173.3209 
 447   0.0000       6.399876       174.1495 
 448   0.0000       6.409212       174.4035 
 449   0.0000       6.410047       174.4262 
 450   0.0000       6.415753       174.5815 
 451   0.0000       6.436829       175.1550 
 452   0.0000       6.462699       175.8590 
 453   0.0000       6.464129       175.8979 
 454   0.0000       6.490642       176.6194 
 455   0.0000       6.501360       176.9110 
 456   0.0000       6.520447       177.4304 
 457   0.0000       6.537607       177.8973 
 458   0.0000       6.565137       178.6465 
 459   0.0000       6.588873       179.2923 
 460   0.0000       6.597345       179.5229 
 461   0.0000       6.643757       180.7858 
 462   0.0000       6.659459       181.2131 
 463   0.0000       6.712283       182.6505 
 464   0.0000       6.719348       182.8427 
 465   0.0000       6.729916       183.1303 
 466   0.0000       6.737002       183.3231 
 467   0.0000       6.738697       183.3693 
 468   0.0000       6.816229       185.4790 
 469   0.0000       6.821945       185.6345 
 470   0.0000       6.826072       185.7469 
 471   0.0000       6.836611       186.0336 
 472   0.0000       6.883409       187.3071 
 473   0.0000       6.919481       188.2887 
 474   0.0000       6.926775       188.4871 
 475   0.0000       6.961135       189.4221 
 476   0.0000       7.031123       191.3266 
 477   0.0000       7.060137       192.1161 
 478   0.0000       7.108753       193.4390 
 479   0.0000       7.118261       193.6977 
 480   0.0000       7.123942       193.8523 
 481   0.0000       7.139974       194.2886 
 482   0.0000       7.186555       195.5561 
 483   0.0000       7.197951       195.8662 
 484   0.0000       7.223634       196.5651 
 485   0.0000       7.233546       196.8348 
 486   0.0000       7.243165       197.0965 
 487   0.0000       7.250694       197.3014 
 488   0.0000       7.263294       197.6443 
 489   0.0000       7.294545       198.4947 
 490   0.0000       7.303122       198.7281 
 491   0.0000       7.317133       199.1093 
 492   0.0000       7.329951       199.4581 
 493   0.0000       7.332347       199.5233 
 494   0.0000       7.351677       200.0493 
 495   0.0000       7.352190       200.0633 
 496   0.0000       7.428639       202.1435 
 497   0.0000       7.463063       203.0803 
 498   0.0000       7.471381       203.3066 
 499   0.0000       7.513034       204.4401 
 500   0.0000       7.527859       204.8435 
 501   0.0000       7.549911       205.4435 
 502   0.0000       7.578924       206.2330 
 503   0.0000       7.623502       207.4460 
 504   0.0000       7.648751       208.1331 
 505   0.0000       7.656017       208.3308 
 506   0.0000       7.678704       208.9482 
 507   0.0000       7.702221       209.5881 
 508   0.0000       7.725299       210.2161 
 509   0.0000       7.731863       210.3947 
 510   0.0000       7.752354       210.9523 
 511   0.0000       7.762870       211.2384 
 512   0.0000       7.815275       212.6644 
 513   0.0000       7.844958       213.4722 
 514   0.0000       7.860229       213.8877 
 515   0.0000       7.890854       214.7211 
 516   0.0000       7.892465       214.7649 
 517   0.0000       7.924459       215.6355 
 518   0.0000       7.941076       216.0877 
 519   0.0000       7.948078       216.2782 
 520   0.0000       7.970330       216.8837 
 521   0.0000       7.990555       217.4341 
 522   0.0000       8.002612       217.7622 
 523   0.0000       8.017892       218.1779 
 524   0.0000       8.049056       219.0259 
 525   0.0000       8.056815       219.2371 
 526   0.0000       8.057212       219.2479 
 527   0.0000       8.063454       219.4177 
 528   0.0000       8.070651       219.6136 
 529   0.0000       8.110612       220.7010 
 530   0.0000       8.117110       220.8778 
 531   0.0000       8.149252       221.7524 
 532   0.0000       8.155545       221.9237 
 533   0.0000       8.166799       222.2299 
 534   0.0000       8.182072       222.6455 
 535   0.0000       8.193898       222.9673 
 536   0.0000       8.221468       223.7175 
 537   0.0000       8.224562       223.8017 
 538   0.0000       8.234168       224.0631 
 539   0.0000       8.243293       224.3114 
 540   0.0000       8.277980       225.2553 
 541   0.0000       8.310329       226.1355 
 542   0.0000       8.319954       226.3975 
 543   0.0000       8.337027       226.8620 
 544   0.0000       8.404429       228.6962 
 545   0.0000       8.413858       228.9527 
 546   0.0000       8.448528       229.8961 
 547   0.0000       8.449358       229.9187 
 548   0.0000       8.458313       230.1624 
 549   0.0000       8.509917       231.5666 
 550   0.0000       8.538240       232.3373 
 551   0.0000       8.558734       232.8950 
 552   0.0000       8.592426       233.8118 
 553   0.0000       8.609628       234.2799 
 554   0.0000       8.616082       234.4555 
 555   0.0000       8.630572       234.8498 
 556   0.0000       8.667041       235.8422 
 557   0.0000       8.697461       236.6699 
 558   0.0000       8.712933       237.0910 
 559   0.0000       8.756836       238.2856 
 560   0.0000       8.811804       239.7814 
 561   0.0000       8.846405       240.7229 
 562   0.0000       8.882241       241.6981 
 563   0.0000       8.934969       243.1329 
 564   0.0000       9.137643       248.6479 
 565   0.0000       9.164834       249.3878 
 566   0.0000       9.251665       251.7506 
 567   0.0000       9.266750       252.1611 
 568   0.0000       9.333714       253.9833 
 569   0.0000       9.367675       254.9074 
 570   0.0000       9.399987       255.7866 
 571   0.0000       9.424000       256.4401 
 572   0.0000       9.458383       257.3757 
 573   0.0000       9.464432       257.5403 
 574   0.0000       9.488760       258.2023 
 575   0.0000       9.508045       258.7271 
 576   0.0000       9.540631       259.6138 
 577   0.0000       9.573271       260.5019 
 578   0.0000       9.586091       260.8508 
 579   0.0000       9.633446       262.1394 
 580   0.0000       9.645099       262.4565 
 581   0.0000       9.738804       265.0063 
 582   0.0000       9.764496       265.7054 
 583   0.0000       9.794767       266.5292 
 584   0.0000       9.819618       267.2054 
 585   0.0000       9.838167       267.7101 
 586   0.0000       9.873943       268.6836 
 587   0.0000       9.937098       270.4022 
 588   0.0000      10.006397       272.2879 
 589   0.0000      10.008084       272.3338 
 590   0.0000      10.025264       272.8013 
 591   0.0000      10.060883       273.7705 
 592   0.0000      10.083715       274.3918 
 593   0.0000      10.264759       279.3183 
 594   0.0000      10.436990       284.0049 
 595   0.0000      10.450961       284.3851 
 596   0.0000      10.462455       284.6979 
 597   0.0000      10.618151       288.9346 
 598   0.0000      10.671399       290.3835 
 599   0.0000      10.737516       292.1827 
 600   0.0000      10.739606       292.2395 
 601   0.0000      10.842236       295.0322 
 602   0.0000      11.163965       303.7869 
 603   0.0000      11.300027       307.4894 
 604   0.0000      11.454735       311.6992 
 605   0.0000      11.559859       314.5598 
 606   0.0000      11.621705       316.2427 
 607   0.0000      11.829141       321.8873 
 608   0.0000      11.852732       322.5292 
 609   0.0000      11.883313       323.3614 
 610   0.0000      12.014335       326.9267 
 611   0.0000      12.143766       330.4487 
 612   0.0000      12.367573       336.5388 
 613   0.0000      12.480960       339.6242 
 614   0.0000      12.660218       344.5020 
 615   0.0000      12.872747       350.2853 
 616   0.0000      12.912669       351.3716 
 617   0.0000      13.238695       360.2432 
 618   0.0000      13.869059       377.3963 
 619   0.0000      14.212773       386.7492 
 620   0.0000      27.626172       751.7464 
 621   0.0000      28.098870       764.6091 
 622   0.0000      28.262761       769.0688 
 623   0.0000      28.272895       769.3446 
 624   0.0000      28.645296       779.4781 
 625   0.0000      28.753088       782.4113 
 626   0.0000      29.070222       791.0410 
 627   0.0000      47.889194      1303.1312 
 628   0.0000     146.699898      3991.9072 
 629   0.0000     147.147173      4004.0781 
 630   0.0000     147.273795      4007.5237 
 631   0.0000     147.307030      4008.4281 
 632   0.0000     147.648024      4017.7070 
 633   0.0000     147.757086      4020.6747 
 634   0.0000     148.099820      4030.0010 
 635   0.0000     252.924269      6882.4193 

                 SPIN DOWN ORBITALS
  NO   OCC          E(Eh)            E(eV) 
   0   1.0000     -19.385147      -527.4967 
   1   1.0000     -10.492062      -285.5035 
   2   1.0000     -10.422116      -283.6002 
   3   1.0000     -10.409586      -283.2592 
   4   1.0000     -10.402871      -283.0765 
   5   1.0000     -10.402186      -283.0579 
   6   1.0000     -10.399748      -282.9915 
   7   1.0000     -10.385627      -282.6073 
   8   1.0000      -1.282467       -34.8977 
   9   1.0000      -1.075115       -29.2554 
  10   1.0000      -0.978467       -26.6254 
  11   1.0000      -0.959426       -26.1073 
  12   1.0000      -0.861242       -23.4356 
  13   1.0000      -0.820411       -22.3245 
  14   1.0000      -0.778484       -21.1836 
  15   1.0000      -0.726476       -19.7684 
  16   1.0000      -0.692749       -18.8507 
  17   1.0000      -0.671680       -18.2773 
  18   1.0000      -0.649193       -17.6654 
  19   1.0000      -0.642605       -17.4862 
  20   1.0000      -0.630752       -17.1636 
  21   1.0000      -0.627564       -17.0769 
  22   1.0000      -0.569115       -15.4864 
  23   1.0000      -0.566610       -15.4182 
  24   1.0000      -0.552680       -15.0392 
  25   1.0000      -0.471111       -12.8196 
  26   1.0000      -0.458455       -12.4752 
  27   0.0000      -0.417306       -11.3555 
  28   0.0000      -0.277522        -7.5517 
  29   0.0000      -0.214230        -5.8295 
  30   0.0000      -0.173983        -4.7343 
  31   0.0000      -0.126557        -3.4438 
  32   0.0000      -0.111907        -3.0452 
  33   0.0000      -0.094039        -2.5589 
  34   0.0000      -0.080046        -2.1782 
  35   0.0000      -0.077226        -2.1014 
  36   0.0000      -0.067899        -1.8476 
  37   0.0000      -0.066796        -1.8176 
  38   0.0000      -0.039926        -1.0864 
  39   0.0000      -0.036661        -0.9976 
  40   0.0000      -0.032270        -0.8781 
  41   0.0000      -0.005186        -0.1411 
  42   0.0000      -0.004153        -0.1130 
  43   0.0000      -0.000951        -0.0259 
  44   0.0000       0.010133         0.2757 
  45   0.0000       0.017077         0.4647 
  46   0.0000       0.022355         0.6083 
  47   0.0000       0.043950         1.1960 
  48   0.0000       0.050876         1.3844 
  49   0.0000       0.068117         1.8536 
  50   0.0000       0.068176         1.8552 
  51   0.0000       0.071858         1.9554 
  52   0.0000       0.084427         2.2974 
  53   0.0000       0.085365         2.3229 
  54   0.0000       0.101232         2.7547 
  55   0.0000       0.110048         2.9946 
  56   0.0000       0.118183         3.2159 
  57   0.0000       0.129492         3.5237 
  58   0.0000       0.134113         3.6494 
  59   0.0000       0.137053         3.7294 
  60   0.0000       0.155524         4.2320 
  61   0.0000       0.169897         4.6231 
  62   0.0000       0.174396         4.7456 
  63   0.0000       0.181416         4.9366 
  64   0.0000       0.188407         5.1268 
  65   0.0000       0.189591         5.1590 
  66   0.0000       0.202095         5.4993 
  67   0.0000       0.221234         6.0201 
  68   0.0000       0.224267         6.1026 
  69   0.0000       0.238074         6.4783 
  70   0.0000       0.260735         7.0950 
  71   0.0000       0.264385         7.1943 
  72   0.0000       0.279610         7.6086 
  73   0.0000       0.283559         7.7160 
  74   0.0000       0.298335         8.1181 
  75   0.0000       0.300087         8.1658 
  76   0.0000       0.304076         8.2743 
  77   0.0000       0.325490         8.8570 
  78   0.0000       0.336145         9.1470 
  79   0.0000       0.343635         9.3508 
  80   0.0000       0.348948         9.4954 
  81   0.0000       0.354978         9.6594 
  82   0.0000       0.361475         9.8362 
  83   0.0000       0.364042         9.9061 
  84   0.0000       0.386111        10.5066 
  85   0.0000       0.389614        10.6019 
  86   0.0000       0.393376        10.7043 
  87   0.0000       0.418552        11.3894 
  88   0.0000       0.449025        12.2186 
  89   0.0000       0.449799        12.2397 
  90   0.0000       0.463992        12.6259 
  91   0.0000       0.489172        13.3110 
  92   0.0000       0.491051        13.3622 
  93   0.0000       0.503686        13.7060 
  94   0.0000       0.517457        14.0807 
  95   0.0000       0.520177        14.1547 
  96   0.0000       0.524584        14.2747 
  97   0.0000       0.537078        14.6146 
  98   0.0000       0.540713        14.7135 
  99   0.0000       0.559804        15.2330 
 100   0.0000       0.579496        15.7689 
 101   0.0000       0.580738        15.8027 
 102   0.0000       0.582959        15.8631 
 103   0.0000       0.585661        15.9367 
 104   0.0000       0.618110        16.8196 
 105   0.0000       0.628500        17.1024 
 106   0.0000       0.638578        17.3766 
 107   0.0000       0.641843        17.4654 
 108   0.0000       0.651466        17.7273 
 109   0.0000       0.661082        17.9890 
 110   0.0000       0.679033        18.4774 
 111   0.0000       0.680003        18.5038 
 112   0.0000       0.696247        18.9458 
 113   0.0000       0.707258        19.2455 
 114   0.0000       0.720935        19.6176 
 115   0.0000       0.725045        19.7295 
 116   0.0000       0.730102        19.8671 
 117   0.0000       0.731603        19.9079 
 118   0.0000       0.740484        20.1496 
 119   0.0000       0.751692        20.4546 
 120   0.0000       0.763244        20.7689 
 121   0.0000       0.779627        21.2147 
 122   0.0000       0.806970        21.9588 
 123   0.0000       0.809750        22.0344 
 124   0.0000       0.828254        22.5379 
 125   0.0000       0.834777        22.7154 
 126   0.0000       0.835553        22.7366 
 127   0.0000       0.838147        22.8071 
 128   0.0000       0.845694        23.0125 
 129   0.0000       0.857528        23.3345 
 130   0.0000       0.877243        23.8710 
 131   0.0000       0.889073        24.1929 
 132   0.0000       0.924943        25.1690 
 133   0.0000       0.942523        25.6474 
 134   0.0000       0.948433        25.8082 
 135   0.0000       0.949301        25.8318 
 136   0.0000       0.960211        26.1287 
 137   0.0000       0.969574        26.3834 
 138   0.0000       0.972786        26.4709 
 139   0.0000       0.980341        26.6764 
 140   0.0000       1.050492        28.5854 
 141   0.0000       1.053883        28.6776 
[...]
      dz2     :     0.004828  d :     0.061895
      dxz     :     0.012704
      dyz     :     0.006521
      dx2y2   :     0.022216
      dxy     :     0.015626
      f0      :     0.000971  f :     0.009071
      f+1     :     0.000733
      f-1     :     0.000484
      f+2     :     0.000195
      f-2     :     0.001439
      f+3     :     0.003162
      f-3     :     0.002087
  8 H s       :     0.772779  s :     0.772779
      pz      :     0.038987  p :     0.176842
      px      :     0.040558
      py      :     0.097297
      dz2     :     0.004881  d :     0.060561
      dxz     :     0.000392
      dyz     :     0.016335
      dx2y2   :     0.015343
      dxy     :     0.023610
      f0      :     0.000840  f :     0.008912
      f+1     :     0.000245
      f-1     :     0.000984
      f+2     :     0.001348
      f-2     :     0.000082
      f+3     :     0.003296
      f-3     :     0.002116
  9 H s       :     0.772474  s :     0.772474
      pz      :     0.041022  p :     0.177932
      px      :     0.087128
      py      :     0.049782
      dz2     :     0.004872  d :     0.060947
      dxz     :     0.014034
      dyz     :     0.003434
      dx2y2   :     0.020134
      dxy     :     0.018473
      f0      :     0.000881  f :     0.008987
      f+1     :     0.000857
      f-1     :     0.000373
      f+2     :     0.000602
      f-2     :     0.000895
      f+3     :     0.003271
      f-3     :     0.002106
 10 H s       :     0.772662  s :     0.772662
      pz      :     0.046944  p :     0.181472
      px      :     0.076244
      py      :     0.058284
      dz2     :     0.004855  d :     0.061963
      dxz     :     0.012649
      dyz     :     0.006415
      dx2y2   :     0.022484
      dxy     :     0.015560
      f0      :     0.000952  f :     0.009025
      f+1     :     0.000729
      f-1     :     0.000480
      f+2     :     0.000199
      f-2     :     0.001416
      f+3     :     0.003188
      f-3     :     0.002060
 11 C s       :     2.648302  s :     2.648302
      pz      :     0.613575  p :     2.556617
      px      :     0.973341
      py      :     0.969700
      dz2     :     0.060397  d :     0.737716
      dxz     :     0.079741
      dyz     :     0.086649
      dx2y2   :     0.253392
      dxy     :     0.257536
      f0      :     0.013437  f :     0.203418
      f+1     :     0.016664
      f-1     :     0.010472
      f+2     :     0.019400
      f-2     :     0.022368
      f+3     :     0.080931
      f-3     :     0.040147
      g0      :     0.000980  g :     0.032716
      g+1     :     0.004795
      g-1     :     0.002336
      g+2     :     0.002827
      g-2     :     0.002905
      g+3     :     0.000067
      g-3     :     0.003570
      g+4     :     0.008849
      g-4     :     0.006385
 12 O s       :     3.278875  s :     3.278875
      pz      :     1.227601  p :     4.056540
      px      :     1.468901
      py      :     1.360037
      dz2     :     0.010195  d :     0.100643
      dxz     :     0.013312
      dyz     :     0.005670
      dx2y2   :     0.037101
      dxy     :     0.034366
      f0      :     0.001617  f :     0.021417
      f+1     :     0.001980
      f-1     :     0.001102
      f+2     :     0.000593
      f-2     :     0.002228
      f+3     :     0.009333
      f-3     :     0.004563
      g0      :     0.000053  g :     0.001254
      g+1     :     0.000103
      g-1     :     0.000036
      g+2     :     0.000088
      g-2     :     0.000112
      g+3     :     0.000001
      g-3     :     0.000109
      g+4     :     0.000450
      g-4     :     0.000302
 13 H s       :     0.774790  s :     0.774790
      pz      :     0.027936  p :     0.167187
      px      :     0.088785
      py      :     0.050466
      dz2     :     0.005446  d :     0.056365
      dxz     :     0.011298
      dyz     :     0.002859
      dx2y2   :     0.018853
      dxy     :     0.017910
      f0      :     0.000707  f :     0.007589
      f+1     :     0.000742
      f-1     :     0.000384
      f+2     :     0.000464
      f-2     :     0.000744
      f+3     :     0.002732
      f-3     :     0.001816

SPIN
  0 C s       :     0.004319  s :     0.004319
      pz      :     0.088776  p :     0.123101
      px      :     0.001188
      py      :     0.033137
      dz2     :    -0.000089  d :     0.003885
      dxz     :     0.006912
      dyz     :    -0.002155
      dx2y2   :     0.000184
      dxy     :    -0.000967
      f0      :    -0.000414  f :     0.001242
      f+1     :    -0.000113
      f-1     :    -0.000084
      f+2     :    -0.000786
      f-2     :     0.003068
      f+3     :    -0.000336
      f-3     :    -0.000093
      g0      :    -0.000001  g :     0.000081
      g+1     :     0.000112
      g-1     :    -0.000019
      g+2     :    -0.000008
      g-2     :    -0.000014
      g+3     :     0.000007
      g-3     :    -0.000013
      g+4     :     0.000004
      g-4     :     0.000013
  1 C s       :     0.002296  s :     0.002296
      pz      :     0.123003  p :     0.127897
      px      :     0.003063
      py      :     0.001830
      dz2     :    -0.000658  d :     0.004371
      dxz     :     0.003044
      dyz     :     0.000974
      dx2y2   :     0.000487
      dxy     :     0.000524
      f0      :    -0.000226  f :     0.002345
      f+1     :    -0.000140
      f-1     :    -0.000118
      f+2     :    -0.000352
      f-2     :     0.002034
      f+3     :     0.001202
      f-3     :    -0.000055
      g0      :    -0.000003  g :     0.000181
      g+1     :     0.000107
      g-1     :    -0.000002
      g+2     :     0.000014
      g-2     :    -0.000016
      g+3     :    -0.000007
      g-3     :     0.000024
      g+4     :     0.000016
      g-4     :     0.000049
  2 C s       :    -0.000928  s :    -0.000928
      pz      :    -0.020893  p :    -0.022749
      px      :    -0.001044
      py      :    -0.000812
      dz2     :     0.000183  d :     0.025614
      dxz     :     0.007004
      dyz     :     0.016630
      dx2y2   :     0.000600
      dxy     :     0.001197
      f0      :     0.000679  f :     0.007060
      f+1     :     0.000024
      f-1     :     0.000014
      f+2     :     0.005366
      f-2     :     0.000633
      f+3     :     0.000165
      f-3     :     0.000177
      g0      :    -0.000002  g :     0.000593
      g+1     :     0.000120
      g-1     :     0.000317
      g+2     :    -0.000004
      g-2     :     0.000006
      g+3     :     0.000016
      g-3     :     0.000101
      g+4     :     0.000012
      g-4     :     0.000026
  3 C s       :     0.001395  s :     0.001395
      pz      :     0.078123  p :     0.078882
      px      :     0.000199
      py      :     0.000560
      dz2     :    -0.000404  d :     0.009747
      dxz     :     0.009095
      dyz     :     0.000734
      dx2y2   :     0.000019
      dxy     :     0.000303
      f0      :    -0.000005  f :     0.002721
      f+1     :    -0.000090
      f-1     :    -0.000095
      f+2     :     0.000054
      f-2     :     0.002800
      f+3     :     0.000052
      f-3     :     0.000005
      g0      :    -0.000003  g :     0.000236
      g+1     :     0.000144
      g-1     :     0.000051
      g+2     :    -0.000001
      g-2     :    -0.000012
      g+3     :     0.000011
      g-3     :     0.000027
      g+4     :     0.000011
      g-4     :     0.000009
  4 C s       :     0.002617  s :     0.002617
      pz      :     0.126087  p :     0.130804
      px      :     0.001169
      py      :     0.003548
      dz2     :    -0.000658  d :     0.001020
      dxz     :     0.002133
      dyz     :    -0.000732
      dx2y2   :    -0.000228
      dxy     :     0.000505
      f0      :    -0.000372  f :     0.000350
      f+1     :    -0.000154
      f-1     :    -0.000135
      f+2     :    -0.000659
      f-2     :     0.001676
      f+3     :     0.000064
      f-3     :    -0.000069
      g0      :    -0.000003  g :     0.000005
      g+1     :     0.000088
      g-1     :    -0.000047
      g+2     :    -0.000003
      g-2     :    -0.000017
      g+3     :    -0.000005
      g-3     :    -0.000003
      g+4     :     0.000002
      g-4     :    -0.000007
  5 C s       :    -0.001360  s :    -0.001360
      pz      :    -0.032033  p :    -0.033777
      px      :    -0.000459
      py      :    -0.001285
      dz2     :     0.000261  d :     0.028105
      dxz     :     0.007729
      dyz     :     0.017246
      dx2y2   :     0.001442
      dxy     :     0.001427
      f0      :     0.000791  f :     0.008797
      f+1     :     0.000056
      f-1     :     0.000048
      f+2     :     0.005660
      f-2     :     0.000873
      f+3     :     0.000969
      f-3     :     0.000400
      g0      :    -0.000001  g :     0.000749
      g+1     :     0.000151
      g-1     :     0.000331
      g+2     :     0.000022
      g-2     :     0.000006
      g+3     :     0.000013
      g-3     :     0.000117
      g+4     :     0.000086
      g-4     :     0.000024
  6 H s       :    -0.002989  s :    -0.002989
      pz      :     0.008712  p :     0.010275
      px      :     0.000684
      py      :     0.000880
      dz2     :    -0.000006  d :     0.004288
      dxz     :     0.003372
      dyz     :     0.000721
      dx2y2   :     0.000016
      dxy     :     0.000185
      f0      :     0.000209  f :     0.000613
      f+1     :    -0.000004
      f-1     :     0.000003
      f+2     :     0.000156
      f-2     :     0.000216
      f+3     :     0.000019
      f-3     :     0.000015
  7 H s       :     0.001381  s :     0.001381
      pz      :    -0.001840  p :    -0.002272
      px      :    -0.000231
      py      :    -0.000201
      dz2     :    -0.000001  d :    -0.000852
      dxz     :    -0.000602
      dyz     :    -0.000111
      dx2y2   :    -0.000089
      dxy     :    -0.000050
      f0      :    -0.000042  f :    -0.000125
      f+1     :     0.000000
      f-1     :    -0.000001
      f+2     :    -0.000008
      f-2     :    -0.000055
      f+3     :    -0.000017
      f-3     :    -0.000002
  8 H s       :    -0.001819  s :    -0.001819
      pz      :     0.005483  p :     0.005964
      px      :    -0.000087
      py      :     0.000568
      dz2     :    -0.000008  d :     0.002602
      dxz     :    -0.000008
      dyz     :     0.002508
      dx2y2   :     0.000118
      dxy     :    -0.000008
      f0      :     0.000129  f :     0.000360
      f+1     :    -0.000001
      f-1     :    -0.000003
      f+2     :     0.000227
      f-2     :    -0.000001
      f+3     :    -0.000001
      f-3     :     0.000010
  9 H s       :    -0.002358  s :    -0.002358
      pz      :     0.009156  p :     0.010246
      px      :     0.000823
      py      :     0.000268
      dz2     :    -0.000010  d :     0.004410
      dxz     :     0.003548
      dyz     :     0.000562
      dx2y2   :     0.000149
      dxy     :     0.000161
      f0      :     0.000215  f :     0.000619
      f+1     :    -0.000003
      f-1     :    -0.000001
      f+2     :     0.000179
      f-2     :     0.000193
      f+3     :     0.000023
      f-3     :     0.000014
 10 H s       :     0.000949  s :     0.000949
      pz      :    -0.002837  p :    -0.003262
      px      :    -0.000354
      py      :    -0.000071
      dz2     :     0.000001  d :    -0.001324
      dxz     :    -0.000819
      dyz     :    -0.000308
      dx2y2   :    -0.000139
      dxy     :    -0.000060
      f0      :    -0.000063  f :    -0.000180
      f+1     :    -0.000000
      f-1     :     0.000002
      f+2     :    -0.000007
      f-2     :    -0.000094
      f+3     :    -0.000013
      f-3     :    -0.000003
 11 C s       :    -0.004155  s :    -0.004155
      pz      :    -0.033968  p :    -0.034828
      px      :    -0.002835
      py      :     0.001976
      dz2     :     0.001074  d :     0.081743
      dxz     :     0.004754
      dyz     :     0.012868
      dx2y2   :     0.042710
      dxy     :     0.020338
      f0      :     0.001246  f :     0.022905
      f+1     :     0.000518
      f-1     :     0.000472
      f+2     :     0.003193
      f-2     :     0.001738
      f+3     :     0.014929
      f-3     :     0.000809
      g0      :     0.000029  g :     0.004664
      g+1     :     0.000368
      g-1     :     0.000355
      g+2     :     0.000633
      g-2     :     0.000295
      g+3     :     0.000002
      g-3     :     0.000311
      g+4     :     0.001955
      g-4     :     0.000716
 12 O s       :     0.004232  s :     0.004232
      pz      :     0.067824  p :     0.354570
      px      :     0.070663
      py      :     0.216082
      dz2     :    -0.000125  d :     0.000654
      dxz     :    -0.001477
      dyz     :    -0.000505
      dx2y2   :     0.002023
      dxy     :     0.000739
      f0      :    -0.000157  f :    -0.000192
      f+1     :    -0.000002
      f-1     :     0.000027
      f+2     :    -0.000093
      f-2     :    -0.000292
      f+3     :     0.000499
      f-3     :    -0.000173
      g0      :    -0.000001  g :    -0.000015
      g+1     :    -0.000013
      g-1     :    -0.000004
      g+2     :     0.000003
      g-2     :    -0.000000
      g+3     :     0.000000
      g-3     :    -0.000015
      g+4     :     0.000015
      g-4     :     0.000000
 13 H s       :     0.040368  s :     0.040368
      pz      :    -0.002104  p :    -0.004211
      px      :    -0.001510
      py      :    -0.000596
      dz2     :    -0.000034  d :    -0.001695
      dxz     :    -0.000865
      dyz     :    -0.000205
      dx2y2   :    -0.000351
      dxy     :    -0.000239
      f0      :    -0.000059  f :    -0.000170
      f+1     :    -0.000014
      f-1     :    -0.000002
      f+2     :    -0.000025
      f-2     :    -0.000068
      f+3     :    -0.000041
      f-3     :     0.000040


                      *****************************
                      * MAYER POPULATION ANALYSIS *
                      *****************************

  NA   - Mulliken gross atomic population
  ZA   - Total nuclear charge
  QA   - Mulliken gross atomic charge
  VA   - Mayer's total valence
  BVA  - Mayer's bonded valence
  FA   - Mayer's free valence

  ATOM       NA         ZA         QA         VA         BVA        FA
  0 C      5.8587     6.0000     0.1413     3.5597     3.5253     0.0344
  1 C      5.9411     6.0000     0.0589     3.5935     3.5631     0.0304
  2 C      6.0472     6.0000    -0.0472     3.8126     3.8110     0.0016
  3 C      5.9492     6.0000     0.0508     3.7428     3.7311     0.0117
  4 C      6.0148     6.0000    -0.0148     3.8110     3.7800     0.0311
  5 C      6.0052     6.0000    -0.0052     3.6520     3.6488     0.0032
  6 H      0.8693     1.0000     0.1307     0.9874     0.9873     0.0001
  7 H      0.8835     1.0000     0.1165     0.9920     0.9920     0.0000
  8 H      0.8755     1.0000     0.1245     0.9827     0.9826     0.0000
  9 H      0.8768     1.0000     0.1232     0.9857     0.9857     0.0001
 10 H      0.8981     1.0000     0.1019     0.9938     0.9938     0.0000
 11 C      5.8312     6.0000     0.1688     3.8605     3.8532     0.0073
 12 O      8.1073     8.0000    -0.1073     2.4437     2.2664     0.1773
 13 H      0.8422     1.0000     0.1578     0.9719     0.9671     0.0047

  Mayer bond orders larger than 0.100000
B(  0-C ,  1-C ) :   1.0673 B(  0-C ,  5-C ) :   1.2025 B(  0-C , 11-C ) :   1.0182 
B(  1-C ,  2-C ) :   1.3229 B(  1-C ,  6-H ) :   0.9352 B(  2-C ,  3-C ) :   1.3181 
B(  2-C ,  7-H ) :   0.9530 B(  3-C ,  4-C ) :   1.1974 B(  3-C ,  8-H ) :   0.9475 
B(  4-C ,  5-C ) :   1.3179 B(  4-C ,  9-H ) :   0.9487 B(  5-C , 10-H ) :   0.9499 
B( 11-C , 12-O ) :   1.8570 B( 11-C , 13-H ) :   0.8935 

-------
TIMINGS
-------

Total SCF time: 0 days 2 hours 40 min 11 sec 

Total time                  ....    9611.546 sec
Sum of individual times     ....    9531.058 sec  ( 99.2%)

Fock matrix formation       ....    9453.906 sec  ( 98.4%)
  Split-RI-J                ....     676.811 sec  (  7.2% of F)
  Chain of spheres X        ....    7191.149 sec  ( 76.1% of F)
  XC integration            ....    1351.241 sec  ( 14.3% of F)
    Basis function eval.    ....     122.044 sec  (  9.0% of XC)
    Density eval.           ....     480.806 sec  ( 35.6% of XC)
    XC-Functional eval.     ....       9.932 sec  (  0.7% of XC)
    XC-Potential eval.      ....     657.188 sec  ( 48.6% of XC)
Diagonalization             ....      19.436 sec  (  0.2%)
Density matrix formation    ....       1.767 sec  (  0.0%)
Population analysis         ....       1.169 sec  (  0.0%)
Initial guess               ....       8.287 sec  (  0.1%)
Orbital Transformation      ....      13.658 sec  (  0.1%)
Orbital Orthonormalization  ....       0.000 sec  (  0.0%)
DIIS solution               ....       8.433 sec  (  0.1%)
Grid generation             ....      24.386 sec  (  0.3%)

Maximum memory used throughout the entire SCF-calculation: 697.7 MB

-------------------------   --------------------
FINAL SINGLE POINT ENERGY      -345.180374889712
-------------------------   --------------------


                            ***************************************
                            *     ORCA property calculations      *
                            ***************************************

                                    ---------------------
                                    Active property flags
                                    ---------------------
   (+) Dipole Moment


------------------------------------------------------------------------------
                       ORCA ELECTRIC PROPERTIES CALCULATION
------------------------------------------------------------------------------

Dipole Moment Calculation                       ... on
Quadrupole Moment Calculation                   ... off
Polarizability Calculation                      ... off
GBWName                                         ... kation.gbw
Electron density                                ... kation.scfp
The origin for moment calculation is the CENTER OF MASS  = (-14.631047,  0.983448  0.000029)

-------------
DIPOLE MOMENT
-------------
                                X             Y             Z
Electronic contribution:     -1.29301       3.22057      -0.00141
Nuclear contribution   :      2.09952      -3.87654      -0.00033
                        -----------------------------------------
Total Dipole Moment    :      0.80651      -0.65598      -0.00174
                        -----------------------------------------
Magnitude (a.u.)       :      1.03960
Magnitude (Debye)      :      2.64246



--------------------
Rotational spectrum 
--------------------
 
Rotational constants in cm-1:     0.173808     0.051962     0.040003 
Rotational constants in MHz :  5210.632863  1557.792854  1199.257712 

 Dipole components along the rotational axes: 
x,y,z [a.u.] :    -0.847863    -0.601577    -0.001771 
x,y,z [Debye]:    -2.155096    -1.529088    -0.004502 

 

Timings for individual modules:

Sum of individual times         ...     9619.749 sec (= 160.329 min)
GTO integral calculation        ...        7.991 sec (=   0.133 min)   0.1 %
SCF iterations                  ...     9611.758 sec (= 160.196 min)  99.9 %
                             ****ORCA TERMINATED NORMALLY****
TOTAL RUN TIME: 0 days 2 hours 40 minutes 24 seconds 291 msec
