
                                 *****************
                                 * O   R   C   A *
                                 *****************

                                            #,                                       
                                            ###                                      
                                            ####                                     
                                            #####                                    
                                            ######                                   
                                           ########,                                 
                                     ,,################,,,,,                         
                               ,,#################################,,                 
                          ,,##########################################,,             
                       ,#########################################, ''#####,          
                    ,#############################################,,   '####,        
                  ,##################################################,,,,####,       
                ,###########''''           ''''###############################       
              ,#####''   ,,,,##########,,,,          '''####'''          '####       
            ,##' ,,,,###########################,,,                        '##       
           ' ,,###''''                  '''############,,,                           
         ,,##''                                '''############,,,,        ,,,,,,###''
      ,#''                                            '''#######################'''  
     '                                                          ''''####''''         
             ,#######,   #######,   ,#######,      ##                                
            ,#'     '#,  ##    ##  ,#'     '#,    #''#        ######   ,####,        
            ##       ##  ##   ,#'  ##            #'  '#       #        #'  '#        
            ##       ##  #######   ##           ,######,      #####,   #    #        
            '#,     ,#'  ##    ##  '#,     ,#' ,#      #,         ##   #,  ,#        
             '#######'   ##     ##  '#######'  #'      '#     #####' # '####'        



                  #######################################################
                  #                        -***-                        #
                  #          Department of theory and spectroscopy      #
                  #    Directorship and core code : Frank Neese         #
                  #        Max Planck Institute fuer Kohlenforschung    #
                  #                Kaiser Wilhelm Platz 1               #
                  #                 D-45470 Muelheim/Ruhr               #
                  #                      Germany                        #
                  #                                                     #
                  #                  All rights reserved                #
                  #                        -***-                        #
                  #######################################################



                         Program Version 5.0.4 -  RELEASE  -

 With contributions from (in alphabetic order):
   Daniel Aravena         : Magnetic Suceptibility
   Michael Atanasov       : Ab Initio Ligand Field Theory (pilot matlab implementation)
   Alexander A. Auer      : GIAO ZORA, VPT2 properties, NMR spectrum
   Ute Becker             : Parallelization
   Giovanni Bistoni       : ED, misc. LED, open-shell LED, HFLD
   Martin Brehm           : Molecular dynamics
   Dmytro Bykov           : SCF Hessian
   Vijay G. Chilkuri      : MRCI spin determinant printing, contributions to CSF-ICE
   Dipayan Datta          : RHF DLPNO-CCSD density
   Achintya Kumar Dutta   : EOM-CC, STEOM-CC
   Dmitry Ganyushin       : Spin-Orbit,Spin-Spin,Magnetic field MRCI
   Miquel Garcia          : C-PCM and meta-GGA Hessian, CC/C-PCM, Gaussian charge scheme
   Yang Guo               : DLPNO-NEVPT2, F12-NEVPT2, CIM, IAO-localization
   Andreas Hansen         : Spin unrestricted coupled pair/coupled cluster methods
   Benjamin Helmich-Paris : MC-RPA, TRAH-SCF, COSX integrals
   Lee Huntington         : MR-EOM, pCC
   Robert Izsak           : Overlap fitted RIJCOSX, COSX-SCS-MP3, EOM
   Marcus Kettner         : VPT2
   Christian Kollmar      : KDIIS, OOCD, Brueckner-CCSD(T), CCSD density, CASPT2, CASPT2-K
   Simone Kossmann        : Meta GGA functionals, TD-DFT gradient, OOMP2, MP2 Hessian
   Martin Krupicka        : Initial AUTO-CI
   Lucas Lang             : DCDCAS
   Marvin Lechner         : AUTO-CI (C++ implementation), FIC-MRCC
   Dagmar Lenk            : GEPOL surface, SMD
   Dimitrios Liakos       : Extrapolation schemes; Compound Job, initial MDCI parallelization
   Dimitrios Manganas     : Further ROCIS development; embedding schemes
   Dimitrios Pantazis     : SARC Basis sets
   Anastasios Papadopoulos: AUTO-CI, single reference methods and gradients
   Taras Petrenko         : DFT Hessian,TD-DFT gradient, ASA, ECA, R-Raman, ABS, FL, XAS/XES, NRVS
   Peter Pinski           : DLPNO-MP2, DLPNO-MP2 Gradient
   Christoph Reimann      : Effective Core Potentials
   Marius Retegan         : Local ZFS, SOC
   Christoph Riplinger    : Optimizer, TS searches, QM/MM, DLPNO-CCSD(T), (RO)-DLPNO pert. Triples
   Tobias Risthaus        : Range-separated hybrids, TD-DFT gradient, RPA, STAB
   Michael Roemelt        : Original ROCIS implementation
   Masaaki Saitow         : Open-shell DLPNO-CCSD energy and density
   Barbara Sandhoefer     : DKH picture change effects
   Avijit Sen             : IP-ROCIS
   Kantharuban Sivalingam : CASSCF convergence, NEVPT2, FIC-MRCI
   Bernardo de Souza      : ESD, SOC TD-DFT
   Georgi Stoychev        : AutoAux, RI-MP2 NMR, DLPNO-MP2 response
   Willem Van den Heuvel  : Paramagnetic NMR
   Boris Wezisla          : Elementary symmetry handling
   Frank Wennmohs         : Technical directorship


 We gratefully acknowledge several colleagues who have allowed us to
 interface, adapt or use parts of their codes:
   Stefan Grimme, W. Hujo, H. Kruse, P. Pracht,  : VdW corrections, initial TS optimization,
                  C. Bannwarth, S. Ehlert          DFT functionals, gCP, sTDA/sTD-DF
   Ed Valeev, F. Pavosevic, A. Kumar             : LibInt (2-el integral package), F12 methods
   Garnet Chan, S. Sharma, J. Yang, R. Olivares  : DMRG
   Ulf Ekstrom                                   : XCFun DFT Library
   Mihaly Kallay                                 : mrcc  (arbitrary order and MRCC methods)
   Jiri Pittner, Ondrej Demel                    : Mk-CCSD
   Frank Weinhold                                : gennbo (NPA and NBO analysis)
   Christopher J. Cramer and Donald G. Truhlar   : smd solvation model
   Lars Goerigk                                  : TD-DFT with DH, B97 family of functionals
   V. Asgeirsson, H. Jonsson                     : NEB implementation
   FAccTs GmbH                                   : IRC, NEB, NEB-TS, DLPNO-Multilevel, CI-OPT
                                                   MM, QMMM, 2- and 3-layer-ONIOM, Crystal-QMMM,
                                                   LR-CPCM, SF, NACMEs, symmetry and pop. for TD-DFT,
                                                   nearIR, NL-DFT gradient (VV10), updates on ESD,
                                                   ML-optimized integration grids
   S Lehtola, MJT Oliveira, MAL Marques          : LibXC Library
   Liviu Ungur et al                             : ANISO software


 Your calculation uses the libint2 library for the computation of 2-el integrals
 For citations please refer to: http://libint.valeyev.net

 Your ORCA version has been built with support for libXC version: 5.1.0
 For citations please refer to: https://tddft.org/programs/libxc/

 This ORCA versions uses:
   CBLAS   interface :  Fast vector & matrix operations
   LAPACKE interface :  Fast linear algebra routines
   Shared memory     :  Shared parallel matrices


Your calculation utilizes the atom-pairwise dispersion correction
with the Becke-Johnson damping scheme (D3BJ)
Cite in your paper:
S.Grimme, S.Ehrlich, L.Goerigk, J Comput Chem, (2011), 32, 1456–1465 
S.Grimme, J.Antony, S.Ehrlich and H.Krieg, J.Chem.Phys., 132, (2010), 154104 
   

================================================================================

----- Orbital basis set information -----
Your calculation utilizes the basis: def2-SVP
   F. Weigend and R. Ahlrichs, Phys. Chem. Chem. Phys. 7, 3297 (2005).

----- AuxJ basis set information -----
Your calculation utilizes the auxiliary basis: def2/J
   F. Weigend, Phys. Chem. Chem. Phys. 8, 1057 (2006).

================================================================================
                                        WARNINGS
                       Please study these warnings very carefully!
================================================================================


INFO   : the flag for use of the SHARK integral package has been found!

================================================================================
                                       INPUT FILE
================================================================================
NAME = benzen_fukui.inp
|  1> !B3LYP D3 DEF2-SVP KEEPDENS
|  2> * xyz 0 1s
|  3>   C      -4.127240      1.598090      0.000000
|  4>   C      -5.236140      0.753090      0.000000
|  5>   C      -5.058790     -0.629750      0.000000
|  6>   C      -3.772550     -1.167590      0.000000
|  7>   C      -2.663650     -0.322590      0.000000
|  8>   C      -2.840990      1.060250      0.000000
|  9>   H      -4.265550      2.676550      0.000000
| 10>   H      -1.976170      1.719260      0.000000
| 11>   H      -1.660520     -0.742040      0.000000
| 12>   H      -3.634240     -2.246050      0.000000
| 13>   H      -5.923620     -1.288760      0.000000
| 14>   H      -6.239270      1.172540      0.000000
| 15> *
| 16> 
| 17>                          ****END OF INPUT****
================================================================================

                       ****************************
                       * Single Point Calculation *
                       ****************************

---------------------------------
CARTESIAN COORDINATES (ANGSTROEM)
---------------------------------
  C     -4.127240    1.598090    0.000000
  C     -5.236140    0.753090    0.000000
  C     -5.058790   -0.629750    0.000000
  C     -3.772550   -1.167590    0.000000
  C     -2.663650   -0.322590    0.000000
  C     -2.840990    1.060250    0.000000
  H     -4.265550    2.676550    0.000000
  H     -1.976170    1.719260    0.000000
  H     -1.660520   -0.742040    0.000000
  H     -3.634240   -2.246050    0.000000
  H     -5.923620   -1.288760    0.000000
  H     -6.239270    1.172540    0.000000

----------------------------
CARTESIAN COORDINATES (A.U.)
----------------------------
  NO LB      ZA    FRAG     MASS         X           Y           Z
   0 C     6.0000    0    12.011   -7.799353    3.019952    0.000000
   1 C     6.0000    0    12.011   -9.894871    1.423134    0.000000
   2 C     6.0000    0    12.011   -9.559728   -1.190055    0.000000
   3 C     6.0000    0    12.011   -7.129086   -2.206425    0.000000
   4 C     6.0000    0    12.011   -5.033569   -0.609607    0.000000
   5 C     6.0000    0    12.011   -5.368693    2.003582    0.000000
   6 H     1.0000    0     1.008   -8.060721    5.057946    0.000000
   7 H     1.0000    0     1.008   -3.734420    3.248931    0.000000
   8 H     1.0000    0     1.008   -3.137928   -1.402252    0.000000
   9 H     1.0000    0     1.008   -6.867718   -4.244419    0.000000
  10 H     1.0000    0     1.008  -11.194020   -2.435403    0.000000
  11 H     1.0000    0     1.008  -11.790512    2.215779    0.000000

--------------------------------
INTERNAL COORDINATES (ANGSTROEM)
--------------------------------
 C      0   0   0     0.000000000000     0.00000000     0.00000000
 C      1   0   0     1.394160754719     0.00000000     0.00000000
 C      2   1   0     1.394166234027   119.99967529     0.00000000
 C      3   2   1     1.394161110919   120.00051591     0.00000000
 C      4   3   2     1.394160754719   119.99980880     0.00000000
 C      5   4   3     1.394164961975   120.00008292     0.00000000
 H      1   2   3     1.087292797594   119.99983709   180.00000085
 H      6   5   4     1.087293802291   120.00020724   180.00000000
 H      5   4   3     1.087293934224   120.00018946   180.00000085
 H      4   3   2     1.087292797594   120.00035411   180.00000085
 H      3   2   1     1.087301756184   119.99948022   180.00000085
 H      2   1   3     1.087293934224   120.00018946   180.00000000

---------------------------
INTERNAL COORDINATES (A.U.)
---------------------------
 C      0   0   0     0.000000000000     0.00000000     0.00000000
 C      1   0   0     2.634582013081     0.00000000     0.00000000
 C      2   1   0     2.634592367471   119.99967529     0.00000000
 C      3   2   1     2.634582686201   120.00051591     0.00000000
 C      4   3   2     2.634582013081   119.99980880     0.00000000
 C      5   4   3     2.634589963642   120.00008292     0.00000000
 H      1   2   3     2.054685614838   119.99983709   180.00000085
 H      6   5   4     2.054687513440   120.00020724   180.00000000
 H      5   4   3     2.054687762757   120.00018946   180.00000085
 H      4   3   2     2.054685614838   120.00035411   180.00000085
 H      3   2   1     2.054702544119   119.99948022   180.00000085
 H      2   1   3     2.054687762757   120.00018946   180.00000000

---------------------
BASIS SET INFORMATION
---------------------
There are 2 groups of distinct atoms

 Group   1 Type C   : 7s4p1d contracted to 3s2p1d pattern {511/31/1}
 Group   2 Type H   : 4s1p contracted to 2s1p pattern {31/1}

Atom   0C    basis set group =>   1
Atom   1C    basis set group =>   1
Atom   2C    basis set group =>   1
Atom   3C    basis set group =>   1
Atom   4C    basis set group =>   1
Atom   5C    basis set group =>   1
Atom   6H    basis set group =>   2
Atom   7H    basis set group =>   2
Atom   8H    basis set group =>   2
Atom   9H    basis set group =>   2
Atom  10H    basis set group =>   2
Atom  11H    basis set group =>   2
---------------------------------
AUXILIARY/J BASIS SET INFORMATION
---------------------------------
There are 2 groups of distinct atoms

 Group   1 Type C   : 12s5p4d2f1g contracted to 6s4p3d1f1g pattern {711111/2111/211/2/1}
 Group   2 Type H   : 5s2p1d contracted to 3s1p1d pattern {311/2/1}

Atom   0C    basis set group =>   1
Atom   1C    basis set group =>   1
Atom   2C    basis set group =>   1
Atom   3C    basis set group =>   1
Atom   4C    basis set group =>   1
Atom   5C    basis set group =>   1
Atom   6H    basis set group =>   2
Atom   7H    basis set group =>   2
Atom   8H    basis set group =>   2
Atom   9H    basis set group =>   2
Atom  10H    basis set group =>   2
Atom  11H    basis set group =>   2
------------------------------------------------------------------------------
                           ORCA GTO INTEGRAL CALCULATION
                           -- RI-GTO INTEGRALS CHOSEN --
------------------------------------------------------------------------------
------------------------------------------------------------------------------
                   ___                                                        
                  /   \      - P O W E R E D   B Y -                         
                 /     \                                                     
                 |  |  |   _    _      __       _____    __    __             
                 |  |  |  | |  | |    /  \     |  _  \  |  |  /  |          
                  \  \/   | |  | |   /    \    | | | |  |  | /  /          
                 / \  \   | |__| |  /  /\  \   | |_| |  |  |/  /          
                |  |  |   |  __  | /  /__\  \  |    /   |      \           
                |  |  |   | |  | | |   __   |  |    \   |  |\   \          
                \     /   | |  | | |  |  |  |  | |\  \  |  | \   \       
                 \___/    |_|  |_| |__|  |__|  |_| \__\ |__|  \__/        
                                                                              
                      - O R C A' S   B I G   F R I E N D -                    
                                      &                                       
                       - I N T E G R A L  F E E D E R -                       
                                                                              
 v1 FN, 2020, v2 2021                                                         
------------------------------------------------------------------------------


Reading SHARK input file benzen_fukui.SHARKINP.tmp ... ok
----------------------
SHARK INTEGRAL PACKAGE
----------------------

Number of atoms                             ...     12
Number of basis functions                   ...    114
Number of shells                            ...     54
Maximum angular momentum                    ...      2
Integral batch strategy                     ... SHARK/LIBINT Hybrid
RI-J (if used) integral strategy            ... SPLIT-RIJ (Revised 2003 algorithm where possible)
Printlevel                                  ...      1
Contraction scheme used                     ... SEGMENTED contraction
Coulomb Range Separation                    ... NOT USED
Exchange Range Separation                   ... NOT USED
Finite Nucleus Model                        ... NOT USED
Auxiliary Coulomb fitting basis             ... AVAILABLE
   # of basis functions in Aux-J            ...    360
   # of shells in Aux-J                     ...    120
   Maximum angular momentum in Aux-J        ...      4
Auxiliary J/K fitting basis                 ... NOT available
Auxiliary Correlation fitting basis         ... NOT available
Auxiliary 'external' fitting basis          ... NOT available
Integral threshold                          ...     1.000000e-10
Primitive cut-off                           ...     1.000000e-11
Primitive pair pre-selection threshold      ...     1.000000e-11

Calculating pre-screening integrals         ... done (  0.0 sec) Dimension = 54
Organizing shell pair data                  ... done (  0.0 sec)
Shell pair information
Total number of shell pairs                 ...      1485
Shell pairs after pre-screening             ...      1455
Total number of primitive shell pairs       ...      5349
Primitive shell pairs kept                  ...      4104
          la=0 lb=0:    456 shell pairs
          la=1 lb=0:    522 shell pairs
          la=1 lb=1:    168 shell pairs
          la=2 lb=0:    180 shell pairs
          la=2 lb=1:    108 shell pairs
          la=2 lb=2:     21 shell pairs

Calculating one electron integrals          ... done (  0.0 sec)
Calculating RI/J V-Matrix + Cholesky decomp.... done (  0.0 sec)
Calculating Nuclear repulsion               ... done (  0.0 sec) ENN=    203.482178309162 Eh

SHARK setup successfully completed in   0.2 seconds

Maximum memory used throughout the entire GTOINT-calculation: 13.6 MB
-------------------------------------------------------------------------------
                                 ORCA SCF
-------------------------------------------------------------------------------

------------
SCF SETTINGS
------------
Hamiltonian:
 Density Functional     Method          .... DFT(GTOs)
 Exchange Functional    Exchange        .... B88
   X-Alpha parameter    XAlpha          ....  0.666667
   Becke's b parameter  XBeta           ....  0.004200
 Correlation Functional Correlation     .... LYP
 LDA part of GGA corr.  LDAOpt          .... VWN-5
 Gradients option       PostSCFGGA      .... off
 Hybrid DFT is turned on
   Fraction HF Exchange ScalHFX         ....  0.200000
   Scaling of DF-GGA-X  ScalDFX         ....  0.720000
   Scaling of DF-GGA-C  ScalDFC         ....  0.810000
   Scaling of DF-LDA-C  ScalLDAC        ....  1.000000
   Perturbative correction              ....  0.000000
   Density functional embedding theory  .... OFF
   NL short-range parameter             ....  4.800000
 RI-approximation to the Coulomb term is turned on
   Number of AuxJ basis functions       .... 360
   RIJ-COSX (HFX calculated with COS-X)).... on


General Settings:
 Integral files         IntName         .... benzen_fukui
 Hartree-Fock type      HFTyp           .... RHF
 Total Charge           Charge          ....    0
 Multiplicity           Mult            ....    1
 Number of Electrons    NEL             ....   42
 Basis Dimension        Dim             ....  114
 Nuclear Repulsion      ENuc            ....    203.4821783092 Eh

Convergence Acceleration:
 DIIS                   CNVDIIS         .... on
   Start iteration      DIISMaxIt       ....    12
   Startup error        DIISStart       ....  0.200000
   # of expansion vecs  DIISMaxEq       ....     5
   Bias factor          DIISBfac        ....   1.050
   Max. coefficient     DIISMaxC        ....  10.000
 Trust-Rad. Augm. Hess. CNVTRAH         .... auto
   Auto Start mean grad. ratio tolernc. ....  1.125000
   Auto Start start iteration           ....    20
   Auto Start num. interpolation iter.  ....    10
   Max. Number of Micro iterations      ....    16
   Max. Number of Macro iterations      .... Maxiter - #DIIS iter
   Number of Davidson start vectors     ....     2
   Converg. threshold I  (grad. norm)   ....   5.000e-05
   Converg. threshold II (energy diff.) ....   1.000e-06
   Grad. Scal. Fac. for Micro threshold ....   0.100
   Minimum threshold for Micro iter.    ....   0.010
   NR start threshold (gradient norm)   ....   0.001
   Initial trust radius                 ....   0.400
   Minimum AH scaling param. (alpha)    ....   1.000
   Maximum AH scaling param. (alpha)    .... 1000.000
   Orbital update algorithm             .... Taylor
   White noise on init. David. guess    .... on
   Maximum white noise                  ....   0.010
   Quad. conv. algorithm                .... NR
 SOSCF                  CNVSOSCF        .... on
   Start iteration      SOSCFMaxIt      ....   150
   Startup grad/error   SOSCFStart      ....  0.003300
 Level Shifting         CNVShift        .... on
   Level shift para.    LevelShift      ....    0.2500
   Turn off err/grad.   ShiftErr        ....    0.0010
 Zerner damping         CNVZerner       .... off
 Static damping         CNVDamp         .... on
   Fraction old density DampFac         ....    0.7000
   Max. Damping (<1)    DampMax         ....    0.9800
   Min. Damping (>=0)   DampMin         ....    0.0000
   Turn off err/grad.   DampErr         ....    0.1000
 Fernandez-Rico         CNVRico         .... off

SCF Procedure:
 Maximum # iterations   MaxIter         ....   125
 SCF integral mode      SCFMode         .... Direct
   Integral package                     .... SHARK and LIBINT hybrid scheme
 Reset frequency        DirectResetFreq ....    20
 Integral Threshold     Thresh          ....  1.000e-10 Eh
 Primitive CutOff       TCut            ....  1.000e-11 Eh

Convergence Tolerance:
 Convergence Check Mode ConvCheckMode   .... Total+1el-Energy
 Convergence forced     ConvForced      .... 0
 Energy Change          TolE            ....  1.000e-06 Eh
 1-El. energy change                    ....  1.000e-03 Eh
 Orbital Gradient       TolG            ....  5.000e-05
 Orbital Rotation angle TolX            ....  5.000e-05
 DIIS Error             TolErr          ....  1.000e-06


Diagonalization of the overlap matrix:
Smallest eigenvalue                        ... 3.141e-04
Time for diagonalization                   ...    0.003 sec
Threshold for overlap eigenvalues          ... 1.000e-08
Number of eigenvalues below threshold      ... 0
Time for construction of square roots      ...    0.002 sec
Total time needed                          ...    0.005 sec

Time for model grid setup =    0.118 sec

------------------------------
INITIAL GUESS: MODEL POTENTIAL
------------------------------
Loading Hartree-Fock densities                     ... done
Calculating cut-offs                               ... done
Initializing the effective Hamiltonian             ... done
Setting up the integral package (SHARK)            ... done
Starting the Coulomb interaction                   ... done (   0.1 sec)
Reading the grid                                   ... done
Mapping shells                                     ... done
Starting the XC term evaluation                    ... done (   0.2 sec)
  promolecular density results
     # of electrons  =     41.996733943
     EX              =    -32.606761046
     EC              =     -1.377217074
     EX+EC           =    -33.983978120
Transforming the Hamiltonian                       ... done (   0.0 sec)
Diagonalizing the Hamiltonian                      ... done (   0.0 sec)
Back transforming the eigenvectors                 ... done (   0.0 sec)
Now organizing SCF variables                       ... done
                      ------------------
                      INITIAL GUESS DONE (   0.4 sec)
                      ------------------
-------------------
DFT GRID GENERATION
-------------------

General Integration Accuracy     IntAcc      ... 4.388
Radial Grid Type                 RadialGrid  ... OptM3 with GC (2021)
Angular Grid (max. ang.)         AngularGrid ... 4 (Lebedev-302)
Angular grid pruning method      GridPruning ... 4 (adaptive)
Weight generation scheme         WeightScheme... Becke
Basis function cutoff            BFCut       ... 1.0000e-10
Integration weight cutoff        WCut        ... 1.0000e-14
Angular grids for H and He will be reduced by one unit
Partially contracted basis set               ... off
Rotationally invariant grid construction     ... off

Total number of grid points                  ...    55560
Total number of batches                      ...      872
Average number of points per batch           ...       63
Average number of grid points per atom       ...     4630
Time for grid setup =    0.503 sec

--------------------
COSX GRID GENERATION
--------------------

GRIDX 1
-------
General Integration Accuracy     IntAcc      ... 3.816
Radial Grid Type                 RadialGrid  ... OptM3 with GC (2021)
Angular Grid (max. ang.)         AngularGrid ... 1 (Lebedev-50)
Angular grid pruning method      GridPruning ... 4 (adaptive)
Weight generation scheme         WeightScheme... Becke
Basis function cutoff            BFCut       ... 1.0000e-10
Integration weight cutoff        WCut        ... 1.0000e-14
Angular grids for H and He will be reduced by one unit
Partially contracted basis set               ... on
Rotationally invariant grid construction     ... off

Total number of grid points                  ...     7132
Total number of batches                      ...      114
Average number of points per batch           ...       62
Average number of grid points per atom       ...      594
UseSFitting                                  ... on

GRIDX 2
-------
General Integration Accuracy     IntAcc      ... 4.020
Radial Grid Type                 RadialGrid  ... OptM3 with GC (2021)
Angular Grid (max. ang.)         AngularGrid ... 2 (Lebedev-110)
Angular grid pruning method      GridPruning ... 4 (adaptive)
Weight generation scheme         WeightScheme... Becke
Basis function cutoff            BFCut       ... 1.0000e-10
Integration weight cutoff        WCut        ... 1.0000e-14
Angular grids for H and He will be reduced by one unit
Partially contracted basis set               ... on
Rotationally invariant grid construction     ... off

Total number of grid points                  ...    15506
Total number of batches                      ...      248
Average number of points per batch           ...       62
Average number of grid points per atom       ...     1292
UseSFitting                                  ... on

GRIDX 3
-------
General Integration Accuracy     IntAcc      ... 4.338
Radial Grid Type                 RadialGrid  ... OptM3 with GC (2021)
Angular Grid (max. ang.)         AngularGrid ... 3 (Lebedev-194)
Angular grid pruning method      GridPruning ... 4 (adaptive)
Weight generation scheme         WeightScheme... Becke
Basis function cutoff            BFCut       ... 1.0000e-10
Integration weight cutoff        WCut        ... 1.0000e-14
Angular grids for H and He will be reduced by one unit
Partially contracted basis set               ... on
Rotationally invariant grid construction     ... off

Total number of grid points                  ...    34078
Total number of batches                      ...      538
Average number of points per batch           ...       63
Average number of grid points per atom       ...     2840
UseSFitting                                  ... on

Time for X-Grid setup             =    0.665 sec

--------------
SCF ITERATIONS
--------------
ITER       Energy         Delta-E        Max-DP      RMS-DP      [F,P]     Damp
               ***  Starting incremental Fock matrix formation  ***
  0   -231.7953667340   0.000000000000 0.04941298  0.00307098  0.1208260 0.7000
  1   -231.8553229135  -0.059956179502 0.03315620  0.00220970  0.0618364 0.7000
                               ***Turning on DIIS***
  2   -231.8820707788  -0.026747865284 0.05408435  0.00398340  0.0280147 0.0000
  3   -231.9199297826  -0.037859003818 0.02011877  0.00125411  0.0385594 0.0000
  4   -231.9298339686  -0.009904186003 0.00533504  0.00031639  0.0078425 0.0000
                      *** Initiating the SOSCF procedure ***
                           *** Shutting down DIIS ***
                      *** Re-Reading the Fockian *** 
                      *** Removing any level shift *** 
ITER      Energy       Delta-E        Grad      Rot      Max-DP    RMS-DP
  5   -231.93030363  -0.0004696621  0.000873  0.000873  0.001970  0.000122
               *** Restarting incremental Fock matrix formation ***
  6   -231.93040544  -0.0001018083  0.000368  0.000705  0.001306  0.000075
  7   -231.93040634  -0.0000009014  0.000260  0.000195  0.000311  0.000019
  8   -231.93040766  -0.0000013150  0.000031  0.000036  0.000065  0.000005
                 **** Energy Check signals convergence ****
              ***Rediagonalizing the Fockian in SOSCF/NRSCF***

               *****************************************************
               *                     SUCCESS                       *
               *           SCF CONVERGED AFTER   9 CYCLES          *
               *****************************************************

Old exchange energy                            =     -6.634412166 Eh
New exchange energy                            =     -6.634429165 Eh
Exchange energy change after final integration =     -0.000016999 Eh
Total energy after final integration           =   -231.930424680 Eh
Final COS-X integration done in                =     5.466 sec

----------------
TOTAL SCF ENERGY
----------------

Total Energy       :         -231.93042468 Eh           -6311.14771 eV

Components:
Nuclear Repulsion  :          203.48217831 Eh            5537.03157 eV
Electronic Energy  :         -435.41260299 Eh          -11848.17928 eV
One Electron Energy:         -713.88410400 Eh          -19425.77406 eV
Two Electron Energy:          278.47150101 Eh            7577.59478 eV
Max COSX asymmetry :            0.00000229 Eh               0.00006 eV

Virial components:
Potential Energy   :         -461.35570664 Eh          -12554.12702 eV
Kinetic Energy     :          229.42528196 Eh            6242.97931 eV
Virial Ratio       :            2.01091921


DFT components:
N(Alpha)           :       20.999983951579 electrons
N(Beta)            :       20.999983951579 electrons
N(Total)           :       41.999967903158 electrons
E(X)               :      -26.324060192832 Eh       
E(C)               :       -1.633378035406 Eh       
E(XC)              :      -27.957438228238 Eh       
DFET-embed. en.    :        0.000000000000 Eh       

---------------
SCF CONVERGENCE
---------------

  Last Energy change         ...   -2.5889e-08  Tolerance :   1.0000e-06
  Last MAX-Density change    ...    2.5119e-15  Tolerance :   1.0000e-05
  Last RMS-Density change    ...    6.1530e-17  Tolerance :   1.0000e-06
  Last Orbital Gradient      ...    1.2396e-05  Tolerance :   5.0000e-05
  Last Orbital Rotation      ...    1.0462e-05  Tolerance :   5.0000e-05

             **** THE GBW FILE WAS UPDATED (benzen_fukui.gbw) ****
             **** DENSITY benzen_fukui.scfp WAS UPDATED ****
             **** ENERGY FILE WAS UPDATED (benzen_fukui.en.tmp) ****
             **** THE GBW FILE WAS UPDATED (benzen_fukui.gbw) ****
             **** DENSITY benzen_fukui.scfp WAS UPDATED ****
----------------
ORBITAL ENERGIES
----------------

  NO   OCC          E(Eh)            E(eV) 
   0   2.0000     -10.186306      -277.1835 
   1   2.0000     -10.186154      -277.1793 
   2   2.0000     -10.186134      -277.1788 
   3   2.0000     -10.185741      -277.1681 
   4   2.0000     -10.185722      -277.1676 
   5   2.0000     -10.185609      -277.1645 
   6   2.0000      -0.844020       -22.9670 
   7   2.0000      -0.735203       -20.0059 
   8   2.0000      -0.735192       -20.0056 
   9   2.0000      -0.594568       -16.1790 
  10   2.0000      -0.594557       -16.1787 
  11   2.0000      -0.520109       -14.1529 
  12   2.0000      -0.453861       -12.3502 
  13   2.0000      -0.446077       -12.1384 
  14   2.0000      -0.419547       -11.4165 
  15   2.0000      -0.419544       -11.4164 
  16   2.0000      -0.366314        -9.9679 
  17   2.0000      -0.343191        -9.3387 
  18   2.0000      -0.343188        -9.3386 
  19   2.0000      -0.253093        -6.8870 
  20   2.0000      -0.253089        -6.8869 
  21   0.0000      -0.004688        -0.1276 
  22   0.0000      -0.004686        -0.1275 
  23   0.0000       0.061483         1.6730 
  24   0.0000       0.102541         2.7903 
  25   0.0000       0.102543         2.7903 
  26   0.0000       0.140544         3.8244 
  27   0.0000       0.140567         3.8250 
  28   0.0000       0.153731         4.1832 
  29   0.0000       0.162010         4.4085 
  30   0.0000       0.292124         7.9491 
  31   0.0000       0.292143         7.9496 
  32   0.0000       0.305178         8.3043 
  33   0.0000       0.305183         8.3045 
  34   0.0000       0.368714        10.0332 
  35   0.0000       0.410981        11.1834 
  36   0.0000       0.421998        11.4832 
  37   0.0000       0.422047        11.4845 
  38   0.0000       0.438975        11.9451 
  39   0.0000       0.469539        12.7768 
  40   0.0000       0.473513        12.8849 
  41   0.0000       0.508547        13.8383 
  42   0.0000       0.508582        13.8392 
  43   0.0000       0.540898        14.7186 
  44   0.0000       0.540945        14.7199 
  45   0.0000       0.546173        14.8621 
  46   0.0000       0.604983        16.4624 
  47   0.0000       0.605042        16.4640 
  48   0.0000       0.640585        17.4312 
  49   0.0000       0.640635        17.4326 
  50   0.0000       0.674557        18.3556 
  51   0.0000       0.674581        18.3563 
  52   0.0000       0.676909        18.4196 
  53   0.0000       0.729757        19.8577 
  54   0.0000       0.729772        19.8581 
  55   0.0000       0.742570        20.2063 
  56   0.0000       0.745412        20.2837 
  57   0.0000       0.777666        21.1614 
  58   0.0000       0.777697        21.1622 
  59   0.0000       0.840368        22.8676 
  60   0.0000       0.898582        24.4517 
  61   0.0000       1.028545        27.9881 
  62   0.0000       1.028604        27.9897 
  63   0.0000       1.158275        31.5183 
  64   0.0000       1.248945        33.9855 
  65   0.0000       1.248947        33.9856 
  66   0.0000       1.255142        34.1541 
  67   0.0000       1.271758        34.6063 
  68   0.0000       1.271800        34.6074 
  69   0.0000       1.310616        35.6637 
  70   0.0000       1.310622        35.6638 
  71   0.0000       1.519104        41.3369 
  72   0.0000       1.649007        44.8718 
  73   0.0000       1.649540        44.8863 
  74   0.0000       1.672591        45.5135 
  75   0.0000       1.747106        47.5412 
  76   0.0000       1.756024        47.7838 
  77   0.0000       1.756030        47.7840 
  78   0.0000       1.760970        47.9184 
  79   0.0000       1.760981        47.9187 
  80   0.0000       1.762855        47.9697 
  81   0.0000       1.762895        47.9708 
  82   0.0000       1.829869        49.7933 
  83   0.0000       1.829873        49.7934 
  84   0.0000       1.935494        52.6675 
  85   0.0000       1.987936        54.0945 
  86   0.0000       1.987945        54.0947 
  87   0.0000       1.991216        54.1838 
  88   0.0000       1.994168        54.2641 
  89   0.0000       1.994169        54.2641 
  90   0.0000       2.112439        57.4824 
  91   0.0000       2.145957        58.3945 
  92   0.0000       2.145958        58.3945 
  93   0.0000       2.147813        58.4450 
  94   0.0000       2.307695        62.7956 
  95   0.0000       2.307698        62.7957 
  96   0.0000       2.318220        63.0820 
  97   0.0000       2.318227        63.0822 
  98   0.0000       2.357490        64.1506 
  99   0.0000       2.357499        64.1508 
 100   0.0000       2.569916        69.9310 
 101   0.0000       2.609452        71.0068 
 102   0.0000       2.609469        71.0073 
 103   0.0000       2.656863        72.2969 
 104   0.0000       2.732251        74.3483 
 105   0.0000       2.732521        74.3557 
 106   0.0000       2.732533        74.3560 
 107   0.0000       2.874230        78.2118 
 108   0.0000       2.874241        78.2121 
 109   0.0000       2.902013        78.9678 
 110   0.0000       3.135614        85.3244 
 111   0.0000       3.135630        85.3248 
 112   0.0000       3.261279        88.7439 
 113   0.0000       3.678055       100.0850 

                    ********************************
                    * MULLIKEN POPULATION ANALYSIS *
                    ********************************

-----------------------
MULLIKEN ATOMIC CHARGES
-----------------------
   0 C :    0.020550
   1 C :    0.020709
   2 C :    0.020377
   3 C :    0.020554
   4 C :    0.020709
   5 C :    0.020381
   6 H :   -0.020447
   7 H :   -0.020468
   8 H :   -0.020726
   9 H :   -0.020447
  10 H :   -0.020465
  11 H :   -0.020726
Sum of atomic charges:    0.0000000

--------------------------------
MULLIKEN REDUCED ORBITAL CHARGES
--------------------------------
  0 C s       :     3.156342  s :     3.156342
      pz      :     0.986561  p :     2.787926
      px      :     0.960633
      py      :     0.840732
      dz2     :     0.002507  d :     0.035181
      dxz     :     0.006330
      dyz     :     0.002390
      dx2y2   :     0.013095
      dxy     :     0.010859
  1 C s       :     3.156653  s :     3.156653
      pz      :     0.986512  p :     2.787460
      px      :     0.856950
      py      :     0.943998
      dz2     :     0.002508  d :     0.035177
      dxz     :     0.002930
      dyz     :     0.005790
      dx2y2   :     0.011958
      dxy     :     0.011991
  2 C s       :     3.156717  s :     3.156717
      pz      :     0.986513  p :     2.787725
      px      :     0.884181
      py      :     0.917031
      dz2     :     0.002508  d :     0.035181
      dxz     :     0.003820
      dyz     :     0.004900
      dx2y2   :     0.010874
      dxy     :     0.013078
  3 C s       :     3.156340  s :     3.156340
      pz      :     0.986562  p :     2.787924
      px      :     0.960634
      py      :     0.840728
      dz2     :     0.002507  d :     0.035182
      dxz     :     0.006331
      dyz     :     0.002390
      dx2y2   :     0.013095
      dxy     :     0.010859
  4 C s       :     3.156651  s :     3.156651
      pz      :     0.986511  p :     2.787462
      px      :     0.856954
      py      :     0.943998
      dz2     :     0.002508  d :     0.035177
      dxz     :     0.002930
      dyz     :     0.005790
      dx2y2   :     0.011958
      dxy     :     0.011991
  5 C s       :     3.156720  s :     3.156720
      pz      :     0.986514  p :     2.787719
      px      :     0.884178
      py      :     0.917026
      dz2     :     0.002508  d :     0.035180
      dxz     :     0.003820
      dyz     :     0.004900
      dx2y2   :     0.010874
      dxy     :     0.013078
  6 H s       :     0.997485  s :     0.997485
      pz      :     0.004750  p :     0.022962
      px      :     0.003583
      py      :     0.014629
  7 H s       :     0.997505  s :     0.997505
      pz      :     0.004751  p :     0.022964
      px      :     0.010621
      py      :     0.007592
  8 H s       :     0.997759  s :     0.997759
      pz      :     0.004750  p :     0.022967
      px      :     0.013117
      py      :     0.005100
  9 H s       :     0.997486  s :     0.997486
      pz      :     0.004750  p :     0.022962
      px      :     0.003583
      py      :     0.014629
 10 H s       :     0.997502  s :     0.997502
      pz      :     0.004751  p :     0.022963
      px      :     0.010621
      py      :     0.007592
 11 H s       :     0.997759  s :     0.997759
      pz      :     0.004750  p :     0.022967
      px      :     0.013117
      py      :     0.005100


                     *******************************
                     * LOEWDIN POPULATION ANALYSIS *
                     *******************************

----------------------
LOEWDIN ATOMIC CHARGES
----------------------
   0 C :   -0.025016
   1 C :   -0.024950
   2 C :   -0.024974
   3 C :   -0.025018
   4 C :   -0.024949
   5 C :   -0.024974
   6 H :    0.025000
   7 H :    0.024988
   8 H :    0.024951
   9 H :    0.025001
  10 H :    0.024990
  11 H :    0.024951

-------------------------------
LOEWDIN REDUCED ORBITAL CHARGES
-------------------------------
  0 C s       :     2.859791  s :     2.859791
      pz      :     0.967984  p :     3.074078
      px      :     1.068589
      py      :     1.037504
      dz2     :     0.006168  d :     0.091147
      dxz     :     0.013609
      dyz     :     0.004057
      dx2y2   :     0.036214
      dxy     :     0.031100
  1 C s       :     2.859803  s :     2.859803
      pz      :     0.967953  p :     3.073998
      px      :     1.041735
      py      :     1.064310
      dz2     :     0.006168  d :     0.091149
      dxz     :     0.005367
      dyz     :     0.012300
      dx2y2   :     0.033618
      dxy     :     0.033696
  2 C s       :     2.859796  s :     2.859796
      pz      :     0.967953  p :     3.074031
      px      :     1.048776
      py      :     1.057302
      dz2     :     0.006168  d :     0.091147
      dxz     :     0.007524
      dyz     :     0.010142
      dx2y2   :     0.031138
      dxy     :     0.036175
  3 C s       :     2.859789  s :     2.859789
      pz      :     0.967985  p :     3.074081
      px      :     1.068591
      py      :     1.037504
      dz2     :     0.006168  d :     0.091148
      dxz     :     0.013609
      dyz     :     0.004057
      dx2y2   :     0.036214
      dxy     :     0.031100
  4 C s       :     2.859803  s :     2.859803
      pz      :     0.967952  p :     3.073997
      px      :     1.041735
      py      :     1.064310
      dz2     :     0.006168  d :     0.091149
      dxz     :     0.005367
      dyz     :     0.012300
      dx2y2   :     0.033619
      dxy     :     0.033696
  5 C s       :     2.859796  s :     2.859796
      pz      :     0.967954  p :     3.074031
      px      :     1.048775
      py      :     1.057302
      dz2     :     0.006168  d :     0.091146
      dxz     :     0.007524
      dyz     :     0.010142
      dx2y2   :     0.031138
      dxy     :     0.036174
  6 H s       :     0.907678  s :     0.907678
      pz      :     0.014371  p :     0.067322
      px      :     0.011706
      py      :     0.041245
  7 H s       :     0.907692  s :     0.907692
      pz      :     0.014370  p :     0.067319
      px      :     0.030523
      py      :     0.022426
  8 H s       :     0.907731  s :     0.907731
      pz      :     0.014370  p :     0.067318
      px      :     0.037194
      py      :     0.015754
  9 H s       :     0.907677  s :     0.907677
      pz      :     0.014371  p :     0.067322
      px      :     0.011706
      py      :     0.041245
 10 H s       :     0.907693  s :     0.907693
      pz      :     0.014370  p :     0.067318
      px      :     0.030523
      py      :     0.022425
 11 H s       :     0.907731  s :     0.907731
      pz      :     0.014370  p :     0.067318
      px      :     0.037194
      py      :     0.015754


                      *****************************
                      * MAYER POPULATION ANALYSIS *
                      *****************************

  NA   - Mulliken gross atomic population
  ZA   - Total nuclear charge
  QA   - Mulliken gross atomic charge
  VA   - Mayer's total valence
  BVA  - Mayer's bonded valence
  FA   - Mayer's free valence

  ATOM       NA         ZA         QA         VA         BVA        FA
  0 C      5.9794     6.0000     0.0206     3.8522     3.8522     0.0000
  1 C      5.9793     6.0000     0.0207     3.8522     3.8522     0.0000
  2 C      5.9796     6.0000     0.0204     3.8521     3.8521     0.0000
  3 C      5.9794     6.0000     0.0206     3.8521     3.8521     0.0000
  4 C      5.9793     6.0000     0.0207     3.8522     3.8522     0.0000
  5 C      5.9796     6.0000     0.0204     3.8521     3.8521     0.0000
  6 H      1.0204     1.0000    -0.0204     0.9769     0.9769     0.0000
  7 H      1.0205     1.0000    -0.0205     0.9769     0.9769    -0.0000
  8 H      1.0207     1.0000    -0.0207     0.9769     0.9769     0.0000
  9 H      1.0204     1.0000    -0.0204     0.9769     0.9769     0.0000
 10 H      1.0205     1.0000    -0.0205     0.9769     0.9769    -0.0000
 11 H      1.0207     1.0000    -0.0207     0.9769     0.9769     0.0000

  Mayer bond orders larger than 0.100000
B(  0-C ,  1-C ) :   1.3920 B(  0-C ,  5-C ) :   1.3919 B(  0-C ,  6-H ) :   0.9859 
B(  1-C ,  2-C ) :   1.3918 B(  1-C , 11-H ) :   0.9861 B(  2-C ,  3-C ) :   1.3919 
B(  2-C , 10-H ) :   0.9860 B(  3-C ,  4-C ) :   1.3920 B(  3-C ,  9-H ) :   0.9859 
B(  4-C ,  5-C ) :   1.3918 B(  4-C ,  8-H ) :   0.9861 B(  5-C ,  7-H ) :   0.9860 


-------
TIMINGS
-------

Total SCF time: 0 days 0 hours 0 min 32 sec 

Total time                  ....      32.186 sec
Sum of individual times     ....      31.987 sec  ( 99.4%)

Fock matrix formation       ....      30.335 sec  ( 94.2%)
  Split-RI-J                ....       2.034 sec  (  6.7% of F)
  Chain of spheres X        ....      22.747 sec  ( 75.0% of F)
  XC integration            ....       5.486 sec  ( 18.1% of F)
    Basis function eval.    ....       2.138 sec  ( 39.0% of XC)
    Density eval.           ....       1.374 sec  ( 25.0% of XC)
    XC-Functional eval.     ....       0.496 sec  (  9.0% of XC)
    XC-Potential eval.      ....       1.166 sec  ( 21.3% of XC)
Diagonalization             ....       0.018 sec  (  0.1%)
Density matrix formation    ....       0.006 sec  (  0.0%)
Population analysis         ....       0.022 sec  (  0.1%)
Initial guess               ....       0.248 sec  (  0.8%)
Orbital Transformation      ....       0.000 sec  (  0.0%)
Orbital Orthonormalization  ....       0.000 sec  (  0.0%)
DIIS solution               ....       0.057 sec  (  0.2%)
SOSCF solution              ....       0.015 sec  (  0.0%)
Grid generation             ....       1.286 sec  (  4.0%)

Maximum memory used throughout the entire SCF-calculation: 58.1 MB


-------------------------------------------------------------------------------
                          DFT DISPERSION CORRECTION                            
                                                                               
                              DFTD3 V3.1  Rev 1                                
                          USING Becke-Johnson damping                          
-------------------------------------------------------------------------------
The B3LYP functional is recognized
Active option DFTDOPT                   ...         4   

molecular C6(AA) [au] = 1659.433054 


            DFT-D V3
 parameters
 s6 scaling factor         :     1.0000 
 a1 scaling factor         :     0.3981 
 s8 scaling factor         :     1.9889 
 a2 scaling factor         :     4.4211 
 ad hoc parameters k1-k3   :    16.0000     1.3333    -4.0000 

 Edisp/kcal,au: -11.869319796057  -0.018914963073 
 E6   /kcal   :  -5.472106328 
 E8   /kcal   :  -6.397213468 
 % E8         :  53.897052044 

-------------------------   ----------------
Dispersion correction           -0.018914963
-------------------------   ----------------


-------------------------   --------------------
FINAL SINGLE POINT ENERGY      -231.949339643178
-------------------------   --------------------


                            ***************************************
                            *     ORCA property calculations      *
                            ***************************************

                                    ---------------------
                                    Active property flags
                                    ---------------------
   (+) Dipole Moment


------------------------------------------------------------------------------
                       ORCA ELECTRIC PROPERTIES CALCULATION
------------------------------------------------------------------------------

Dipole Moment Calculation                       ... on
Quadrupole Moment Calculation                   ... off
Polarizability Calculation                      ... off
GBWName                                         ... benzen_fukui.gbw
Electron density                                ... benzen_fukui.scfp
The origin for moment calculation is the CENTER OF MASS  = (-7.464217,  0.406764  0.000000)

-------------
DIPOLE MOMENT
-------------
                                X             Y             Z
Electronic contribution:      0.00001       0.00000      -0.00000
Nuclear contribution   :     -0.00001      -0.00000       0.00000
                        -----------------------------------------
Total Dipole Moment    :      0.00000       0.00000      -0.00000
                        -----------------------------------------
Magnitude (a.u.)       :      0.00000
Magnitude (Debye)      :      0.00000



--------------------
Rotational spectrum 
--------------------
 
Rotational constants in cm-1:     0.190144     0.190142     0.095071 
Rotational constants in MHz :  5700.361471  5700.315818  2850.169322 

 Dipole components along the rotational axes: 
x,y,z [a.u.] :    -0.000000    -0.000001    -0.000000 
x,y,z [Debye]:    -0.000000    -0.000002    -0.000000 

 

Timings for individual modules:

Sum of individual times         ...       32.423 sec (=   0.540 min)
GTO integral calculation        ...        0.204 sec (=   0.003 min)   0.6 %
SCF iterations                  ...       32.219 sec (=   0.537 min)  99.4 %
                             ****ORCA TERMINATED NORMALLY****
TOTAL RUN TIME: 0 days 0 hours 0 minutes 32 seconds 815 msec
