
                                 *****************
                                 * O   R   C   A *
                                 *****************

                                            #,                                       
                                            ###                                      
                                            ####                                     
                                            #####                                    
                                            ######                                   
                                           ########,                                 
                                     ,,################,,,,,                         
                               ,,#################################,,                 
                          ,,##########################################,,             
                       ,#########################################, ''#####,          
                    ,#############################################,,   '####,        
                  ,##################################################,,,,####,       
                ,###########''''           ''''###############################       
              ,#####''   ,,,,##########,,,,          '''####'''          '####       
            ,##' ,,,,###########################,,,                        '##       
           ' ,,###''''                  '''############,,,                           
         ,,##''                                '''############,,,,        ,,,,,,###''
      ,#''                                            '''#######################'''  
     '                                                          ''''####''''         
             ,#######,   #######,   ,#######,      ##                                
            ,#'     '#,  ##    ##  ,#'     '#,    #''#        ######   ,####,        
            ##       ##  ##   ,#'  ##            #'  '#       #        #'  '#        
            ##       ##  #######   ##           ,######,      #####,   #    #        
            '#,     ,#'  ##    ##  '#,     ,#' ,#      #,         ##   #,  ,#        
             '#######'   ##     ##  '#######'  #'      '#     #####' # '####'        



                  #######################################################
                  #                        -***-                        #
                  #          Department of theory and spectroscopy      #
                  #    Directorship and core code : Frank Neese         #
                  #        Max Planck Institute fuer Kohlenforschung    #
                  #                Kaiser Wilhelm Platz 1               #
                  #                 D-45470 Muelheim/Ruhr               #
                  #                      Germany                        #
                  #                                                     #
                  #                  All rights reserved                #
                  #                        -***-                        #
                  #######################################################



                         Program Version 5.0.4 -  RELEASE  -

 With contributions from (in alphabetic order):
   Daniel Aravena         : Magnetic Suceptibility
   Michael Atanasov       : Ab Initio Ligand Field Theory (pilot matlab implementation)
   Alexander A. Auer      : GIAO ZORA, VPT2 properties, NMR spectrum
   Ute Becker             : Parallelization
   Giovanni Bistoni       : ED, misc. LED, open-shell LED, HFLD
   Martin Brehm           : Molecular dynamics
   Dmytro Bykov           : SCF Hessian
   Vijay G. Chilkuri      : MRCI spin determinant printing, contributions to CSF-ICE
   Dipayan Datta          : RHF DLPNO-CCSD density
   Achintya Kumar Dutta   : EOM-CC, STEOM-CC
   Dmitry Ganyushin       : Spin-Orbit,Spin-Spin,Magnetic field MRCI
   Miquel Garcia          : C-PCM and meta-GGA Hessian, CC/C-PCM, Gaussian charge scheme
   Yang Guo               : DLPNO-NEVPT2, F12-NEVPT2, CIM, IAO-localization
   Andreas Hansen         : Spin unrestricted coupled pair/coupled cluster methods
   Benjamin Helmich-Paris : MC-RPA, TRAH-SCF, COSX integrals
   Lee Huntington         : MR-EOM, pCC
   Robert Izsak           : Overlap fitted RIJCOSX, COSX-SCS-MP3, EOM
   Marcus Kettner         : VPT2
   Christian Kollmar      : KDIIS, OOCD, Brueckner-CCSD(T), CCSD density, CASPT2, CASPT2-K
   Simone Kossmann        : Meta GGA functionals, TD-DFT gradient, OOMP2, MP2 Hessian
   Martin Krupicka        : Initial AUTO-CI
   Lucas Lang             : DCDCAS
   Marvin Lechner         : AUTO-CI (C++ implementation), FIC-MRCC
   Dagmar Lenk            : GEPOL surface, SMD
   Dimitrios Liakos       : Extrapolation schemes; Compound Job, initial MDCI parallelization
   Dimitrios Manganas     : Further ROCIS development; embedding schemes
   Dimitrios Pantazis     : SARC Basis sets
   Anastasios Papadopoulos: AUTO-CI, single reference methods and gradients
   Taras Petrenko         : DFT Hessian,TD-DFT gradient, ASA, ECA, R-Raman, ABS, FL, XAS/XES, NRVS
   Peter Pinski           : DLPNO-MP2, DLPNO-MP2 Gradient
   Christoph Reimann      : Effective Core Potentials
   Marius Retegan         : Local ZFS, SOC
   Christoph Riplinger    : Optimizer, TS searches, QM/MM, DLPNO-CCSD(T), (RO)-DLPNO pert. Triples
   Tobias Risthaus        : Range-separated hybrids, TD-DFT gradient, RPA, STAB
   Michael Roemelt        : Original ROCIS implementation
   Masaaki Saitow         : Open-shell DLPNO-CCSD energy and density
   Barbara Sandhoefer     : DKH picture change effects
   Avijit Sen             : IP-ROCIS
   Kantharuban Sivalingam : CASSCF convergence, NEVPT2, FIC-MRCI
   Bernardo de Souza      : ESD, SOC TD-DFT
   Georgi Stoychev        : AutoAux, RI-MP2 NMR, DLPNO-MP2 response
   Willem Van den Heuvel  : Paramagnetic NMR
   Boris Wezisla          : Elementary symmetry handling
   Frank Wennmohs         : Technical directorship


 We gratefully acknowledge several colleagues who have allowed us to
 interface, adapt or use parts of their codes:
   Stefan Grimme, W. Hujo, H. Kruse, P. Pracht,  : VdW corrections, initial TS optimization,
                  C. Bannwarth, S. Ehlert          DFT functionals, gCP, sTDA/sTD-DF
   Ed Valeev, F. Pavosevic, A. Kumar             : LibInt (2-el integral package), F12 methods
   Garnet Chan, S. Sharma, J. Yang, R. Olivares  : DMRG
   Ulf Ekstrom                                   : XCFun DFT Library
   Mihaly Kallay                                 : mrcc  (arbitrary order and MRCC methods)
   Jiri Pittner, Ondrej Demel                    : Mk-CCSD
   Frank Weinhold                                : gennbo (NPA and NBO analysis)
   Christopher J. Cramer and Donald G. Truhlar   : smd solvation model
   Lars Goerigk                                  : TD-DFT with DH, B97 family of functionals
   V. Asgeirsson, H. Jonsson                     : NEB implementation
   FAccTs GmbH                                   : IRC, NEB, NEB-TS, DLPNO-Multilevel, CI-OPT
                                                   MM, QMMM, 2- and 3-layer-ONIOM, Crystal-QMMM,
                                                   LR-CPCM, SF, NACMEs, symmetry and pop. for TD-DFT,
                                                   nearIR, NL-DFT gradient (VV10), updates on ESD,
                                                   ML-optimized integration grids
   S Lehtola, MJT Oliveira, MAL Marques          : LibXC Library
   Liviu Ungur et al                             : ANISO software


 Your calculation uses the libint2 library for the computation of 2-el integrals
 For citations please refer to: http://libint.valeyev.net

 Your ORCA version has been built with support for libXC version: 5.1.0
 For citations please refer to: https://tddft.org/programs/libxc/

 This ORCA versions uses:
   CBLAS   interface :  Fast vector & matrix operations
   LAPACKE interface :  Fast linear algebra routines
   Shared memory     :  Shared parallel matrices


================================================================================

----- Orbital basis set information -----
Your calculation utilizes the basis: cc-pVTZ 
       H, B-Ne : Obtained from the ccRepo (grant-hill.group.shef.ac.uk/ccrepo) Feb. 2017
                 T. H. Dunning, Jr., J. Chem. Phys. 90, 1007 (1989)
            He : Obtained from the ccRepo (grant-hill.group.shef.ac.uk/ccrepo) Feb. 2017
                 D. E. Woon, T. H. Dunning, Jr., J. Chem. Phys. 100, 2975 (1994)
  Li-Be, Na-Mg : Obtained from the ccRepo (grant-hill.group.shef.ac.uk/ccrepo) Feb. 2017
                 B. P. Prascher, D. E. Woon, K. A. Peterson, T. H. Dunning, Jr., A. K. Wilson, Theor. Chem. Acc. 128, 69 (2011)
         Al-Ar : Obtained from the ccRepo (grant-hill.group.shef.ac.uk/ccrepo) Feb. 2017
                 D. E. Woon, T. H. Dunning, Jr., J. Chem. Phys. 98, 1358 (1993)
            Ca : Obtained from the Peterson Research Group Website (tyr0.chem.wsu.edu/~kipeters) Feb. 2017
                 J. Koput, K. A. Peterson, J. Phys. Chem. 106, 9595 (2002)
         Sc-Zn : Obtained from the ccRepo (grant-hill.group.shef.ac.uk/ccrepo) Feb. 2017
                 N. B. Balabanov, K. A. Peterson, J. Chem. Phys. 123, 064107 (2005)
                 N. B. Balabanov, K. A. Peterson, J. Chem. Phys. 125, 074110 (2006)
         Ga-Kr : Obtained from the ccRepo (grant-hill.group.shef.ac.uk/ccrepo) Feb. 2017
                 A. K. Wilson, D. E. Woon, K. A. Peterson, T. H. Dunning, Jr., J. Chem. Phys. 110, 7667 (1999)
             Y : Obtained from the ccRepo (grant-hill.group.shef.ac.uk/ccrepo) Feb. 2017
                 K. A. Peterson, D. Figgen, M. Dolg, H. Stoll, J. Chem. Phys. 126, 124101 (2007)
        Ag, Au : Obtained from the Peterson Research Group Website (tyr0.chem.wsu.edu/~kipeters) Feb. 2017
                 K. A. Peterson, C. Puzzarini, Theor. Chem. Acc. 114, 283 (2005)

----- AuxJ basis set information -----
Your calculation utilizes the auxiliary basis: def2/J
   F. Weigend, Phys. Chem. Chem. Phys. 8, 1057 (2006).

================================================================================
                                        WARNINGS
                       Please study these warnings very carefully!
================================================================================


INFO   : the flag for use of the SHARK integral package has been found!

================================================================================
                                       INPUT FILE
================================================================================
NAME = B3PW91.inp
|  1> !B3PW91 cc-pVTZ
|  2> 
|  3> * xyz 0 1
|  4>   C   -1.05354596271083      1.42135243576665     -0.73549220185663
|  5>   C   -1.76717691585433      0.81968690597605      0.22444324622836
|  6>   C   -0.91604797271676     -0.21504620254596      0.92339098529051
|  7>   C   -3.18658916550982      1.06760146729181      0.62043996179919
|  8>   H   -3.65177058285626      1.84890976029203      0.00161745831760
|  9>   H   -3.25259686050292      1.37975261146372      1.67787971117939
| 10>   H   -3.79133874736600      0.14808169577577      0.52701048897989
| 11>   C   0.35705795446457      0.89749440001034     -0.79501799653405
| 12>   C   1.41588701773226      2.02006837281249     -0.63884945754235
| 13>   C   2.80881703463114      1.41251132710473     -0.63583732910559
| 14>   H   1.20967085252781      2.57392305919014      0.29049098629325
| 15>   H   1.34740263144453      2.70902449090648     -1.49554455642121
| 16>   C   3.37622781232091      1.19049215945855      0.75754145591531
| 17>   N   0.41123761481178     -0.07210345422347      0.31381604773552
| 18>   H   0.56307393880421      0.40954505459904     -1.76931562713006
| 19>   H   -1.34153580290440     -1.23063666814028      0.78694765203342
| 20>   H   -0.89469173408622     -0.03961126720342      2.01833030977159
| 21>   H   0.80199521648994     -0.96262165511348      0.02364954504097
| 22>   O   3.36130687691708      1.06897825383177     -1.65256833709520
| 23>   Cl  4.92950915132907      0.31373216343513      0.77168111918747
| 24>   H   2.62051255229742      0.61607693324621      1.31840686987001
| 25>   H   3.50773757250952      2.16097047317234      1.26235402519175
| 26>   H   -1.41589248177270      2.21265768289335     -1.39571435714913
| 27> **                         ****END OF INPUT****
================================================================================

                       ****************************
                       * Single Point Calculation *
                       ****************************

---------------------------------
CARTESIAN COORDINATES (ANGSTROEM)
---------------------------------
  C     -1.053546    1.421352   -0.735492
  C     -1.767177    0.819687    0.224443
  C     -0.916048   -0.215046    0.923391
  C     -3.186589    1.067601    0.620440
  H     -3.651771    1.848910    0.001617
  H     -3.252597    1.379753    1.677880
  H     -3.791339    0.148082    0.527010
  C      0.357058    0.897494   -0.795018
  C      1.415887    2.020068   -0.638849
  C      2.808817    1.412511   -0.635837
  H      1.209671    2.573923    0.290491
  H      1.347403    2.709024   -1.495545
  C      3.376228    1.190492    0.757541
  N      0.411238   -0.072103    0.313816
  H      0.563074    0.409545   -1.769316
  H     -1.341536   -1.230637    0.786948
  H     -0.894692   -0.039611    2.018330
  H      0.801995   -0.962622    0.023650
  O      3.361307    1.068978   -1.652568
  Cl     4.929509    0.313732    0.771681
  H      2.620513    0.616077    1.318407
  H      3.507738    2.160970    1.262354
  H     -1.415892    2.212658   -1.395714

----------------------------
CARTESIAN COORDINATES (A.U.)
----------------------------
  NO LB      ZA    FRAG     MASS         X           Y           Z
   0 C     6.0000    0    12.011   -1.990913    2.685967   -1.389879
   1 C     6.0000    0    12.011   -3.339480    1.548984    0.424136
   2 C     6.0000    0    12.011   -1.731080   -0.406378    1.744956
   3 C     6.0000    0    12.011   -6.021781    2.017474    1.172462
   4 H     1.0000    0     1.008   -6.900846    3.493933    0.003057
   5 H     1.0000    0     1.008   -6.146517    2.607355    3.170733
   6 H     1.0000    0     1.008   -7.164592    0.279834    0.995905
   7 C     6.0000    0    12.011    0.674742    1.696019   -1.502366
   8 C     6.0000    0    12.011    2.675639    3.817376   -1.207251
   9 C     6.0000    0    12.011    5.307895    2.669260   -1.201558
  10 H     1.0000    0     1.008    2.285947    4.864010    0.548948
  11 H     1.0000    0     1.008    2.546222    5.119314   -2.826170
  12 C     6.0000    0    12.011    6.380146    2.249704    1.431546
  13 N     7.0000    0    14.007    0.777126   -0.136256    0.593026
  14 H     1.0000    0     1.008    1.064056    0.773928   -3.343522
  15 H     1.0000    0     1.008   -2.535135   -2.325566    1.487116
  16 H     1.0000    0     1.008   -1.690722   -0.074854    3.814092
  17 H     1.0000    0     1.008    1.515551   -1.819091    0.044691
  18 O     8.0000    0    15.999    6.351949    2.020076   -3.122902
  19 Cl   17.0000    0    35.453    9.315422    0.592868    1.458266
  20 H     1.0000    0     1.008    4.952051    1.164217    2.491428
  21 H     1.0000    0     1.008    6.628663    4.083642    2.385503
  22 H     1.0000    0     1.008   -2.675649    4.181317   -2.637518

--------------------------------
INTERNAL COORDINATES (ANGSTROEM)
--------------------------------
 C      0   0   0     0.000000000000     0.00000000     0.00000000
 C      1   0   0     1.338934879489     0.00000000     0.00000000
 C      2   1   0     1.511165452774   109.82196906     0.00000000
 C      2   1   3     1.494324651114   128.44062839   179.78269870
 H      4   2   1     1.099898945618   111.74548719     0.56287256
 H      4   2   1     1.104524411761   110.93787333   239.70122251
 H      4   2   1     1.104521495198   111.07206626   121.48725273
 C      1   2   3     1.505913003134   111.79412486   359.04900444
 C      8   1   2     1.551025442152   112.56335804   236.40577598
 C      9   8   1     1.519667288812   109.66823387   177.07142628
 H      9   8   1     1.101341809323   108.73027453    54.57694854
 H      9   8   1     1.101488600153   109.38669597   295.31290613
 C     10   9   8     1.520773467676   113.71409416   262.94198134
 N      3   2   1     1.467549407909   104.51207102     3.94388319
 H      8   1   2     1.108960334041   111.21128859   117.28720759
 H      3   2   1     1.109540747622   110.72492162   242.40782782
 H      3   2   1     1.109110287466   111.04803639   125.08450044
 H     14   3   2     1.014845194437   112.42873142   228.76442572
 O     10   9   8     1.207063354124   122.11734072    78.62710422
 Cl    13  10   9     1.783701471327   113.82421088   173.56777860
 H     13  10   9     1.102555404008   106.64293304    52.48876903
 H     13  10   9     1.101797941781   109.61716057   295.91096255
 H      1   2   3     1.092406649717   125.59235336   180.27335036

---------------------------
INTERNAL COORDINATES (A.U.)
---------------------------
 C      0   0   0     0.000000000000     0.00000000     0.00000000
 C      1   0   0     2.530220233389     0.00000000     0.00000000
 C      2   1   0     2.855688848786   109.82196906     0.00000000
 C      2   1   3     2.823864345773   128.44062839   179.78269870
 H      4   2   1     2.078507782206   111.74548719     0.56287256
 H      4   2   1     2.087248646458   110.93787333   239.70122251
 H      4   2   1     2.087243134954   111.07206626   121.48725273
 C      1   2   3     2.845763157435   111.79412486   359.04900444
 C      8   1   2     2.931013312412   112.56335804   236.40577598
 C      9   8   1     2.871754990533   109.66823387   177.07142628
 H      9   8   1     2.081234399458   108.73027453    54.57694854
 H      9   8   1     2.081511793926   109.38669597   295.31290613
 C     10   9   8     2.873845365641   113.71409416   262.94198134
 N      3   2   1     2.773266468946   104.51207102     3.94388319
 H      8   1   2     2.095631324719   111.21128859   117.28720759
 H      3   2   1     2.096728147432   110.72492162   242.40782782
 H      3   2   1     2.095914695625   111.04803639   125.08450044
 H     14   3   2     1.917779485812   112.42873142   228.76442572
 O     10   9   8     2.281019165587   122.11734072    78.62710422
 Cl    13  10   9     3.370707285481   113.82421088   173.56777860
 H     13  10   9     2.083527761050   106.64293304    52.48876903
 H     13  10   9     2.082096364884   109.61716057   295.91096255
 H      1   2   3     2.064349394839   125.59235336   180.27335036

---------------------
BASIS SET INFORMATION
---------------------
There are 5 groups of distinct atoms

 Group   1 Type C   : 18s5p2d1f contracted to 4s3p2d1f pattern {8811/311/11/1}
 Group   2 Type H   : 5s2p1d contracted to 3s2p1d pattern {311/11/1}
 Group   3 Type N   : 18s5p2d1f contracted to 4s3p2d1f pattern {8811/311/11/1}
 Group   4 Type O   : 18s5p2d1f contracted to 4s3p2d1f pattern {8811/311/11/1}
 Group   5 Type Cl  : 41s16p2d1f contracted to 5s4p2d1f pattern {13131311/7711/11/1}

Atom   0C    basis set group =>   1
Atom   1C    basis set group =>   1
Atom   2C    basis set group =>   1
Atom   3C    basis set group =>   1
Atom   4H    basis set group =>   2
Atom   5H    basis set group =>   2
Atom   6H    basis set group =>   2
Atom   7C    basis set group =>   1
Atom   8C    basis set group =>   1
Atom   9C    basis set group =>   1
Atom  10H    basis set group =>   2
Atom  11H    basis set group =>   2
Atom  12C    basis set group =>   1
Atom  13N    basis set group =>   3
Atom  14H    basis set group =>   2
Atom  15H    basis set group =>   2
Atom  16H    basis set group =>   2
Atom  17H    basis set group =>   2
Atom  18O    basis set group =>   4
Atom  19Cl   basis set group =>   5
Atom  20H    basis set group =>   2
Atom  21H    basis set group =>   2
Atom  22H    basis set group =>   2
---------------------------------
AUXILIARY/J BASIS SET INFORMATION
---------------------------------
There are 5 groups of distinct atoms

 Group   1 Type C   : 12s5p4d2f1g contracted to 6s4p3d1f1g pattern {711111/2111/211/2/1}
 Group   2 Type H   : 5s2p1d contracted to 3s1p1d pattern {311/2/1}
 Group   3 Type N   : 12s5p4d2f1g contracted to 6s4p3d1f1g pattern {711111/2111/211/2/1}
 Group   4 Type O   : 12s5p4d2f1g contracted to 6s4p3d1f1g pattern {711111/2111/211/2/1}
 Group   5 Type Cl  : 14s5p5d2f1g contracted to 8s4p3d1f1g pattern {71111111/2111/311/2/1}

Atom   0C    basis set group =>   1
Atom   1C    basis set group =>   1
Atom   2C    basis set group =>   1
Atom   3C    basis set group =>   1
Atom   4H    basis set group =>   2
Atom   5H    basis set group =>   2
Atom   6H    basis set group =>   2
Atom   7C    basis set group =>   1
Atom   8C    basis set group =>   1
Atom   9C    basis set group =>   1
Atom  10H    basis set group =>   2
Atom  11H    basis set group =>   2
Atom  12C    basis set group =>   1
Atom  13N    basis set group =>   3
Atom  14H    basis set group =>   2
Atom  15H    basis set group =>   2
Atom  16H    basis set group =>   2
Atom  17H    basis set group =>   2
Atom  18O    basis set group =>   4
Atom  19Cl   basis set group =>   5
Atom  20H    basis set group =>   2
Atom  21H    basis set group =>   2
Atom  22H    basis set group =>   2
------------------------------------------------------------------------------
                           ORCA GTO INTEGRAL CALCULATION
                           -- RI-GTO INTEGRALS CHOSEN --
------------------------------------------------------------------------------
------------------------------------------------------------------------------
                   ___                                                        
                  /   \      - P O W E R E D   B Y -                         
                 /     \                                                     
                 |  |  |   _    _      __       _____    __    __             
                 |  |  |  | |  | |    /  \     |  _  \  |  |  /  |          
                  \  \/   | |  | |   /    \    | | | |  |  | /  /          
                 / \  \   | |__| |  /  /\  \   | |_| |  |  |/  /          
                |  |  |   |  __  | /  /__\  \  |    /   |      \           
                |  |  |   | |  | | |   __   |  |    \   |  |\   \          
                \     /   | |  | | |  |  |  |  | |\  \  |  | \   \       
                 \___/    |_|  |_| |__|  |__|  |_| \__\ |__|  \__/        
                                                                              
                      - O R C A' S   B I G   F R I E N D -                    
                                      &                                       
                       - I N T E G R A L  F E E D E R -                       
                                                                              
 v1 FN, 2020, v2 2021                                                         
------------------------------------------------------------------------------


Reading SHARK input file B3PW91.SHARKINP.tmp ... ok
----------------------
SHARK INTEGRAL PACKAGE
----------------------

Number of atoms                             ...     23
Number of basis functions                   ...    587
Number of shells                            ...    259
Maximum angular momentum                    ...      3
Integral batch strategy                     ... SHARK/LIBINT Hybrid
RI-J (if used) integral strategy            ... SPLIT-RIJ (Revised 2003 algorithm where possible)
Printlevel                                  ...      1
Contraction scheme used                     ... PARTIAL GENERAL contraction
Coulomb Range Separation                    ... NOT USED
Exchange Range Separation                   ... NOT USED
Finite Nucleus Model                        ... NOT USED
Auxiliary Coulomb fitting basis             ... AVAILABLE
   # of basis functions in Aux-J            ...    673
   # of shells in Aux-J                     ...    227
   Maximum angular momentum in Aux-J        ...      4
Auxiliary J/K fitting basis                 ... NOT available
Auxiliary Correlation fitting basis         ... NOT available
Auxiliary 'external' fitting basis          ... NOT available
Integral threshold                          ...     1.000000e-10
Primitive cut-off                           ...     1.000000e-11
Primitive pair pre-selection threshold      ...     1.000000e-11

Calculating pre-screening integrals         ... done (  0.2 sec) Dimension = 259
Calculating pre-screening integrals (ORCA)  ... done (  0.8 sec) Dimension = 184
Organizing shell pair data                  ... done (  0.4 sec)
Shell pair information
Total number of shell pairs                 ...     33670
Shell pairs after pre-screening             ...     21588
Total number of primitive shell pairs       ...     46122
Primitive shell pairs kept                  ...     26638
          la=0 lb=0:   6255 shell pairs
          la=1 lb=0:   6354 shell pairs
          la=1 lb=1:   1537 shell pairs
          la=2 lb=0:   3379 shell pairs
          la=2 lb=1:   1632 shell pairs
          la=2 lb=2:    455 shell pairs
          la=3 lb=0:   1105 shell pairs
          la=3 lb=1:    525 shell pairs
          la=3 lb=2:    291 shell pairs
          la=3 lb=3:     55 shell pairs

Calculating one electron integrals          ... done (  0.3 sec)
Calculating RI/J V-Matrix + Cholesky decomp.... done (  0.1 sec)
Calculating Nuclear repulsion               ... done (  0.0 sec) ENN=    682.250720776388 Eh

SHARK setup successfully completed in   2.2 seconds

Maximum memory used throughout the entire GTOINT-calculation: 194.3 MB
-------------------------------------------------------------------------------
                                 ORCA SCF
-------------------------------------------------------------------------------

------------
SCF SETTINGS
------------
Hamiltonian:
 Density Functional     Method          .... DFT(GTOs)
 Exchange Functional    Exchange        .... B88
   X-Alpha parameter    XAlpha          ....  0.666667
   Becke's b parameter  XBeta           ....  0.004200
 Correlation Functional Correlation     .... PW91
 LDA part of GGA corr.  LDAOpt          .... PW91-LDA
 Gradients option       PostSCFGGA      .... off
 Hybrid DFT is turned on
   Fraction HF Exchange ScalHFX         ....  0.200000
   Scaling of DF-GGA-X  ScalDFX         ....  0.720000
   Scaling of DF-GGA-C  ScalDFC         ....  0.810000
   Scaling of DF-LDA-C  ScalLDAC        ....  1.000000
   Perturbative correction              ....  0.000000
   Density functional embedding theory  .... OFF
   NL short-range parameter             ....  4.500000
 RI-approximation to the Coulomb term is turned on
   Number of AuxJ basis functions       .... 673
   RIJ-COSX (HFX calculated with COS-X)).... on


General Settings:
 Integral files         IntName         .... B3PW91
 Hartree-Fock type      HFTyp           .... RHF
 Total Charge           Charge          ....    0
 Multiplicity           Mult            ....    1
 Number of Electrons    NEL             ....   92
 Basis Dimension        Dim             ....  502
 Nuclear Repulsion      ENuc            ....    682.2507207764 Eh

Convergence Acceleration:
 DIIS                   CNVDIIS         .... on
   Start iteration      DIISMaxIt       ....    12
   Startup error        DIISStart       ....  0.200000
   # of expansion vecs  DIISMaxEq       ....     5
   Bias factor          DIISBfac        ....   1.050
   Max. coefficient     DIISMaxC        ....  10.000
 Trust-Rad. Augm. Hess. CNVTRAH         .... auto
   Auto Start mean grad. ratio tolernc. ....  1.125000
   Auto Start start iteration           ....    20
   Auto Start num. interpolation iter.  ....    10
   Max. Number of Micro iterations      ....    16
   Max. Number of Macro iterations      .... Maxiter - #DIIS iter
   Number of Davidson start vectors     ....     2
   Converg. threshold I  (grad. norm)   ....   5.000e-05
   Converg. threshold II (energy diff.) ....   1.000e-06
   Grad. Scal. Fac. for Micro threshold ....   0.100
   Minimum threshold for Micro iter.    ....   0.010
   NR start threshold (gradient norm)   ....   0.001
   Initial trust radius                 ....   0.400
   Minimum AH scaling param. (alpha)    ....   1.000
   Maximum AH scaling param. (alpha)    .... 1000.000
   Orbital update algorithm             .... Taylor
   White noise on init. David. guess    .... on
   Maximum white noise                  ....   0.010
   Quad. conv. algorithm                .... NR
 SOSCF                  CNVSOSCF        .... on
   Start iteration      SOSCFMaxIt      ....   150
   Startup grad/error   SOSCFStart      ....  0.003300
 Level Shifting         CNVShift        .... on
   Level shift para.    LevelShift      ....    0.2500
   Turn off err/grad.   ShiftErr        ....    0.0010
 Zerner damping         CNVZerner       .... off
 Static damping         CNVDamp         .... on
   Fraction old density DampFac         ....    0.7000
   Max. Damping (<1)    DampMax         ....    0.9800
   Min. Damping (>=0)   DampMin         ....    0.0000
   Turn off err/grad.   DampErr         ....    0.1000
 Fernandez-Rico         CNVRico         .... off

SCF Procedure:
 Maximum # iterations   MaxIter         ....   125
 SCF integral mode      SCFMode         .... Direct
   Integral package                     .... SHARK and LIBINT hybrid scheme
 Reset frequency        DirectResetFreq ....    20
 Integral Threshold     Thresh          ....  1.000e-10 Eh
 Primitive CutOff       TCut            ....  1.000e-11 Eh

Convergence Tolerance:
 Convergence Check Mode ConvCheckMode   .... Total+1el-Energy
 Convergence forced     ConvForced      .... 0
 Energy Change          TolE            ....  1.000e-06 Eh
 1-El. energy change                    ....  1.000e-03 Eh
 Orbital Gradient       TolG            ....  5.000e-05
 Orbital Rotation angle TolX            ....  5.000e-05
 DIIS Error             TolErr          ....  1.000e-06


Diagonalization of the overlap matrix:
Smallest eigenvalue                        ... 1.066e-04
Time for diagonalization                   ...    0.049 sec
Threshold for overlap eigenvalues          ... 1.000e-08
Number of eigenvalues below threshold      ... 0
Time for construction of square roots      ...    0.027 sec
Total time needed                          ...    0.076 sec

Time for model grid setup =    0.683 sec

------------------------------
INITIAL GUESS: MODEL POTENTIAL
------------------------------
Loading Hartree-Fock densities                     ... done
Calculating cut-offs                               ... done
Initializing the effective Hamiltonian             ... done
Setting up the integral package (SHARK)            ... done
Starting the Coulomb interaction                   ... done (   1.7 sec)
Reading the grid                                   ... done
Mapping shells                                     ... done
Starting the XC term evaluation                    ... done (   1.3 sec)
  promolecular density results
     # of electrons  =     91.995746497
     EX              =    -86.975808100
     EC              =     -3.378625778
     EX+EC           =    -90.354433878
Transforming the Hamiltonian                       ... done (   0.0 sec)
Diagonalizing the Hamiltonian                      ... done (   0.1 sec)
Back transforming the eigenvectors                 ... done (   0.0 sec)
Now organizing SCF variables                       ... done
                      ------------------
                      INITIAL GUESS DONE (   3.8 sec)
                      ------------------
-------------------
DFT GRID GENERATION
-------------------

General Integration Accuracy     IntAcc      ... 4.388
Radial Grid Type                 RadialGrid  ... OptM3 with GC (2021)
Angular Grid (max. ang.)         AngularGrid ... 4 (Lebedev-302)
Angular grid pruning method      GridPruning ... 4 (adaptive)
Weight generation scheme         WeightScheme... Becke
Basis function cutoff            BFCut       ... 1.0000e-10
Integration weight cutoff        WCut        ... 1.0000e-14
Angular grids for H and He will be reduced by one unit
Partially contracted basis set               ... off
Rotationally invariant grid construction     ... off

Total number of grid points                  ...   105709
Total number of batches                      ...     1664
Average number of points per batch           ...       63
Average number of grid points per atom       ...     4596
Time for grid setup =    2.465 sec

--------------------
COSX GRID GENERATION
--------------------

GRIDX 1
-------
General Integration Accuracy     IntAcc      ... 3.816
Radial Grid Type                 RadialGrid  ... OptM3 with GC (2021)
Angular Grid (max. ang.)         AngularGrid ... 1 (Lebedev-50)
Angular grid pruning method      GridPruning ... 4 (adaptive)
Weight generation scheme         WeightScheme... Becke
Basis function cutoff            BFCut       ... 1.0000e-10
Integration weight cutoff        WCut        ... 1.0000e-14
Angular grids for H and He will be reduced by one unit
Partially contracted basis set               ... on
Rotationally invariant grid construction     ... off

Total number of grid points                  ...    13407
Total number of batches                      ...      223
Average number of points per batch           ...       60
Average number of grid points per atom       ...      583
UseSFitting                                  ... on

GRIDX 2
-------
General Integration Accuracy     IntAcc      ... 4.020
Radial Grid Type                 RadialGrid  ... OptM3 with GC (2021)
Angular Grid (max. ang.)         AngularGrid ... 2 (Lebedev-110)
Angular grid pruning method      GridPruning ... 4 (adaptive)
Weight generation scheme         WeightScheme... Becke
Basis function cutoff            BFCut       ... 1.0000e-10
Integration weight cutoff        WCut        ... 1.0000e-14
Angular grids for H and He will be reduced by one unit
Partially contracted basis set               ... on
Rotationally invariant grid construction     ... off

Total number of grid points                  ...    28758
Total number of batches                      ...      461
Average number of points per batch           ...       62
Average number of grid points per atom       ...     1250
UseSFitting                                  ... on

GRIDX 3
-------
General Integration Accuracy     IntAcc      ... 4.338
Radial Grid Type                 RadialGrid  ... OptM3 with GC (2021)
Angular Grid (max. ang.)         AngularGrid ... 3 (Lebedev-194)
Angular grid pruning method      GridPruning ... 4 (adaptive)
Weight generation scheme         WeightScheme... Becke
Basis function cutoff            BFCut       ... 1.0000e-10
Integration weight cutoff        WCut        ... 1.0000e-14
Angular grids for H and He will be reduced by one unit
Partially contracted basis set               ... on
Rotationally invariant grid construction     ... off

Total number of grid points                  ...    63503
Total number of batches                      ...     1005
Average number of points per batch           ...       63
Average number of grid points per atom       ...     2761
UseSFitting                                  ... on

Time for X-Grid setup             =    4.375 sec

 re-compute Schwartz prescreening matrix in partically contracted basis (1) ...done (   0.210 sec)
--------------
SCF ITERATIONS
--------------
ITER       Energy         Delta-E        Max-DP      RMS-DP      [F,P]     Damp
               ***  Starting incremental Fock matrix formation  ***
  0   -901.9087536713   0.000000000000 0.08735029  0.00074611  0.2834281 0.7000
  1   -902.0439653171  -0.135211645792 0.07137978  0.00056890  0.1070443 0.7000
                               ***Turning on DIIS***
  2   -902.0951699425  -0.051204625423 0.08031666  0.00084672  0.0387263 0.0000
  3   -902.1755158187  -0.080345876118 0.06382192  0.00044928  0.0512732 0.0000
  4   -902.1942310749  -0.018715256268 0.01483756  0.00012911  0.0135719 0.0000
  5   -902.1953994801  -0.001168405205 0.00599951  0.00004980  0.0090501 0.0000
                      *** Initiating the SOSCF procedure ***
                           *** Shutting down DIIS ***
                      *** Re-Reading the Fockian *** 
                      *** Removing any level shift *** 
ITER      Energy       Delta-E        Grad      Rot      Max-DP    RMS-DP
  6   -902.19553161  -0.0001321249  0.000219  0.000219  0.001849  0.000019
               *** Restarting incremental Fock matrix formation ***
  7   -902.19554675  -0.0000151479  0.000085  0.000359  0.001457  0.000012
  8   -902.19554655   0.0000001999  0.000125  0.000199  0.000330  0.000005
  9   -902.19554825  -0.0000016980  0.000032  0.000086  0.000085  0.000002
                 **** Energy Check signals convergence ****
              ***Rediagonalizing the Fockian in SOSCF/NRSCF***

               *****************************************************
               *                     SUCCESS                       *
               *           SCF CONVERGED AFTER  10 CYCLES          *
               *****************************************************

Old exchange energy                            =    -17.613472329 Eh
New exchange energy                            =    -17.613486664 Eh
Exchange energy change after final integration =     -0.000014335 Eh
Total energy after final integration           =   -902.195562489 Eh
Final COS-X integration done in                =   107.357 sec

----------------
TOTAL SCF ENERGY
----------------

Total Energy       :         -902.19556249 Eh          -24549.98935 eV

Components:
Nuclear Repulsion  :          682.25072078 Eh           18564.98594 eV
Electronic Energy  :        -1584.44628327 Eh          -43114.97529 eV
One Electron Energy:        -2588.95936824 Eh          -70449.16598 eV
Two Electron Energy:         1004.51308497 Eh           27334.19069 eV
Max COSX asymmetry :            0.00000276 Eh               0.00007 eV

Virial components:
Potential Energy   :        -1799.81995706 Eh          -48975.59090 eV
Kinetic Energy     :          897.62439458 Eh           24425.60155 eV
Virial Ratio       :            2.00509252


DFT components:
N(Alpha)           :       46.000035867365 electrons
N(Beta)            :       46.000035867365 electrons
N(Total)           :       92.000071734730 electrons
E(X)               :      -69.924028161384 Eh       
E(C)               :       -3.908860402306 Eh       
E(XC)              :      -73.832888563690 Eh       
DFET-embed. en.    :        0.000000000000 Eh       

---------------
SCF CONVERGENCE
---------------

  Last Energy change         ...    9.6474e-08  Tolerance :   1.0000e-06
  Last MAX-Density change    ...    6.2172e-15  Tolerance :   1.0000e-05
  Last RMS-Density change    ...    2.3858e-17  Tolerance :   1.0000e-06
  Last Orbital Gradient      ...    6.3390e-05  Tolerance :   5.0000e-05
  Last Orbital Rotation      ...    6.3619e-05  Tolerance :   5.0000e-05

             **** THE GBW FILE WAS UPDATED (B3PW91.gbw) ****
             **** DENSITY B3PW91.scfp WAS UPDATED ****
             **** ENERGY FILE WAS UPDATED (B3PW91.en.tmp) ****
             **** THE GBW FILE WAS UPDATED (B3PW91.gbw) ****
             **** DENSITY B3PW91.scfp WAS UPDATED ****
----------------
ORBITAL ENERGIES
----------------

  NO   OCC          E(Eh)            E(eV) 
   0   2.0000    -101.524335     -2762.6176 
   1   2.0000     -19.115546      -520.1604 
   2   2.0000     -14.311022      -389.4227 
   3   2.0000     -10.260897      -279.2132 
   4   2.0000     -10.227030      -278.2916 
   5   2.0000     -10.217377      -278.0290 
   6   2.0000     -10.204042      -277.6661 
   7   2.0000     -10.187113      -277.2054 
   8   2.0000     -10.179480      -276.9977 
   9   2.0000     -10.176959      -276.9291 
  10   2.0000     -10.171160      -276.7713 
  11   2.0000      -9.452071      -257.2039 
  12   2.0000      -7.211782      -196.2426 
  13   2.0000      -7.202659      -195.9943 
  14   2.0000      -7.202583      -195.9922 
  15   2.0000      -1.056987       -28.7621 
  16   2.0000      -0.942500       -25.6467 
  17   2.0000      -0.856076       -23.2950 
  18   2.0000      -0.806922       -21.9575 
  19   2.0000      -0.793565       -21.5940 
  20   2.0000      -0.734160       -19.9775 
  21   2.0000      -0.701894       -19.0995 
  22   2.0000      -0.680372       -18.5139 
  23   2.0000      -0.597825       -16.2676 
  24   2.0000      -0.555873       -15.1261 
  25   2.0000      -0.537020       -14.6131 
  26   2.0000      -0.525670       -14.3042 
  27   2.0000      -0.491141       -13.3646 
  28   2.0000      -0.478983       -13.0338 
  29   2.0000      -0.462323       -12.5805 
  30   2.0000      -0.458511       -12.4767 
  31   2.0000      -0.438707       -11.9378 
  32   2.0000      -0.434622       -11.8267 
  33   2.0000      -0.420507       -11.4426 
  34   2.0000      -0.408126       -11.1057 
  35   2.0000      -0.403956       -10.9922 
  36   2.0000      -0.402488       -10.9522 
  37   2.0000      -0.378481       -10.2990 
  38   2.0000      -0.372989       -10.1495 
  39   2.0000      -0.363663        -9.8958 
  40   2.0000      -0.353475        -9.6185 
  41   2.0000      -0.301188        -8.1957 
  42   2.0000      -0.298281        -8.1166 
  43   2.0000      -0.271252        -7.3812 
  44   2.0000      -0.258678        -7.0390 
  45   2.0000      -0.235081        -6.3969 
  46   0.0000      -0.030404        -0.8273 
  47   0.0000       0.000647         0.0176 
  48   0.0000       0.027064         0.7365 
  49   0.0000       0.034004         0.9253 
  50   0.0000       0.047392         1.2896 
  51   0.0000       0.061086         1.6622 
  52   0.0000       0.070787         1.9262 
  53   0.0000       0.085442         2.3250 
  54   0.0000       0.091024         2.4769 
  55   0.0000       0.102901         2.8001 
  56   0.0000       0.108479         2.9519 
  57   0.0000       0.112580         3.0635 
  58   0.0000       0.119242         3.2448 
  59   0.0000       0.127693         3.4747 
  60   0.0000       0.147050         4.0014 
  61   0.0000       0.155353         4.2274 
  62   0.0000       0.167153         4.5485 
  63   0.0000       0.170699         4.6450 
  64   0.0000       0.180503         4.9117 
  65   0.0000       0.190665         5.1883 
  66   0.0000       0.206022         5.6062 
  67   0.0000       0.217791         5.9264 
  68   0.0000       0.235320         6.4034 
  69   0.0000       0.238609         6.4929 
  70   0.0000       0.251734         6.8500 
  71   0.0000       0.275668         7.5013 
  72   0.0000       0.285211         7.7610 
  73   0.0000       0.292040         7.9468 
  74   0.0000       0.296463         8.0672 
  75   0.0000       0.306950         8.3525 
  76   0.0000       0.313638         8.5345 
  77   0.0000       0.317727         8.6458 
  78   0.0000       0.326193         8.8762 
  79   0.0000       0.345048         9.3892 
  80   0.0000       0.349530         9.5112 
  81   0.0000       0.365277         9.9397 
  82   0.0000       0.371341        10.1047 
  83   0.0000       0.374302        10.1853 
  84   0.0000       0.376546        10.2463 
  85   0.0000       0.385522        10.4906 
  86   0.0000       0.396082        10.7780 
  87   0.0000       0.399617        10.8741 
  88   0.0000       0.406552        11.0629 
  89   0.0000       0.411761        11.2046 
  90   0.0000       0.422106        11.4861 
  91   0.0000       0.428624        11.6634 
  92   0.0000       0.430862        11.7243 
  93   0.0000       0.432947        11.7811 
  94   0.0000       0.447191        12.1687 
  95   0.0000       0.454395        12.3647 
  96   0.0000       0.457315        12.4442 
  97   0.0000       0.462577        12.5874 
  98   0.0000       0.466562        12.6958 
  99   0.0000       0.469914        12.7870 
 100   0.0000       0.478589        13.0231 
 101   0.0000       0.483557        13.1582 
 102   0.0000       0.490860        13.3570 
 103   0.0000       0.492406        13.3990 
 104   0.0000       0.502365        13.6701 
 105   0.0000       0.509863        13.8741 
 106   0.0000       0.524535        14.2733 
 107   0.0000       0.531900        14.4737 
 108   0.0000       0.535988        14.5850 
 109   0.0000       0.541520        14.7355 
 110   0.0000       0.553490        15.0612 
 111   0.0000       0.561218        15.2715 
 112   0.0000       0.565049        15.3758 
 113   0.0000       0.575685        15.6652 
 114   0.0000       0.595686        16.2094 
 115   0.0000       0.611420        16.6376 
 116   0.0000       0.620265        16.8783 
 117   0.0000       0.648895        17.6573 
 118   0.0000       0.661737        18.0068 
 119   0.0000       0.669202        18.2099 
 120   0.0000       0.688680        18.7399 
 121   0.0000       0.706898        19.2357 
 122   0.0000       0.714919        19.4539 
 123   0.0000       0.726713        19.7749 
 124   0.0000       0.734005        19.9733 
 125   0.0000       0.741198        20.1690 
 126   0.0000       0.766846        20.8669 
 127   0.0000       0.776376        21.1263 
 128   0.0000       0.798610        21.7313 
 129   0.0000       0.800651        21.7868 
 130   0.0000       0.805809        21.9272 
 131   0.0000       0.816663        22.2225 
 132   0.0000       0.821066        22.3423 
 133   0.0000       0.836698        22.7677 
 134   0.0000       0.846653        23.0386 
 135   0.0000       0.872918        23.7533 
 136   0.0000       0.883357        24.0374 
 137   0.0000       0.896222        24.3874 
 138   0.0000       0.916394        24.9363 
 139   0.0000       0.930404        25.3176 
 140   0.0000       0.937886        25.5212 
 141   0.0000       0.943398        25.6712 
 142   0.0000       0.953921        25.9575 
 143   0.0000       0.963679        26.2230 
 144   0.0000       0.977289        26.5934 
 145   0.0000       0.985299        26.8113 
 146   0.0000       0.998542        27.1717 
 147   0.0000       1.014910        27.6171 
 148   0.0000       1.027955        27.9721 
 149   0.0000       1.029884        28.0246 
 150   0.0000       1.035125        28.1672 
 151   0.0000       1.036943        28.2167 
 152   0.0000       1.058864        28.8132 
 153   0.0000       1.065462        28.9927 
 154   0.0000       1.073347        29.2073 
 155   0.0000       1.082564        29.4581 
 156   0.0000       1.096505        29.8374 
 157   0.0000       1.109572        30.1930 
 158   0.0000       1.113876        30.3101 
 159   0.0000       1.119600        30.4659 
 160   0.0000       1.150006        31.2932 
 161   0.0000       1.155105        31.4320 
 162   0.0000       1.161366        31.6024 
 163   0.0000       1.169992        31.8371 
 164   0.0000       1.173267        31.9262 
 165   0.0000       1.187263        32.3071 
 166   0.0000       1.197566        32.5874 
 167   0.0000       1.201798        32.7026 
 168   0.0000       1.211161        32.9574 
 169   0.0000       1.235670        33.6243 
 170   0.0000       1.239715        33.7344 
 171   0.0000       1.252981        34.0954 
 172   0.0000       1.256417        34.1888 
 173   0.0000       1.270414        34.5697 
 174   0.0000       1.280080        34.8327 
 175   0.0000       1.294281        35.2192 
 176   0.0000       1.301671        35.4203 
 177   0.0000       1.308893        35.6168 
 178   0.0000       1.322612        35.9901 
 179   0.0000       1.334949        36.3258 
 180   0.0000       1.337422        36.3931 
 181   0.0000       1.343985        36.5717 
 182   0.0000       1.349640        36.7256 
 183   0.0000       1.363738        37.1092 
 184   0.0000       1.370471        37.2924 
 185   0.0000       1.384704        37.6797 
 186   0.0000       1.405938        38.2575 
 187   0.0000       1.408847        38.3367 
 188   0.0000       1.411667        38.4134 
 189   0.0000       1.422567        38.7100 
 190   0.0000       1.445499        39.3340 
 191   0.0000       1.457351        39.6565 
 192   0.0000       1.468986        39.9731 
 193   0.0000       1.476955        40.1900 
 194   0.0000       1.483704        40.3736 
 195   0.0000       1.488237        40.4970 
 196   0.0000       1.539280        41.8859 
 197   0.0000       1.552871        42.2558 
 198   0.0000       1.571727        42.7689 
 199   0.0000       1.574508        42.8446 
 200   0.0000       1.600383        43.5486 
 201   0.0000       1.616771        43.9946 
 202   0.0000       1.655693        45.0537 
 203   0.0000       1.666424        45.3457 
 204   0.0000       1.704653        46.3860 
 205   0.0000       1.714328        46.6492 
 206   0.0000       1.729858        47.0718 
 207   0.0000       1.771181        48.1963 
 208   0.0000       1.794697        48.8362 
 209   0.0000       1.832390        49.8619 
 210   0.0000       1.865020        50.7498 
 211   0.0000       1.876921        51.0736 
 212   0.0000       1.913941        52.0810 
 213   0.0000       1.929196        52.4961 
 214   0.0000       1.943615        52.8885 
 215   0.0000       1.948200        53.0132 
 216   0.0000       1.966675        53.5160 
 217   0.0000       1.974519        53.7294 
 218   0.0000       1.993701        54.2514 
 219   0.0000       2.027458        55.1699 
 220   0.0000       2.035143        55.3791 
 221   0.0000       2.042451        55.5779 
 222   0.0000       2.076968        56.5172 
 223   0.0000       2.097508        57.0761 
 224   0.0000       2.100808        57.1659 
 225   0.0000       2.102428        57.2100 
 226   0.0000       2.130362        57.9701 
 227   0.0000       2.189516        59.5797 
 228   0.0000       2.212606        60.2081 
 229   0.0000       2.234152        60.7944 
 230   0.0000       2.240736        60.9735 
 231   0.0000       2.246378        61.1271 
 232   0.0000       2.249429        61.2101 
 233   0.0000       2.270022        61.7704 
 234   0.0000       2.288407        62.2707 
 235   0.0000       2.298630        62.5489 
 236   0.0000       2.312016        62.9131 
 237   0.0000       2.330053        63.4040 
 238   0.0000       2.334455        63.5238 
 239   0.0000       2.344896        63.8079 
 240   0.0000       2.358155        64.1687 
 241   0.0000       2.368254        64.4435 
 242   0.0000       2.387610        64.9702 
 243   0.0000       2.397212        65.2315 
 244   0.0000       2.427699        66.0610 
 245   0.0000       2.449461        66.6532 
 246   0.0000       2.452232        66.7286 
 247   0.0000       2.464979        67.0755 
 248   0.0000       2.491860        67.8070 
 249   0.0000       2.509345        68.2827 
 250   0.0000       2.525272        68.7162 
 251   0.0000       2.544456        69.2382 
 252   0.0000       2.557405        69.5905 
 253   0.0000       2.579688        70.1969 
 254   0.0000       2.589245        70.4569 
 255   0.0000       2.600679        70.7681 
 256   0.0000       2.615349        71.1673 
 257   0.0000       2.626465        71.4697 
 258   0.0000       2.639068        71.8127 
 259   0.0000       2.665462        72.5309 
 260   0.0000       2.670313        72.6629 
 261   0.0000       2.672710        72.7281 
 262   0.0000       2.689712        73.1908 
 263   0.0000       2.697559        73.4043 
 264   0.0000       2.713455        73.8369 
 265   0.0000       2.722442        74.0814 
 266   0.0000       2.737573        74.4931 
 267   0.0000       2.757765        75.0426 
 268   0.0000       2.769795        75.3700 
 269   0.0000       2.772831        75.4526 
 270   0.0000       2.778869        75.6169 
 271   0.0000       2.795004        76.0559 
 272   0.0000       2.803095        76.2761 
 273   0.0000       2.825446        76.8843 
 274   0.0000       2.838352        77.2355 
 275   0.0000       2.846381        77.4540 
 276   0.0000       2.859848        77.8204 
 277   0.0000       2.875573        78.2483 
 278   0.0000       2.884085        78.4799 
 279   0.0000       2.902519        78.9815 
 280   0.0000       2.914844        79.3170 
 281   0.0000       2.919847        79.4531 
 282   0.0000       2.941565        80.0441 
 283   0.0000       2.942476        80.0689 
 284   0.0000       2.962960        80.6262 
 285   0.0000       2.966992        80.7359 
 286   0.0000       2.973255        80.9064 
 287   0.0000       2.980343        81.0993 
 288   0.0000       3.000820        81.6565 
 289   0.0000       3.005409        81.7813 
 290   0.0000       3.008694        81.8707 
 291   0.0000       3.023443        82.2721 
 292   0.0000       3.026267        82.3489 
 293   0.0000       3.043043        82.8054 
 294   0.0000       3.050184        82.9997 
 295   0.0000       3.052180        83.0540 
 296   0.0000       3.060764        83.2876 
 297   0.0000       3.076035        83.7032 
 298   0.0000       3.088007        84.0289 
 299   0.0000       3.099254        84.3350 
 300   0.0000       3.102113        84.4128 
 301   0.0000       3.114704        84.7554 
 302   0.0000       3.120073        84.9015 
 303   0.0000       3.143579        85.5411 
 304   0.0000       3.154285        85.8325 
 305   0.0000       3.162530        86.0568 
 306   0.0000       3.162966        86.0687 
 307   0.0000       3.171246        86.2940 
 308   0.0000       3.172481        86.3276 
 309   0.0000       3.200361        87.0863 
 310   0.0000       3.214250        87.4642 
 311   0.0000       3.226428        87.7956 
 312   0.0000       3.236153        88.0602 
 313   0.0000       3.252143        88.4953 
 314   0.0000       3.274458        89.1025 
 315   0.0000       3.281766        89.3014 
 316   0.0000       3.289547        89.5131 
 317   0.0000       3.300707        89.8168 
 318   0.0000       3.310607        90.0862 
 319   0.0000       3.318092        90.2899 
 320   0.0000       3.348379        91.1140 
 321   0.0000       3.360224        91.4363 
 322   0.0000       3.367537        91.6353 
 323   0.0000       3.382635        92.0462 
 324   0.0000       3.396762        92.4306 
 325   0.0000       3.403937        92.6258 
 326   0.0000       3.412866        92.8688 
 327   0.0000       3.416882        92.9781 
 328   0.0000       3.431637        93.3796 
 329   0.0000       3.445525        93.7575 
 330   0.0000       3.453002        93.9610 
 331   0.0000       3.470011        94.4238 
 332   0.0000       3.483791        94.7988 
 333   0.0000       3.488385        94.9238 
 334   0.0000       3.497230        95.1645 
 335   0.0000       3.510231        95.5183 
 336   0.0000       3.525280        95.9278 
 337   0.0000       3.536814        96.2416 
 338   0.0000       3.543026        96.4106 
 339   0.0000       3.553487        96.6953 
 340   0.0000       3.571139        97.1756 
 341   0.0000       3.581334        97.4531 
 342   0.0000       3.586864        97.6035 
 343   0.0000       3.623456        98.5993 
 344   0.0000       3.627809        98.7177 
 345   0.0000       3.641809        99.0987 
 346   0.0000       3.656147        99.4888 
 347   0.0000       3.664311        99.7110 
 348   0.0000       3.696553       100.5883 
 349   0.0000       3.702245       100.7432 
 350   0.0000       3.710370       100.9643 
 351   0.0000       3.723200       101.3134 
 352   0.0000       3.729420       101.4827 
 353   0.0000       3.747374       101.9712 
 354   0.0000       3.763889       102.4206 
 355   0.0000       3.769575       102.5754 
 356   0.0000       3.787206       103.0551 
 357   0.0000       3.789589       103.1200 
 358   0.0000       3.808305       103.6293 
 359   0.0000       3.815115       103.8146 
 360   0.0000       3.823491       104.0425 
 361   0.0000       3.830813       104.2417 
 362   0.0000       3.853813       104.8676 
 363   0.0000       3.863408       105.1287 
 364   0.0000       3.867929       105.2517 
 365   0.0000       3.878910       105.5505 
 366   0.0000       3.888945       105.8236 
 367   0.0000       3.905125       106.2638 
 368   0.0000       3.911225       106.4299 
 369   0.0000       3.920165       106.6731 
 370   0.0000       3.939967       107.2120 
 371   0.0000       3.953309       107.5750 
 372   0.0000       3.960877       107.7809 
 373   0.0000       3.968784       107.9961 
 374   0.0000       3.976846       108.2155 
 375   0.0000       3.992006       108.6280 
 376   0.0000       4.003209       108.9329 
 377   0.0000       4.020869       109.4134 
 378   0.0000       4.030988       109.6888 
 379   0.0000       4.046680       110.1158 
 380   0.0000       4.057888       110.4207 
 381   0.0000       4.073214       110.8378 
 382   0.0000       4.077359       110.9506 
 383   0.0000       4.083730       111.1239 
 384   0.0000       4.091024       111.3224 
 385   0.0000       4.098376       111.5225 
 386   0.0000       4.120254       112.1178 
 387   0.0000       4.132945       112.4631 
 388   0.0000       4.140151       112.6592 
 389   0.0000       4.163200       113.2864 
 390   0.0000       4.176248       113.6415 
 391   0.0000       4.193539       114.1120 
 392   0.0000       4.199963       114.2868 
 393   0.0000       4.206546       114.4659 
 394   0.0000       4.220013       114.8324 
 395   0.0000       4.235181       115.2451 
 396   0.0000       4.249929       115.6464 
 397   0.0000       4.268101       116.1409 
 398   0.0000       4.276782       116.3772 
 399   0.0000       4.291475       116.7770 
 400   0.0000       4.304091       117.1203 
 401   0.0000       4.322106       117.6105 
 402   0.0000       4.353925       118.4763 
 403   0.0000       4.362642       118.7135 
 404   0.0000       4.378281       119.1391 
 405   0.0000       4.388794       119.4252 
 406   0.0000       4.404809       119.8610 
 407   0.0000       4.437728       120.7567 
 408   0.0000       4.461873       121.4137 
 409   0.0000       4.483863       122.0121 
 410   0.0000       4.488083       122.1270 
 411   0.0000       4.520624       123.0124 
 412   0.0000       4.541647       123.5845 
 413   0.0000       4.555816       123.9700 
 414   0.0000       4.584983       124.7637 
 415   0.0000       4.613052       125.5275 
 416   0.0000       4.619714       125.7088 
 417   0.0000       4.634083       126.0998 
 418   0.0000       4.666822       126.9907 
 419   0.0000       4.680276       127.3568 
 420   0.0000       4.705614       128.0463 
 421   0.0000       4.722169       128.4968 
 422   0.0000       4.724467       128.5593 
 423   0.0000       4.759881       129.5229 
 424   0.0000       4.783396       130.1628 
 425   0.0000       4.795838       130.5014 
 426   0.0000       4.807567       130.8205 
 427   0.0000       4.832423       131.4969 
 428   0.0000       4.848291       131.9287 
 429   0.0000       4.867719       132.4574 
 430   0.0000       4.877901       132.7344 
 431   0.0000       4.916940       133.7968 
 432   0.0000       4.921901       133.9317 
 433   0.0000       4.954845       134.8282 
 434   0.0000       4.963028       135.0509 
 435   0.0000       4.979137       135.4892 
 436   0.0000       4.989228       135.7638 
 437   0.0000       4.993659       135.8844 
 438   0.0000       5.020480       136.6142 
 439   0.0000       5.048850       137.3862 
 440   0.0000       5.079360       138.2164 
 441   0.0000       5.084876       138.3665 
 442   0.0000       5.091483       138.5463 
 443   0.0000       5.106380       138.9517 
 444   0.0000       5.131247       139.6283 
 445   0.0000       5.140888       139.8907 
 446   0.0000       5.152090       140.1955 
 447   0.0000       5.165128       140.5503 
 448   0.0000       5.180404       140.9660 
 449   0.0000       5.191861       141.2777 
 450   0.0000       5.196417       141.4017 
 451   0.0000       5.228524       142.2754 
 452   0.0000       5.237569       142.5215 
 453   0.0000       5.247617       142.7949 
 454   0.0000       5.263967       143.2398 
 455   0.0000       5.279184       143.6539 
 456   0.0000       5.289097       143.9237 
 457   0.0000       5.310924       144.5176 
 458   0.0000       5.316871       144.6794 
 459   0.0000       5.373796       146.2284 
 460   0.0000       5.380250       146.4040 
 461   0.0000       5.406887       147.1289 
 462   0.0000       5.408261       147.1663 
 463   0.0000       5.441791       148.0787 
 464   0.0000       5.489125       149.3667 
 465   0.0000       5.574267       151.6835 
 466   0.0000       5.590766       152.1325 
 467   0.0000       5.619318       152.9094 
 468   0.0000       5.639727       153.4648 
 469   0.0000       5.655098       153.8830 
 470   0.0000       5.692908       154.9119 
 471   0.0000       5.760140       156.7414 
 472   0.0000       5.779615       157.2713 
 473   0.0000       5.810758       158.1188 
 474   0.0000       5.832205       158.7024 
 475   0.0000       5.844772       159.0443 
 476   0.0000       5.886080       160.1684 
 477   0.0000       5.918645       161.0545 
 478   0.0000       5.949972       161.9070 
 479   0.0000       5.974689       162.5796 
 480   0.0000       6.024043       163.9225 
 481   0.0000       6.037485       164.2883 
 482   0.0000       6.117770       166.4730 
 483   0.0000       6.259005       170.3162 
 484   0.0000       6.300015       171.4321 
 485   0.0000       6.404209       174.2674 
 486   0.0000       6.468285       176.0110 
 487   0.0000       6.602759       179.6702 
 488   0.0000       6.648430       180.9130 
 489   0.0000       6.858117       186.6188 
 490   0.0000       7.019072       190.9987 
 491   0.0000       7.043379       191.6601 
 492   0.0000       9.017979       245.3917 
 493   0.0000       9.429671       256.5944 
 494   0.0000      11.411290       310.5170 
 495   0.0000      11.906823       324.0011 
 496   0.0000      12.239464       333.0527 
 497   0.0000      12.833664       349.2218 
 498   0.0000      12.908887       351.2687 
 499   0.0000      13.399566       364.6207 
 500   0.0000      13.545581       368.5940 
 501   0.0000      13.839016       376.5788 

                    ********************************
                    * MULLIKEN POPULATION ANALYSIS *
                    ********************************

-----------------------
MULLIKEN ATOMIC CHARGES
-----------------------
   0 C :   -0.212552
   1 C :    0.022609
   2 C :   -0.041720
   3 C :   -0.256078
   4 H :    0.097355
   5 H :    0.095994
   6 H :    0.094712
   7 C :    0.042682
   8 C :   -0.166060
   9 C :    0.190816
  10 H :    0.094003
  11 H :    0.106586
  12 C :   -0.115847
  13 N :   -0.267681
  14 H :    0.101116
  15 H :    0.073858
  16 H :    0.067113
  17 H :    0.129030
  18 O :   -0.259155
  19 Cl:   -0.153045
  20 H :    0.121740
  21 H :    0.121394
  22 H :    0.113128
Sum of atomic charges:    0.0000000

--------------------------------
MULLIKEN REDUCED ORBITAL CHARGES
--------------------------------
  0 C s       :     3.301493  s :     3.301493
      pz      :     0.970790  p :     2.815192
      px      :     0.881969
      py      :     0.962433
      dz2     :     0.016966  d :     0.087458
      dxz     :     0.014857
      dyz     :     0.016348
      dx2y2   :     0.022014
      dxy     :     0.017273
      f0      :     0.001210  f :     0.008409
      f+1     :     0.000991
      f-1     :     0.000920
      f+2     :     0.001627
      f-2     :     0.001193
      f+3     :     0.001245
      f-3     :     0.001224
  1 C s       :     3.184426  s :     3.184426
      pz      :     0.905598  p :     2.662564
      px      :     0.859654
      py      :     0.897312
      dz2     :     0.030425  d :     0.120170
      dxz     :     0.024386
      dyz     :     0.013544
      dx2y2   :     0.024545
      dxy     :     0.027269
      f0      :     0.001207  f :     0.010231
      f+1     :     0.001607
      f-1     :     0.001025
      f+2     :     0.002038
      f-2     :     0.001282
      f+3     :     0.001260
      f-3     :     0.001812
  2 C s       :     3.205898  s :     3.205898
      pz      :     0.970128  p :     2.713008
      px      :     0.791931
      py      :     0.950950
      dz2     :     0.032192  d :     0.114738
      dxz     :     0.022313
      dyz     :     0.007146
      dx2y2   :     0.027311
      dxy     :     0.025776
      f0      :     0.000817  f :     0.008075
      f+1     :     0.001794
      f-1     :     0.000685
      f+2     :     0.001254
      f-2     :     0.001039
      f+3     :     0.001098
      f-3     :     0.001389
  3 C s       :     3.259234  s :     3.259234
      pz      :     1.008721  p :     2.930584
      px      :     0.906951
      py      :     1.014912
      dz2     :     0.013981  d :     0.062674
      dxz     :     0.012078
      dyz     :     0.006814
      dx2y2   :     0.007988
      dxy     :     0.021813
      f0      :     0.000514  f :     0.003586
      f+1     :     0.000556
      f-1     :     0.000340
      f+2     :     0.000441
      f-2     :     0.000226
      f+3     :     0.000795
      f-3     :     0.000714
  4 H s       :     0.866774  s :     0.866774
      pz      :     0.010514  p :     0.033448
      px      :     0.011506
      py      :     0.011428
      dz2     :     0.000626  d :     0.002423
      dxz     :     0.000288
      dyz     :     0.000395
      dx2y2   :     0.000578
      dxy     :     0.000535
  5 H s       :     0.868654  s :     0.868654
      pz      :     0.011232  p :     0.032956
      px      :     0.010830
      py      :     0.010895
      dz2     :     0.000626  d :     0.002396
      dxz     :     0.000904
      dyz     :     0.000673
      dx2y2   :     0.000086
      dxy     :     0.000107
  6 H s       :     0.870073  s :     0.870073
      pz      :     0.010824  p :     0.032824
      px      :     0.011605
      py      :     0.010395
      dz2     :     0.000201  d :     0.002392
      dxz     :     0.000220
      dyz     :     0.000558
      dx2y2   :     0.000900
      dxy     :     0.000513
  7 C s       :     3.182128  s :     3.182128
      pz      :     0.876109  p :     2.600366
      px      :     0.861664
      py      :     0.862593
      dz2     :     0.037902  d :     0.164492
      dxz     :     0.026885
      dyz     :     0.034909
      dx2y2   :     0.031517
      dxy     :     0.033279
      f0      :     0.001331  f :     0.010333
      f+1     :     0.001074
      f-1     :     0.001761
      f+2     :     0.001167
      f-2     :     0.001637
      f+3     :     0.001740
      f-3     :     0.001624
  8 C s       :     3.214531  s :     3.214531
      pz      :     1.026854  p :     2.865501
      px      :     0.878987
      py      :     0.959661
      dz2     :     0.013220  d :     0.080439
      dxz     :     0.008350
      dyz     :     0.023146
      dx2y2   :     0.022385
      dxy     :     0.013338
      f0      :     0.000563  f :     0.005589
      f+1     :     0.000721
      f-1     :     0.000855
      f+2     :     0.000235
      f-2     :     0.000790
      f+3     :     0.001104
      f-3     :     0.001321
  9 C s       :     3.190211  s :     3.190211
      pz      :     0.821499  p :     2.395180
      px      :     0.831685
      py      :     0.741996
      dz2     :     0.061223  d :     0.207365
      dxz     :     0.053512
      dyz     :     0.042630
      dx2y2   :     0.024809
      dxy     :     0.025191
      f0      :     0.004601  f :     0.016427
      f+1     :     0.002925
      f-1     :     0.002294
      f+2     :     0.002367
      f-2     :     0.002328
      f+3     :     0.001111
      f-3     :     0.000800
 10 H s       :     0.869009  s :     0.869009
      pz      :     0.010957  p :     0.034265
      px      :     0.011635
      py      :     0.011673
      dz2     :     0.000708  d :     0.002723
      dxz     :     0.000717
      dyz     :     0.000610
      dx2y2   :     0.000264
      dxy     :     0.000423
 11 H s       :     0.856445  s :     0.856445
      pz      :     0.010656  p :     0.034265
      px      :     0.010863
      py      :     0.012746
      dz2     :     0.000725  d :     0.002704
      dxz     :     0.000648
      dyz     :     0.000476
      dx2y2   :     0.000309
      dxy     :     0.000547
 12 C s       :     3.221429  s :     3.221429
      pz      :     1.000833  p :     2.779028
      px      :     0.810612
      py      :     0.967584
      dz2     :     0.011911  d :     0.109566
      dxz     :     0.029321
      dyz     :     0.017438
      dx2y2   :     0.026992
      dxy     :     0.023904
      f0      :     0.001225  f :     0.005824
      f+1     :     0.001165
      f-1     :     0.000628
      f+2     :     0.000238
      f-2     :     0.000699
      f+3     :     0.000829
      f-3     :     0.001041
 13 N s       :     3.488249  s :     3.488249
      pz      :     1.299866  p :     3.722276
      px      :     1.292656
      py      :     1.129753
      dz2     :     0.012376  d :     0.053855
      dxz     :     0.009161
      dyz     :     0.009675
      dx2y2   :     0.011295
      dxy     :     0.011347
      f0      :     0.000480  f :     0.003301
      f+1     :     0.000396
      f-1     :     0.000499
      f+2     :     0.000634
      f-2     :     0.000501
      f+3     :     0.000459
      f-3     :     0.000332
 14 H s       :     0.861643  s :     0.861643
      pz      :     0.013388  p :     0.034399
      px      :     0.011392
      py      :     0.009619
      dz2     :     0.000864  d :     0.002843
      dxz     :     0.000743
      dyz     :     0.000661
      dx2y2   :     0.000239
      dxy     :     0.000336
 15 H s       :     0.890087  s :     0.890087
      pz      :     0.010214  p :     0.033438
      px      :     0.010428
      py      :     0.012796
      dz2     :     0.000276  d :     0.002618
      dxz     :     0.000137
      dyz     :     0.000718
      dx2y2   :     0.000716
      dxy     :     0.000770
 16 H s       :     0.898442  s :     0.898442
      pz      :     0.012574  p :     0.031751
      px      :     0.008194
      py      :     0.010983
      dz2     :     0.000740  d :     0.002694
      dxz     :     0.000961
      dyz     :     0.000920
      dx2y2   :     0.000046
      dxy     :     0.000027
 17 H s       :     0.796300  s :     0.796300
      pz      :     0.020839  p :     0.069023
      px      :     0.026680
      py      :     0.021504
      dz2     :     0.000638  d :     0.005647
      dxz     :     0.000379
      dyz     :     0.001568
      dx2y2   :     0.001468
      dxy     :     0.001595
 18 O s       :     3.752368  s :     3.752368
      pz      :     1.495816  p :     4.470698
      px      :     1.610791
      py      :     1.364091
      dz2     :     0.009633  d :     0.033837
      dxz     :     0.009387
      dyz     :     0.008606
      dx2y2   :     0.003264
      dxy     :     0.002947
      f0      :     0.000494  f :     0.002251
      f+1     :     0.000591
      f-1     :     0.000361
      f+2     :     0.000395
      f-2     :     0.000363
      f+3     :     0.000019
      f-3     :     0.000028
 19 Cls       :     5.942492  s :     5.942492
      pz      :     3.954960  p :    11.154887
      px      :     3.416604
      py      :     3.783323
      dz2     :     0.008137  d :     0.050991
      dxz     :     0.008366
      dyz     :     0.002761
      dx2y2   :     0.014011
      dxy     :     0.017716
      f0      :     0.000465  f :     0.004675
      f+1     :     0.000765
      f-1     :     0.000292
      f+2     :     0.000205
      f-2     :     0.000492
      f+3     :     0.000976
      f-3     :     0.001480
 20 H s       :     0.838073  s :     0.838073
      pz      :     0.013089  p :     0.037565
      px      :     0.015805
      py      :     0.008670
      dz2     :     0.000696  d :     0.002622
      dxz     :     0.000506
      dyz     :     0.000372
      dx2y2   :     0.000640
      dxy     :     0.000409
 21 H s       :     0.839093  s :     0.839093
      pz      :     0.013932  p :     0.036873
      px      :     0.009674
      py      :     0.013268
      dz2     :     0.000621  d :     0.002639
      dxz     :     0.000218
      dyz     :     0.000699
      dx2y2   :     0.000449
      dxy     :     0.000652
 22 H s       :     0.854716  s :     0.854716
      pz      :     0.008295  p :     0.029762
      px      :     0.010839
      py      :     0.010627
      dz2     :     0.000665  d :     0.002394
      dxz     :     0.000366
      dyz     :     0.000367
      dx2y2   :     0.000397
      dxy     :     0.000599


                     *******************************
                     * LOEWDIN POPULATION ANALYSIS *
                     *******************************

----------------------
LOEWDIN ATOMIC CHARGES
----------------------
   0 C :    0.034274
   1 C :   -0.060906
   2 C :   -0.014733
   3 C :    0.096156
   4 H :   -0.011488
   5 H :   -0.011027
   6 H :   -0.011434
   7 C :   -0.094120
   8 C :    0.045119
   9 C :   -0.319967
  10 H :   -0.014433
  11 H :   -0.007076
  12 C :   -0.161198
  13 N :    0.347157
  14 H :   -0.016685
  15 H :   -0.024182
  16 H :   -0.023840
  17 H :   -0.107448
  18 O :    0.218333
  19 Cl:    0.223244
  20 H :   -0.031372
  21 H :   -0.022627
  22 H :   -0.031748

-------------------------------
LOEWDIN REDUCED ORBITAL CHARGES
-------------------------------
  0 C s       :     2.714662  s :     2.714662
      pz      :     0.952127  p :     2.818062
      px      :     0.936420
      py      :     0.929515
      dz2     :     0.061449  d :     0.389624
      dxz     :     0.085439
      dyz     :     0.072376
      dx2y2   :     0.087822
      dxy     :     0.082537
      f0      :     0.005838  f :     0.043378
      f+1     :     0.005454
      f-1     :     0.004706
      f+2     :     0.008060
      f-2     :     0.006059
      f+3     :     0.007063
      f-3     :     0.006199
  1 C s       :     2.710459  s :     2.710459
      pz      :     0.931759  p :     2.773943
      px      :     0.943419
      py      :     0.898765
      dz2     :     0.104314  d :     0.521506
      dxz     :     0.123167
      dyz     :     0.066842
      dx2y2   :     0.110314
      dxy     :     0.116869
      f0      :     0.005795  f :     0.054998
      f+1     :     0.008801
      f-1     :     0.005843
      f+2     :     0.010553
      f-2     :     0.006628
      f+3     :     0.007104
      f-3     :     0.010273
  2 C s       :     2.676369  s :     2.676369
      pz      :     0.960091  p :     2.785879
      px      :     0.853276
      py      :     0.972511
      dz2     :     0.151035  d :     0.494473
      dxz     :     0.088281
      dyz     :     0.040654
      dx2y2   :     0.110244
      dxy     :     0.104260
      f0      :     0.005240  f :     0.058012
      f+1     :     0.010931
      f-1     :     0.005066
      f+2     :     0.010461
      f-2     :     0.008764
      f+3     :     0.008469
      f-3     :     0.009082
  3 C s       :     2.664854  s :     2.664854
      pz      :     0.985205  p :     2.918037
      px      :     0.944797
      py      :     0.988036
      dz2     :     0.068888  d :     0.291472
      dxz     :     0.049914
      dyz     :     0.034916
      dx2y2   :     0.048767
      dxy     :     0.088987
      f0      :     0.003688  f :     0.029480
      f+1     :     0.004549
      f-1     :     0.002703
      f+2     :     0.004603
      f-2     :     0.003942
      f+3     :     0.005815
      f-3     :     0.004179
  4 H s       :     0.831893  s :     0.831893
      pz      :     0.050315  p :     0.151225
      px      :     0.043931
      py      :     0.056979
      dz2     :     0.006478  d :     0.028371
      dxz     :     0.003977
      dyz     :     0.005960
      dx2y2   :     0.006159
      dxy     :     0.005796
  5 H s       :     0.829570  s :     0.829570
      pz      :     0.070283  p :     0.153450
      px      :     0.039432
      py      :     0.043735
      dz2     :     0.009421  d :     0.028007
      dxz     :     0.008196
      dyz     :     0.008764
      dx2y2   :     0.000842
      dxy     :     0.000784
  6 H s       :     0.830125  s :     0.830125
      pz      :     0.041833  p :     0.153309
      px      :     0.048985
      py      :     0.062492
      dz2     :     0.002621  d :     0.028000
      dxz     :     0.002595
      dyz     :     0.006637
      dx2y2   :     0.008632
      dxy     :     0.007515
  7 C s       :     2.675958  s :     2.675958
      pz      :     0.915079  p :     2.743517
      px      :     0.932856
      py      :     0.895582
      dz2     :     0.138946  d :     0.605589
      dxz     :     0.085138
      dyz     :     0.129264
      dx2y2   :     0.116482
      dxy     :     0.135760
      f0      :     0.009255  f :     0.069056
      f+1     :     0.007857
      f-1     :     0.010798
      f+2     :     0.010134
      f-2     :     0.011139
      f+3     :     0.010496
      f-3     :     0.009377
  8 C s       :     2.680899  s :     2.680899
      pz      :     0.983799  p :     2.862564
      px      :     0.927344
      py      :     0.951421
      dz2     :     0.059651  d :     0.373762
      dxz     :     0.044516
      dyz     :     0.099193
      dx2y2   :     0.087729
      dxy     :     0.082673
      f0      :     0.003439  f :     0.037656
      f+1     :     0.005637
      f-1     :     0.004727
      f+2     :     0.004500
      f-2     :     0.004848
      f+3     :     0.006679
      f-3     :     0.007827
  9 C s       :     2.764861  s :     2.764861
      pz      :     0.992030  p :     2.660431
      px      :     0.926683
      py      :     0.741719
      dz2     :     0.257157  d :     0.785488
      dxz     :     0.213753
      dyz     :     0.139479
      dx2y2   :     0.083624
      dxy     :     0.091475
      f0      :     0.033281  f :     0.109187
      f+1     :     0.017600
      f-1     :     0.013043
      f+2     :     0.017052
      f-2     :     0.019289
      f+3     :     0.004592
      f-3     :     0.004331
 10 H s       :     0.831010  s :     0.831010
      pz      :     0.066117  p :     0.154252
      px      :     0.039425
      py      :     0.048709
      dz2     :     0.008802  d :     0.029171
      dxz     :     0.006520
      dyz     :     0.008475
      dx2y2   :     0.002602
      dxy     :     0.002772
 11 H s       :     0.823208  s :     0.823208
      pz      :     0.061718  p :     0.154716
      px      :     0.039557
      py      :     0.053440
      dz2     :     0.008339  d :     0.029152
      dxz     :     0.005507
      dyz     :     0.008007
      dx2y2   :     0.003310
      dxy     :     0.003989
 12 C s       :     2.737815  s :     2.737815
      pz      :     1.022530  p :     2.925551
      px      :     0.906849
      py      :     0.996172
      dz2     :     0.079977  d :     0.455853
      dxz     :     0.107875
      dyz     :     0.070155
      dx2y2   :     0.098080
      dxy     :     0.099764
      f0      :     0.007996  f :     0.041979
      f+1     :     0.007180
      f-1     :     0.004223
      f+2     :     0.004572
      f-2     :     0.005737
      f+3     :     0.005555
      f-3     :     0.006717
 13 N s       :     2.894911  s :     2.894911
      pz      :     1.234788  p :     3.543001
      px      :     1.184212
      py      :     1.124001
      dz2     :     0.038264  d :     0.199974
      dxz     :     0.036519
      dyz     :     0.040044
      dx2y2   :     0.043849
      dxy     :     0.041298
      f0      :     0.002267  f :     0.014957
      f+1     :     0.002237
      f-1     :     0.002057
      f+2     :     0.001630
      f-2     :     0.002045
      f+3     :     0.002587
      f-3     :     0.002133
 14 H s       :     0.834332  s :     0.834332
      pz      :     0.070107  p :     0.154000
      px      :     0.040225
      py      :     0.043668
      dz2     :     0.009269  d :     0.028354
      dxz     :     0.006757
      dyz     :     0.008112
      dx2y2   :     0.001853
      dxy     :     0.002363
 15 H s       :     0.844525  s :     0.844525
      pz      :     0.040305  p :     0.152044
      px      :     0.040775
      py      :     0.070965
      dz2     :     0.002995  d :     0.027612
      dxz     :     0.001395
      dyz     :     0.007501
      dx2y2   :     0.007826
      dxy     :     0.007895
 16 H s       :     0.846983  s :     0.846983
      pz      :     0.076565  p :     0.149388
      px      :     0.031220
      py      :     0.041603
      dz2     :     0.010368  d :     0.027468
      dxz     :     0.007562
      dyz     :     0.009011
      dx2y2   :     0.000324
      dxy     :     0.000204
 17 H s       :     0.771454  s :     0.771454
      pz      :     0.084157  p :     0.274543
      px      :     0.080451
      py      :     0.109935
      dz2     :     0.006876  d :     0.061452
      dxz     :     0.003774
      dyz     :     0.017232
      dx2y2   :     0.016669
      dxy     :     0.016900
 18 O s       :     3.370710  s :     3.370710
      pz      :     1.524215  p :     4.334568
      px      :     1.517391
      py      :     1.292962
      dz2     :     0.025299  d :     0.070679
      dxz     :     0.021079
      dyz     :     0.013057
      dx2y2   :     0.004836
      dxy     :     0.006408
      f0      :     0.001721  f :     0.005710
      f+1     :     0.001383
      f-1     :     0.000778
      f+2     :     0.000716
      f-2     :     0.000889
      f+3     :     0.000070
      f-3     :     0.000154
 19 Cls       :     5.668735  s :     5.668735
      pz      :     3.879502  p :    11.009587
      px      :     3.398171
      py      :     3.731914
      dz2     :     0.013257  d :     0.088031
      dxz     :     0.015469
      dyz     :     0.005011
      dx2y2   :     0.025075
      dxy     :     0.029219
      f0      :     0.001148  f :     0.010403
      f+1     :     0.001476
      f-1     :     0.000593
      f+2     :     0.000462
      f-2     :     0.001214
      f+3     :     0.002654
      f-3     :     0.002857
 20 H s       :     0.828102  s :     0.828102
      pz      :     0.054551  p :     0.173812
      px      :     0.069695
      py      :     0.049565
      dz2     :     0.006283  d :     0.029458
      dxz     :     0.006739
      dyz     :     0.004195
      dx2y2   :     0.005973
      dxy     :     0.006268
 21 H s       :     0.832296  s :     0.832296
      pz      :     0.053195  p :     0.161325
      px      :     0.034681
      py      :     0.073449
      dz2     :     0.005637  d :     0.029006
      dxz     :     0.001611
      dyz     :     0.008767
      dx2y2   :     0.006356
      dxy     :     0.006635
 22 H s       :     0.845082  s :     0.845082
      pz      :     0.054163  p :     0.158697
      px      :     0.041304
      py      :     0.063230
      dz2     :     0.006279  d :     0.027969
      dxz     :     0.003982
      dyz     :     0.006921
      dx2y2   :     0.005282
      dxy     :     0.005504


                      *****************************
                      * MAYER POPULATION ANALYSIS *
                      *****************************

  NA   - Mulliken gross atomic population
  ZA   - Total nuclear charge
  QA   - Mulliken gross atomic charge
  VA   - Mayer's total valence
  BVA  - Mayer's bonded valence
  FA   - Mayer's free valence

  ATOM       NA         ZA         QA         VA         BVA        FA
  0 C      6.2126     6.0000    -0.2126     3.8691     3.8691     0.0000
  1 C      5.9774     6.0000     0.0226     3.8121     3.8121    -0.0000
  2 C      6.0417     6.0000    -0.0417     3.9786     3.9786     0.0000
  3 C      6.2561     6.0000    -0.2561     3.9045     3.9045     0.0000
  4 H      0.9026     1.0000     0.0974     0.9989     0.9989     0.0000
  5 H      0.9040     1.0000     0.0960     0.9897     0.9897     0.0000
  6 H      0.9053     1.0000     0.0947     0.9895     0.9895     0.0000
  7 C      5.9573     6.0000     0.0427     3.9261     3.9261    -0.0000
  8 C      6.1661     6.0000    -0.1661     3.7589     3.7589    -0.0000
  9 C      5.8092     6.0000     0.1908     4.0919     4.0919     0.0000
 10 H      0.9060     1.0000     0.0940     1.0099     1.0099    -0.0000
 11 H      0.8934     1.0000     0.1066     1.0119     1.0119    -0.0000
 12 C      6.1158     6.0000    -0.1158     3.7950     3.7950     0.0000
 13 N      7.2677     7.0000    -0.2677     3.0964     3.0964     0.0000
 14 H      0.8989     1.0000     0.1011     1.0055     1.0055    -0.0000
 15 H      0.9261     1.0000     0.0739     0.9861     0.9861     0.0000
 16 H      0.9329     1.0000     0.0671     0.9780     0.9780     0.0000
 17 H      0.8710     1.0000     0.1290     1.0291     1.0291    -0.0000
 18 O      8.2592     8.0000    -0.2592     2.2847     2.2847    -0.0000
 19 Cl    17.1530    17.0000    -0.1530     1.0881     1.0881    -0.0000
 20 H      0.8783     1.0000     0.1217     1.0428     1.0428    -0.0000
 21 H      0.8786     1.0000     0.1214     0.9928     0.9928     0.0000
 22 H      0.8869     1.0000     0.1131     1.0009     1.0009     0.0000

  Mayer bond orders larger than 0.100000
B(  0-C ,  1-C ) :   1.7987 B(  0-C ,  7-C ) :   0.9907 B(  0-C , 22-H ) :   0.9586 
B(  1-C ,  2-C ) :   0.9767 B(  1-C ,  3-C ) :   0.9835 B(  2-C , 13-N ) :   1.0205 
B(  2-C , 15-H ) :   0.9570 B(  2-C , 16-H ) :   0.9501 B(  3-C ,  4-H ) :   0.9766 
B(  3-C ,  5-H ) :   0.9590 B(  3-C ,  6-H ) :   0.9586 B(  7-C ,  8-C ) :   0.9030 
B(  7-C , 13-N ) :   0.9765 B(  7-C , 14-H ) :   0.9644 B(  8-C ,  9-C ) :   0.9315 
B(  8-C , 10-H ) :   0.9592 B(  8-C , 11-H ) :   0.9571 B(  9-C , 12-C ) :   0.9021 
B(  9-C , 18-O ) :   2.1887 B( 12-C , 19-Cl) :   1.0305 B( 12-C , 20-H ) :   0.9243 
B( 12-C , 21-H ) :   0.9475 B( 13-N , 17-H ) :   0.9832 

-------
TIMINGS
-------

Total SCF time: 0 days 0 hours 7 min 57 sec 

Total time                  ....     477.628 sec
Sum of individual times     ....     476.062 sec  ( 99.7%)

Fock matrix formation       ....     464.067 sec  ( 97.2%)
  Split-RI-J                ....      29.468 sec  (  6.3% of F)
  Chain of spheres X        ....     384.792 sec  ( 82.9% of F)
  XC integration            ....      49.468 sec  ( 10.7% of F)
    Basis function eval.    ....      14.387 sec  ( 29.1% of XC)
    Density eval.           ....      16.669 sec  ( 33.7% of XC)
    XC-Functional eval.     ....       1.566 sec  (  3.2% of XC)
    XC-Potential eval.      ....      15.491 sec  ( 31.3% of XC)
Diagonalization             ....       0.637 sec  (  0.1%)
Density matrix formation    ....       0.073 sec  (  0.0%)
Population analysis         ....       0.085 sec  (  0.0%)
Initial guess               ....       3.116 sec  (  0.7%)
Orbital Transformation      ....       0.000 sec  (  0.0%)
Orbital Orthonormalization  ....       0.000 sec  (  0.0%)
DIIS solution               ....       0.307 sec  (  0.1%)
SOSCF solution              ....       0.254 sec  (  0.1%)
Grid generation             ....       7.523 sec  (  1.6%)

Maximum memory used throughout the entire SCF-calculation: 307.8 MB

-------------------------   --------------------
FINAL SINGLE POINT ENERGY      -902.195562489456
-------------------------   --------------------


                            ***************************************
                            *     ORCA property calculations      *
                            ***************************************

                                    ---------------------
                                    Active property flags
                                    ---------------------
   (+) Dipole Moment


------------------------------------------------------------------------------
                       ORCA ELECTRIC PROPERTIES CALCULATION
------------------------------------------------------------------------------

Dipole Moment Calculation                       ... on
Quadrupole Moment Calculation                   ... off
Polarizability Calculation                      ... off
GBWName                                         ... B3PW91.gbw
Electron density                                ... B3PW91.scfp
The origin for moment calculation is the CENTER OF MASS  = ( 2.637983,  1.551899  0.056928)

-------------
DIPOLE MOMENT
-------------
                                X             Y             Z
Electronic contribution:     22.55251      -2.24457      -1.09166
Nuclear contribution   :    -24.46675       2.52936       1.68763
                        -----------------------------------------
Total Dipole Moment    :     -1.91424       0.28479       0.59596
                        -----------------------------------------
Magnitude (a.u.)       :      2.02499
Magnitude (Debye)      :      5.14712



--------------------
Rotational spectrum 
--------------------
 
Rotational constants in cm-1:     0.078975     0.013377     0.012208 
Rotational constants in MHz :  2367.608052   401.025928   365.983271 

 Dipole components along the rotational axes: 
x,y,z [a.u.] :    -1.917717    -0.372167     0.533333 
x,y,z [Debye]:    -4.874449    -0.945972     1.355624 

 

Timings for individual modules:

Sum of individual times         ...      499.130 sec (=   8.319 min)
GTO integral calculation        ...        3.091 sec (=   0.052 min)   0.6 %
SCF iterations                  ...      496.039 sec (=   8.267 min)  99.4 %
                             ****ORCA TERMINATED NORMALLY****
TOTAL RUN TIME: 0 days 0 hours 8 minutes 19 seconds 762 msec
