
                                 *****************
                                 * O   R   C   A *
                                 *****************

           --- An Ab Initio, DFT and Semiempirical electronic structure package ---

                  #######################################################
                  #                        -***-                        #
                  #          Department of theory and spectroscopy      #
                  #               Directorship: Frank Neese             #
                  #        Max Planck Institute fuer Kohlenforschung    #
                  #                Kaiser Wilhelm Platz 1               #
                  #                 D-45470 Muelheim/Ruhr               #
                  #                      Germany                        #
                  #                                                     #
                  #                  All rights reserved                #
                  #                        -***-                        #
                  #######################################################


                         Program Version 4.2.1 -  RELEASE  -


 With contributions from (in alphabetic order):
   Daniel Aravena         : Magnetic Suceptibility
   Michael Atanasov       : Ab Initio Ligand Field Theory (pilot matlab implementation)
   Alexander A. Auer      : GIAO ZORA, VPT2
   Ute Becker             : Parallelization
   Giovanni Bistoni       : ED, misc. LED, open-shell LED, HFLD
   Martin Brehm           : Molecular dynamics
   Dmytro Bykov           : SCF Hessian
   Vijay G. Chilkuri      : MRCI spin determinant printing, contributions to CSF-ICE
   Dipayan Datta          : RHF DLPNO-CCSD density
   Achintya Kumar Dutta   : EOM-CC, STEOM-CC
   Dmitry Ganyushin       : Spin-Orbit,Spin-Spin,Magnetic field MRCI
   Miquel Garcia          : C-PCM Hessian, Gaussian charge scheme
   Yang Guo               : DLPNO-NEVPT2, CIM, IAO-localization
   Andreas Hansen         : Spin unrestricted coupled pair/coupled cluster methods
   Benjamin Helmich-Paris : CASSCF linear response (MC-RPA)
   Lee Huntington         : MR-EOM, pCC
   Robert Izsak           : Overlap fitted RIJCOSX, COSX-SCS-MP3, EOM
   Christian Kollmar      : KDIIS, OOCD, Brueckner-CCSD(T), CCSD density
   Simone Kossmann        : Meta GGA functionals, TD-DFT gradient, OOMP2, MP2 Hessian
   Martin Krupicka        : AUTO-CI
   Lucas Lang             : DCDCAS
   Dagmar Lenk            : GEPOL surface, SMD
   Dimitrios Liakos       : Extrapolation schemes; Compound Job, initial MDCI parallelization
   Dimitrios Manganas     : Further ROCIS development; embedding schemes
   Dimitrios Pantazis     : SARC Basis sets
   Taras Petrenko         : DFT Hessian,TD-DFT gradient, ASA, ECA, R-Raman, ABS, FL, XAS/XES, NRVS
   Peter Pinski           : DLPNO-MP2, DLPNO-MP2 Gradient
   Christoph Reimann      : Effective Core Potentials
   Marius Retegan         : Local ZFS, SOC
   Christoph Riplinger    : Optimizer, TS searches, QM/MM, DLPNO-CCSD(T), (RO)-DLPNO pert. Triples
   Tobias Risthaus        : Range-separated hybrids, TD-DFT gradient, RPA, STAB
   Michael Roemelt        : Original ROCIS implementation
   Masaaki Saitow         : Open-shell DLPNO-CCSD energy and density
   Barbara Sandhoefer     : DKH picture change effects
   Avijit Sen             : IP-ROCIS
   Kantharuban Sivalingam : CASSCF convergence, NEVPT2, FIC-MRCI
   Bernardo de Souza      : ESD, SOC TD-DFT
   Georgi Stoychev        : AutoAux, RI-MP2 NMR
   Willem Van den Heuvel  : Paramagnetic NMR
   Boris Wezisla          : Elementary symmetry handling
   Frank Wennmohs         : Technical directorship


 We gratefully acknowledge several colleagues who have allowed us to
 interface, adapt or use parts of their codes:
   Stefan Grimme, W. Hujo, H. Kruse,             : VdW corrections, initial TS optimization,
                  C. Bannwarth                     DFT functionals, gCP, sTDA/sTD-DF
   Ed Valeev, F. Pavosevic, A. Kumar             : LibInt (2-el integral package), F12 methods
   Garnet Chan, S. Sharma, J. Yang, R. Olivares  : DMRG
   Ulf Ekstrom                                   : XCFun DFT Library
   Mihaly Kallay                                 : mrcc  (arbitrary order and MRCC methods)
   Andreas Klamt, Michael Diedenhofen            : otool_cosmo (COSMO solvation model)
   Jiri Pittner, Ondrej Demel                    : Mk-CCSD
   Frank Weinhold                                : gennbo (NPA and NBO analysis)
   Christopher J. Cramer and Donald G. Truhlar   : smd solvation model
   Lars Goerigk                                  : TD-DFT with DH, B97 family of functionals
   V. Asgeirsson, H. Jonsson                     : NEB implementation
   FAccTs GmbH                                   : IRC, NEB, NEB-TS, Multilevel, MM, QM/MM, CI optimization
   S Lehtola, MJT Oliveira, MAL Marques          : LibXC Library


 Your calculation uses the libint2 library for the computation of 2-el integrals
 For citations please refer to: http://libint.valeyev.net

 Your ORCA version has been built with support for libXC version: 4.2.3
 For citations please refer to: https://tddft.org/programs/libxc/

 This ORCA versions uses:
   CBLAS   interface :  Fast vector & matrix operations
   LAPACKE interface :  Fast linear algebra routines


----- Orbital basis set information -----
Your calculation utilizes the basis: def2-SVP
   F. Weigend and R. Ahlrichs, Phys. Chem. Chem. Phys. 7, 3297 (2005).

================================================================================
                                        WARNINGS
                       Please study these warnings very carefully!
================================================================================


INFO   : the flag for use of LIBINT has been found!

================================================================================
                                       INPUT FILE
================================================================================
NAME = educts_freq.inp
|  1> !B3LYP DEF2-SVP FREQ
|  2> 
|  3> * xyz 1 1
|  4>   C   -6.16196786031982      0.63456608817732      1.80070023325944
|  5>   C   -6.68663240979867      0.95323835159622      0.52241945150008
|  6>   C   -6.43720693649871      0.13433192426003     -0.56857118959928
|  7>   C   -5.65273248392365     -1.02838495250979     -0.41242745904751
|  8>   C   -5.12145358034595     -1.36104899655133      0.85020689849794
|  9>   C   -5.37211140807765     -0.54315939541428      1.93905485374930
| 10>   C   -6.41875943958409      1.50394195272794      2.98496331682346
| 11>   H   -5.46854083243818      1.91188530568113      3.37779338428848
| 12>   H   -6.85508833985482      0.91748342841729      3.81366562772367
| 13>   H   -7.08767204005009      2.34360498303608      2.75346819334671
| 14>   H   -7.29248887323711      1.85490186109546      0.40645095628016
| 15>   H   -6.84669516712151      0.38458861291414     -1.54966993355801
| 16>   H   -5.45720456424413     -1.67233900292957     -1.27341556636919
| 17>   H   -4.51624111614581     -2.26280300524188      0.96580553706305
| 18>   H   -4.96551131607386     -0.79633868957753      2.92139255657198
| 19>   N   -8.62528405824465     -0.88389905300117    -13.51212481752855
| 20>   O   -8.33027882321737     -0.94643480462231    -12.39466074174088
| 21>   O   -8.70463075082231     -0.30098460805779    -14.50810130126064
| 22> **                         ****END OF INPUT****
================================================================================

                       ****************************
                       * Single Point Calculation *
                       ****************************

---------------------------------
CARTESIAN COORDINATES (ANGSTROEM)
---------------------------------
  C     -6.161968    0.634566    1.800700
  C     -6.686632    0.953238    0.522419
  C     -6.437207    0.134332   -0.568571
  C     -5.652732   -1.028385   -0.412427
  C     -5.121454   -1.361049    0.850207
  C     -5.372111   -0.543159    1.939055
  C     -6.418759    1.503942    2.984963
  H     -5.468541    1.911885    3.377793
  H     -6.855088    0.917483    3.813666
  H     -7.087672    2.343605    2.753468
  H     -7.292489    1.854902    0.406451
  H     -6.846695    0.384589   -1.549670
  H     -5.457205   -1.672339   -1.273416
  H     -4.516241   -2.262803    0.965806
  H     -4.965511   -0.796339    2.921393
  N     -8.625284   -0.883899  -13.512125
  O     -8.330279   -0.946435  -12.394661
  O     -8.704631   -0.300985  -14.508101

----------------------------
CARTESIAN COORDINATES (A.U.)
----------------------------
  NO LB      ZA    FRAG     MASS         X           Y           Z
   0 C     6.0000    0    12.011  -11.644432    1.199156    3.402830
   1 C     6.0000    0    12.011  -12.635904    1.801359    0.987230
   2 C     6.0000    0    12.011  -12.164558    0.253851   -1.074444
   3 C     6.0000    0    12.011  -10.682116   -1.943366   -0.779375
   4 C     6.0000    0    12.011   -9.678145   -2.572010    1.606658
   5 C     6.0000    0    12.011  -10.151819   -1.026423    3.664283
   6 C     6.0000    0    12.011  -12.129697    2.842038    5.640763
   7 H     1.0000    0     1.008  -10.334045    3.612940    6.383104
   8 H     1.0000    0     1.008  -12.954240    1.733792    7.206784
   9 H     1.0000    0     1.008  -13.393759    4.428772    5.203301
  10 H     1.0000    0     1.008  -13.780807    3.505257    0.768081
  11 H     1.0000    0     1.008  -12.938379    0.726767   -2.928452
  12 H     1.0000    0     1.008  -10.312622   -3.160263   -2.406407
  13 H     1.0000    0     1.008   -8.534459   -4.276078    1.825108
  14 H     1.0000    0     1.008   -9.383457   -1.504862    5.520632
  15 N     7.0000    0    14.007  -16.299425   -1.670327  -25.534215
  16 O     8.0000    0    15.999  -15.741946   -1.788503  -23.422514
  17 O     8.0000    0    15.999  -16.449368   -0.568778  -27.416338

--------------------------------
INTERNAL COORDINATES (ANGSTROEM)
--------------------------------
 C      0   0   0     0.000000000000     0.00000000     0.00000000
 C      1   0   0     1.418036197693     0.00000000     0.00000000
 C      2   1   0     1.386752098405   120.65935588     0.00000000
 C      3   2   1     1.411273030586   119.96383406   359.91736281
 C      4   3   2     1.409669521710   120.19996691     0.00000000
 C      5   4   3     1.384688635003   119.78292488     0.03190732
 C      1   2   3     1.491387059129   121.40612242   179.94550952
 H      7   1   2     1.106186531508   110.42981592   242.18739297
 H      7   1   2     1.105017660510   110.73956896   125.60257620
 H      7   1   2     1.098211301946   112.53111283     3.50140084
 H      2   1   3     1.092477839838   119.10123424   179.97742028
 H      3   2   1     1.092183027991   120.26254164   179.84097762
 H      4   3   2     1.092798475189   119.85281727   180.00831127
 H      5   4   3     1.092156336909   119.90064638   179.90992527
 H      6   5   4     1.092891006550   120.17368378   179.84408001
 N     12   3   2    12.160294661448   156.15075604   175.78261920
 O     16  12   3     1.157438883743    11.06855858     1.18847494
 O     16  12   3     1.156742972269   143.55967928   221.86874951

---------------------------
INTERNAL COORDINATES (A.U.)
---------------------------
 C      0   0   0     0.000000000000     0.00000000     0.00000000
 C      1   0   0     2.679700061627     0.00000000     0.00000000
 C      2   1   0     2.620581681625   120.65935588     0.00000000
 C      3   2   1     2.666919527996   119.96383406   359.91736281
 C      4   3   2     2.663889335368   120.19996691     0.00000000
 C      5   4   3     2.616682300909   119.78292488     0.03190732
 C      1   2   3     2.818313101428   121.40612242   179.94550952
 H      7   1   2     2.090389597582   110.42981592   242.18739297
 H      7   1   2     2.088180751511   110.73956896   125.60257620
 H      7   1   2     2.075318597855   112.53111283     3.50140084
 H      2   1   3     2.064483924671   119.10123424   179.97742028
 H      3   2   1     2.063926811020   120.26254164   179.84097762
 H      4   3   2     2.065089837674   119.85281727   180.00831127
 H      5   4   3     2.063876372185   119.90064638   179.90992527
 H      6   5   4     2.065264696605   120.17368378   179.84408001
 N     12   3   2    22.979626617921   156.15075604   175.78261920
 O     16  12   3     2.187242507026    11.06855858     1.18847494
 O     16  12   3     2.185927424927   143.55967928   221.86874951

---------------------
BASIS SET INFORMATION
---------------------
There are 4 groups of distinct atoms

 Group   1 Type C   : 7s4p1d contracted to 3s2p1d pattern {511/31/1}
 Group   2 Type H   : 4s1p contracted to 2s1p pattern {31/1}
 Group   3 Type N   : 7s4p1d contracted to 3s2p1d pattern {511/31/1}
 Group   4 Type O   : 7s4p1d contracted to 3s2p1d pattern {511/31/1}

Atom   0C    basis set group =>   1
Atom   1C    basis set group =>   1
Atom   2C    basis set group =>   1
Atom   3C    basis set group =>   1
Atom   4C    basis set group =>   1
Atom   5C    basis set group =>   1
Atom   6C    basis set group =>   1
Atom   7H    basis set group =>   2
Atom   8H    basis set group =>   2
Atom   9H    basis set group =>   2
Atom  10H    basis set group =>   2
Atom  11H    basis set group =>   2
Atom  12H    basis set group =>   2
Atom  13H    basis set group =>   2
Atom  14H    basis set group =>   2
Atom  15N    basis set group =>   3
Atom  16O    basis set group =>   4
Atom  17O    basis set group =>   4
------------------------------------------------------------------------------
                           ORCA GTO INTEGRAL CALCULATION
------------------------------------------------------------------------------

                         BASIS SET STATISTICS AND STARTUP INFO

 # of primitive gaussian shells          ...  160
 # of primitive gaussian functions       ...  296
 # of contracted shells                  ...   84
 # of contracted basis functions         ...  180
 Highest angular momentum                ...    2
 Maximum contraction depth               ...    5
 Integral package used                   ... LIBINT
 Integral threshhold            Thresh   ...  1.000e-10
 Primitive cut-off              TCut     ...  1.000e-11


------------------------------ INTEGRAL EVALUATION ----------------------------


 * One electron integrals 
 Pre-screening matrix                    ... done
 Shell pair data                         ... done (   0.002 sec)

Timings:
 Total evaluation time               ...     0.004 sec (   0.000 min)
 One electron matrix time            ...     0.075 sec (   0.001 min) =1875.0%
 Schwartz matrix evaluation time     ...     0.288 sec (   0.005 min) =7200.0%

-------------------------------------------------------------------------------
                                 ORCA SCF
-------------------------------------------------------------------------------

------------
SCF SETTINGS
------------
Hamiltonian:
 Density Functional     Method          .... DFT(GTOs)
 Exchange Functional    Exchange        .... B88
   X-Alpha parameter    XAlpha          ....  0.666667
   Becke's b parameter  XBeta           ....  0.004200
 Correlation Functional Correlation     .... LYP
 LDA part of GGA corr.  LDAOpt          .... VWN-5
 Gradients option       PostSCFGGA      .... off
 Hybrid DFT is turned on
   Fraction HF Exchange ScalHFX         ....  0.200000
   Scaling of DF-GGA-X  ScalDFX         ....  0.720000
   Scaling of DF-GGA-C  ScalDFC         ....  0.810000
   Scaling of DF-LDA-C  ScalLDAC        ....  1.000000
   Perturbative correction              ....  0.000000
   Density functional embedding theory  .... OFF
   NL short-range parameter             ....  4.800000


General Settings:
 Integral files         IntName         .... educts_freq
 Hartree-Fock type      HFTyp           .... RHF
 Total Charge           Charge          ....    1
 Multiplicity           Mult            ....    1
 Number of Electrons    NEL             ....   72
 Basis Dimension        Dim             ....  180
 Nuclear Repulsion      ENuc            ....    375.6101434581 Eh

Convergence Acceleration:
 DIIS                   CNVDIIS         .... on
   Start iteration      DIISMaxIt       ....    12
   Startup error        DIISStart       ....  0.200000
   # of expansion vecs  DIISMaxEq       ....     5
   Bias factor          DIISBfac        ....   1.050
   Max. coefficient     DIISMaxC        ....  10.000
 Newton-Raphson         CNVNR           .... off
 SOSCF                  CNVSOSCF        .... on
   Start iteration      SOSCFMaxIt      ....   150
   Startup grad/error   SOSCFStart      ....  0.003300
 Level Shifting         CNVShift        .... on
   Level shift para.    LevelShift      ....    0.2500
   Turn off err/grad.   ShiftErr        ....    0.0010
 Zerner damping         CNVZerner       .... off
 Static damping         CNVDamp         .... on
   Fraction old density DampFac         ....    0.7000
   Max. Damping (<1)    DampMax         ....    0.9800
   Min. Damping (>=0)   DampMin         ....    0.0000
   Turn off err/grad.   DampErr         ....    0.1000
 Fernandez-Rico         CNVRico         .... off

SCF Procedure:
 Maximum # iterations   MaxIter         ....   125
 SCF integral mode      SCFMode         .... Direct
   Integral package                     .... LIBINT
 Reset frequency        DirectResetFreq ....    20
 Integral Threshold     Thresh          ....  1.000e-10 Eh
 Primitive CutOff       TCut            ....  1.000e-11 Eh

Convergence Tolerance:
 Convergence Check Mode ConvCheckMode   .... Total+1el-Energy
 Convergence forced     ConvForced      .... 0
 Energy Change          TolE            ....  1.000e-06 Eh
 1-El. energy change                    ....  1.000e-03 Eh
 Orbital Gradient       TolG            ....  5.000e-05
 Orbital Rotation angle TolX            ....  5.000e-05
 DIIS Error             TolErr          ....  1.000e-06


Diagonalization of the overlap matrix:
Smallest eigenvalue                        ... 3.156e-04
Time for diagonalization                   ...    0.014 sec
Threshold for overlap eigenvalues          ... 1.000e-08
Number of eigenvalues below threshold      ... 0
Time for construction of square roots      ...    0.008 sec
Total time needed                          ...    0.023 sec

-------------------
DFT GRID GENERATION
-------------------

General Integration Accuracy     IntAcc      ...  4.340
Radial Grid Type                 RadialGrid  ... Gauss-Chebyshev
Angular Grid (max. acc.)         AngularGrid ... Lebedev-110
Angular grid pruning method      GridPruning ... 3 (G Style)
Weight generation scheme         WeightScheme... Becke
Basis function cutoff            BFCut       ...    1.0000e-10
Integration weight cutoff        WCut        ...    1.0000e-14
Grids for H and He will be reduced by one unit

# of grid points (after initial pruning)     ...  23078 (   0.0 sec)
# of grid points (after weights+screening)   ...  21791 (   0.2 sec)
nearest neighbour list constructed           ...    0.0 sec
Grid point re-assignment to atoms done       ...    0.0 sec
Grid point division into batches done        ...    0.1 sec
Reduced shell lists constructed in    0.6 sec

Total number of grid points                  ...    21791
Total number of batches                      ...      349
Average number of points per batch           ...       62
Average number of grid points per atom       ...     1211
Average number of shells per batch           ...    40.89 (48.68%)
Average number of basis functions per batch  ...    85.72 (47.62%)
Average number of large shells per batch     ...    33.05 (80.82%)
Average number of large basis fcns per batch ...    68.47 (79.87%)
Maximum spatial batch extension              ...  22.96, 20.05, 20.17 au
Average spatial batch extension              ...   4.62,  4.27,  3.94 au

Time for grid setup =    0.812 sec

------------------------------
INITIAL GUESS: MODEL POTENTIAL
------------------------------
Loading Hartree-Fock densities                     ... done
Calculating cut-offs                               ... done
Setting up the integral package                    ... done
Initializing the effective Hamiltonian             ... done
Starting the Coulomb interaction                   ... done (   0.4 sec)
Reading the grid                                   ... done
Mapping shells                                     ... done
Starting the XC term evaluation                    ... done (   0.8 sec)
  promolecular density results
     # of electrons  =     72.989174682
     EX              =    -61.285096150
     EC              =     -2.469337861
     EX+EC           =    -63.754434011
Transforming the Hamiltonian                       ... done (   0.0 sec)
Diagonalizing the Hamiltonian                      ... done (   0.0 sec)
Back transforming the eigenvectors                 ... done (   0.0 sec)
Now organizing SCF variables                       ... done
                      ------------------
                      INITIAL GUESS DONE (   2.7 sec)
                      ------------------
--------------
SCF ITERATIONS
--------------
ITER       Energy         Delta-E        Max-DP      RMS-DP      [F,P]     Damp
               ***  Starting incremental Fock matrix formation  ***
  0   -475.3572776453   0.000000000000 0.30810937  0.00527802  0.2138055 0.7000
  1   -475.3673944172  -0.010116771857 0.06851808  0.00188780  0.1228869 0.7000
                               ***Turning on DIIS***
  2   -475.5403408939  -0.172946476723 0.15736266  0.00397869  0.0307700 0.0000
  3   -475.5810760716  -0.040735177701 0.00986289  0.00022953  0.1177510 0.7000
  4   -475.5911948495  -0.010118777888 0.00918534  0.00023362  0.1057724 0.7000
  5   -475.6002469882  -0.009052138687 0.03068206  0.00078896  0.0945935 0.0000
  6   -475.6253929647  -0.025145976533 0.04142043  0.00106042  0.0583195 0.0000
  7   -475.6392833239  -0.013890359123 0.01510853  0.00052146  0.0191440 0.0000
  8   -475.6407909589  -0.001507635038 0.00607393  0.00017014  0.0096066 0.0000
  9   -475.6409731998  -0.000182240863 0.00286284  0.00006204  0.0041530 0.0000
                      *** Initiating the SOSCF procedure ***
                           *** Shutting down DIIS ***
                      *** Re-Reading the Fockian *** 
                      *** Removing any level shift *** 
ITER      Energy       Delta-E        Grad      Rot      Max-DP    RMS-DP
 10   -475.64101224  -0.0000390424  0.000339  0.000339  0.000991  0.000022
               *** Restarting incremental Fock matrix formation ***
 11   -475.64101449  -0.0000022446  0.000303  0.001032  0.001700  0.000024
 12   -475.64100787   0.0000066160  0.001303  0.001020  0.001262  0.000018
 13   -475.64101501  -0.0000071370  0.000230  0.000516  0.000844  0.000016
 14   -475.64101287   0.0000021339  0.000707  0.000417  0.000573  0.000011
 15   -475.64101545  -0.0000025775  0.000031  0.000040  0.000153  0.000003
                 **** Energy Check signals convergence ****
              ***Rediagonalizing the Fockian in SOSCF/NRSCF***

               *****************************************************
               *                     SUCCESS                       *
               *           SCF CONVERGED AFTER  16 CYCLES          *
               *****************************************************

Setting up the final grid:

General Integration Accuracy     IntAcc      ...  4.670
Radial Grid Type                 RadialGrid  ... Gauss-Chebyshev
Angular Grid (max. acc.)         AngularGrid ... Lebedev-302
Angular grid pruning method      GridPruning ... 3 (G Style)
Weight generation scheme         WeightScheme... Becke
Basis function cutoff            BFCut       ...    1.0000e-10
Integration weight cutoff        WCut        ...    1.0000e-14
Grids for H and He will be reduced by one unit

# of grid points (after initial pruning)     ...  89272 (   0.1 sec)
# of grid points (after weights+screening)   ...  83369 (   0.6 sec)
nearest neighbour list constructed           ...    0.0 sec
Grid point re-assignment to atoms done       ...    0.0 sec
Grid point division into batches done        ...    0.9 sec
Reduced shell lists constructed in    2.9 sec

Total number of grid points                  ...    83369
Total number of batches                      ...     1312
Average number of points per batch           ...       63
Average number of grid points per atom       ...     4632
Average number of shells per batch           ...    37.41 (44.53%)
Average number of basis functions per batch  ...    77.73 (43.18%)
Average number of large shells per batch     ...    29.53 (78.94%)
Average number of large basis fcns per batch ...    60.58 (77.95%)
Maximum spatial batch extension              ...  21.62, 17.93, 19.53 au
Average spatial batch extension              ...   2.89,  2.81,  2.70 au

Final grid set up in    3.5 sec
Final integration                            ... done (   2.0 sec)
Change in XC energy                          ...    -0.000271236
Integrated number of electrons               ...    71.999896978
Previous integrated no of electrons          ...    71.996948522

----------------
TOTAL SCF ENERGY
----------------

Total Energy       :         -475.64128667 Eh          -12942.85741 eV

Components:
Nuclear Repulsion  :          375.61014346 Eh           10220.87162 eV
Electronic Energy  :         -851.25143013 Eh          -23163.72904 eV
One Electron Energy:        -1377.55864267 Eh          -37485.27638 eV
Two Electron Energy:          526.30721254 Eh           14321.54735 eV

Virial components:
Potential Energy   :         -946.76523528 Eh          -25762.79181 eV
Kinetic Energy     :          471.12394861 Eh           12819.93439 eV
Virial Ratio       :            2.00958843


DFT components:
N(Alpha)           :       35.999948488919 electrons
N(Beta)            :       35.999948488919 electrons
N(Total)           :       71.999896977837 electrons
E(X)               :      -48.937545635960 Eh       
E(C)               :       -2.878298508709 Eh       
E(XC)              :      -51.815844144670 Eh       
DFET-embed. en.    :        0.000000000000 Eh       

---------------
SCF CONVERGENCE
---------------

  Last Energy change         ...    1.6401e-08  Tolerance :   1.0000e-06
  Last MAX-Density change    ...    8.6063e-05  Tolerance :   1.0000e-05
  Last RMS-Density change    ...    1.5499e-06  Tolerance :   1.0000e-06
  Last Orbital Gradient      ...    3.0179e-05  Tolerance :   5.0000e-05
  Last Orbital Rotation      ...    3.7380e-05  Tolerance :   5.0000e-05

             **** THE GBW FILE WAS UPDATED (educts_freq.gbw) ****
             **** DENSITY FILE WAS UPDATED (educts_freq.scfp) ****
             **** ENERGY FILE WAS UPDATED (educts_freq.en.tmp) ****
             **** THE GBW FILE WAS UPDATED (educts_freq.gbw) ****
             **** DENSITY FILE WAS UPDATED (educts_freq.scfp) ****
----------------
ORBITAL ENERGIES
----------------

  NO   OCC          E(Eh)            E(eV) 
   0   2.0000     -19.669072      -535.2227 
   1   2.0000     -19.668893      -535.2178 
   2   2.0000     -15.001257      -408.2050 
   3   2.0000     -10.228790      -278.3395 
   4   2.0000     -10.222513      -278.1687 
   5   2.0000     -10.221638      -278.1449 
   6   2.0000     -10.221315      -278.1361 
   7   2.0000     -10.219263      -278.0803 
   8   2.0000     -10.218226      -278.0521 
   9   2.0000     -10.216550      -278.0065 
  10   2.0000      -1.686234       -45.8848 
  11   2.0000      -1.565316       -42.5944 
  12   2.0000      -1.009980       -27.4830 
  13   2.0000      -0.967438       -26.3253 
  14   2.0000      -0.964599       -26.2481 
  15   2.0000      -0.937538       -25.5117 
  16   2.0000      -0.876340       -23.8464 
  17   2.0000      -0.793315       -21.5872 
  18   2.0000      -0.769735       -20.9455 
  19   2.0000      -0.759268       -20.6607 
  20   2.0000      -0.754733       -20.5373 
  21   2.0000      -0.705839       -19.2068 
  22   2.0000      -0.628265       -17.0960 
  23   2.0000      -0.609704       -16.5909 
  24   2.0000      -0.539146       -14.6709 
  25   2.0000      -0.492216       -13.3939 
  26   2.0000      -0.483482       -13.1562 
  27   2.0000      -0.454478       -12.3670 
  28   2.0000      -0.448486       -12.2039 
  29   2.0000      -0.437411       -11.9026 
  30   2.0000      -0.416742       -11.3401 
  31   2.0000      -0.385210       -10.4821 
  32   2.0000      -0.378678       -10.3044 
  33   2.0000      -0.370041       -10.0693 
  34   2.0000      -0.288847        -7.8599 
  35   2.0000      -0.271266        -7.3815 
  36   0.0000      -0.504544       -13.7293 
  37   0.0000      -0.442217       -12.0333 
  38   0.0000      -0.191735        -5.2174 
  39   0.0000      -0.043660        -1.1880 
  40   0.0000      -0.036693        -0.9985 
  41   0.0000       0.028125         0.7653 
  42   0.0000       0.047069         1.2808 
  43   0.0000       0.060672         1.6510 
  44   0.0000       0.086487         2.3534 
  45   0.0000       0.090095         2.4516 
  46   0.0000       0.096869         2.6359 
  47   0.0000       0.117543         3.1985 
  48   0.0000       0.129102         3.5130 
  49   0.0000       0.141489         3.8501 
  50   0.0000       0.149130         4.0580 
  51   0.0000       0.175461         4.7745 
  52   0.0000       0.197830         5.3832 
  53   0.0000       0.256108         6.9690 
  54   0.0000       0.264911         7.2086 
  55   0.0000       0.266594         7.2544 
  56   0.0000       0.291377         7.9288 
  57   0.0000       0.308657         8.3990 
  58   0.0000       0.311706         8.4819 
  59   0.0000       0.327934         8.9235 
  60   0.0000       0.330993         9.0068 
  61   0.0000       0.359540         9.7836 
  62   0.0000       0.385837        10.4991 
  63   0.0000       0.387595        10.5470 
  64   0.0000       0.401254        10.9187 
  65   0.0000       0.410001        11.1567 
  66   0.0000       0.422523        11.4974 
  67   0.0000       0.450681        12.2637 
  68   0.0000       0.457018        12.4361 
  69   0.0000       0.466816        12.7027 
  70   0.0000       0.502318        13.6688 
  71   0.0000       0.507954        13.8221 
  72   0.0000       0.519647        14.1403 
  73   0.0000       0.543905        14.8004 
  74   0.0000       0.561021        15.2661 
  75   0.0000       0.566134        15.4053 
  76   0.0000       0.574973        15.6458 
  77   0.0000       0.577750        15.7214 
  78   0.0000       0.600665        16.3449 
  79   0.0000       0.602937        16.4067 
  80   0.0000       0.603292        16.4164 
  81   0.0000       0.613886        16.7047 
  82   0.0000       0.635350        17.2887 
  83   0.0000       0.641541        17.4572 
  84   0.0000       0.646429        17.5902 
  85   0.0000       0.652729        17.7617 
  86   0.0000       0.658585        17.9210 
  87   0.0000       0.660042        17.9606 
  88   0.0000       0.667964        18.1762 
  89   0.0000       0.681086        18.5333 
  90   0.0000       0.696394        18.9498 
  91   0.0000       0.699872        19.0445 
  92   0.0000       0.705114        19.1871 
  93   0.0000       0.717137        19.5143 
  94   0.0000       0.753337        20.4994 
  95   0.0000       0.782457        21.2917 
  96   0.0000       0.813823        22.1453 
  97   0.0000       0.878794        23.9132 
  98   0.0000       0.930207        25.3122 
  99   0.0000       0.989416        26.9234 
 100   0.0000       1.020602        27.7720 
 101   0.0000       1.030867        28.0513 
 102   0.0000       1.058173        28.7943 
 103   0.0000       1.097704        29.8700 
 104   0.0000       1.178955        32.0810 
 105   0.0000       1.212838        33.0030 
 106   0.0000       1.222644        33.2698 
 107   0.0000       1.236405        33.6443 
 108   0.0000       1.241347        33.7788 
 109   0.0000       1.259971        34.2855 
 110   0.0000       1.276375        34.7319 
 111   0.0000       1.350756        36.7559 
 112   0.0000       1.433518        39.0080 
 113   0.0000       1.469201        39.9790 
 114   0.0000       1.484128        40.3852 
 115   0.0000       1.487028        40.4641 
 116   0.0000       1.489315        40.5263 
 117   0.0000       1.514394        41.2088 
 118   0.0000       1.618200        44.0335 
 119   0.0000       1.647539        44.8318 
 120   0.0000       1.650699        44.9178 
 121   0.0000       1.658657        45.1343 
 122   0.0000       1.691633        46.0317 
 123   0.0000       1.705092        46.3979 
 124   0.0000       1.713400        46.6240 
 125   0.0000       1.716565        46.7101 
 126   0.0000       1.733866        47.1809 
 127   0.0000       1.735344        47.2211 
 128   0.0000       1.749314        47.6013 
 129   0.0000       1.763612        47.9903 
 130   0.0000       1.775853        48.3234 
 131   0.0000       1.794931        48.8426 
 132   0.0000       1.834620        49.9225 
 133   0.0000       1.877922        51.1009 
 134   0.0000       1.914189        52.0877 
 135   0.0000       1.947541        52.9953 
 136   0.0000       1.950418        53.0736 
 137   0.0000       1.991361        54.1877 
 138   0.0000       2.005850        54.5820 
 139   0.0000       2.012821        54.7717 
 140   0.0000       2.075142        56.4675 
 141   0.0000       2.100968        57.1702 
 142   0.0000       2.101624        57.1881 
 143   0.0000       2.112882        57.4944 
 144   0.0000       2.130854        57.9835 
 145   0.0000       2.151607        58.5482 
 146   0.0000       2.152426        58.5705 
 147   0.0000       2.205835        60.0238 
 148   0.0000       2.230258        60.6884 
 149   0.0000       2.251506        61.2666 
 150   0.0000       2.258344        61.4527 
 151   0.0000       2.280825        62.0644 
 152   0.0000       2.285671        62.1963 
 153   0.0000       2.317770        63.0697 
 154   0.0000       2.322697        63.2038 
 155   0.0000       2.415303        65.7237 
 156   0.0000       2.438982        66.3681 
 157   0.0000       2.449845        66.6637 
 158   0.0000       2.498285        67.9818 
 159   0.0000       2.556390        69.5629 
 160   0.0000       2.563091        69.7452 
 161   0.0000       2.577094        70.1263 
 162   0.0000       2.611515        71.0629 
 163   0.0000       2.687123        73.1203 
 164   0.0000       2.688803        73.1661 
 165   0.0000       2.698826        73.4388 
 166   0.0000       2.808174        76.4143 
 167   0.0000       2.808845        76.4326 
 168   0.0000       2.839029        77.2539 
 169   0.0000       2.855040        77.6896 
 170   0.0000       2.896296        78.8122 
 171   0.0000       2.930894        79.7537 
 172   0.0000       2.995113        81.5012 
 173   0.0000       3.022826        82.2553 
 174   0.0000       3.094614        84.2087 
 175   0.0000       3.128391        85.1278 
 176   0.0000       3.215040        87.4857 
 177   0.0000       3.217079        87.5412 
 178   0.0000       3.512547        95.5813 
 179   0.0000       3.576551        97.3229 

                    ********************************
                    * MULLIKEN POPULATION ANALYSIS *
                    ********************************

-----------------------
MULLIKEN ATOMIC CHARGES
-----------------------
   0 C :   -0.055869
   1 C :   -0.007358
   2 C :    0.029656
   3 C :    0.005462
   4 C :    0.024045
   5 C :   -0.002425
   6 C :    0.078060
   7 H :    0.027213
   8 H :    0.026674
   9 H :    0.008310
  10 H :   -0.032205
  11 H :   -0.031775
  12 H :   -0.024066
  13 H :   -0.016096
  14 H :   -0.029628
  15 N :    0.586699
  16 O :    0.206445
  17 O :    0.206856
Sum of atomic charges:    1.0000000

--------------------------------
MULLIKEN REDUCED ORBITAL CHARGES
--------------------------------
  0 C s       :     3.089970  s :     3.089970
      pz      :     0.972511  p :     2.923753
      px      :     0.968591
      py      :     0.982651
      dz2     :     0.010698  d :     0.042146
      dxz     :     0.008165
      dyz     :     0.011110
      dx2y2   :     0.005991
      dxy     :     0.006182
  1 C s       :     3.203361  s :     3.203361
      pz      :     0.953409  p :     2.770024
      px      :     0.954915
      py      :     0.861699
      dz2     :     0.010370  d :     0.033973
      dxz     :     0.007148
      dyz     :     0.008882
      dx2y2   :     0.002937
      dxy     :     0.004636
  2 C s       :     3.157459  s :     3.157459
      pz      :     0.856696  p :     2.778040
      px      :     0.956265
      py      :     0.965080
      dz2     :     0.008583  d :     0.034845
      dxz     :     0.006086
      dyz     :     0.008749
      dx2y2   :     0.005883
      dxy     :     0.005543
  3 C s       :     3.158864  s :     3.158864
      pz      :     0.886764  p :     2.801999
      px      :     0.984385
      py      :     0.930849
      dz2     :     0.007984  d :     0.033674
      dxz     :     0.005856
      dyz     :     0.009989
      dx2y2   :     0.005137
      dxy     :     0.004708
  4 C s       :     3.159412  s :     3.159412
      pz      :     0.958700  p :     2.781501
      px      :     0.941061
      py      :     0.881740
      dz2     :     0.010573  d :     0.035042
      dxz     :     0.007541
      dyz     :     0.009188
      dx2y2   :     0.003030
      dxy     :     0.004711
  5 C s       :     3.209767  s :     3.209767
      pz      :     0.828395  p :     2.759073
      px      :     0.963626
      py      :     0.967052
      dz2     :     0.008611  d :     0.033584
      dxz     :     0.005821
      dyz     :     0.008401
      dx2y2   :     0.005356
      dxy     :     0.005395
  6 C s       :     2.936897  s :     2.936897
      pz      :     0.980033  p :     2.956504
      px      :     0.999521
      py      :     0.976950
      dz2     :     0.005226  d :     0.028540
      dxz     :     0.005425
      dyz     :     0.007963
      dx2y2   :     0.003025
      dxy     :     0.006900
  7 H s       :     0.949288  s :     0.949288
      pz      :     0.005772  p :     0.023499
      px      :     0.011461
      py      :     0.006266
  8 H s       :     0.949868  s :     0.949868
      pz      :     0.009670  p :     0.023457
      px      :     0.006792
      py      :     0.006994
  9 H s       :     0.968655  s :     0.968655
      pz      :     0.004509  p :     0.023035
      px      :     0.008420
      py      :     0.010105
 10 H s       :     1.009497  s :     1.009497
      pz      :     0.003495  p :     0.022708
      px      :     0.007842
      py      :     0.011371
 11 H s       :     1.009076  s :     1.009076
      pz      :     0.012458  p :     0.022699
      px      :     0.005910
      py      :     0.004330
 12 H s       :     1.001432  s :     1.001432
      pz      :     0.010244  p :     0.022634
      px      :     0.004754
      py      :     0.007635
 13 H s       :     0.993389  s :     0.993389
      pz      :     0.003544  p :     0.022707
      px      :     0.007740
      py      :     0.011423
 14 H s       :     1.006895  s :     1.006895
      pz      :     0.012524  p :     0.022733
      px      :     0.005886
      py      :     0.004323
 15 N s       :     3.216684  s :     3.216684
      pz      :     0.945273  p :     3.088323
      px      :     1.072794
      py      :     1.070255
      dz2     :     0.026554  d :     0.108294
      dxz     :     0.036303
      dyz     :     0.033440
      dx2y2   :     0.006010
      dxy     :     0.005987
 16 O s       :     3.875673  s :     3.875673
      pz      :     1.094191  p :     3.885176
      px      :     1.381553
      py      :     1.409431
      dz2     :     0.012749  d :     0.032707
      dxz     :     0.009803
      dyz     :     0.008847
      dx2y2   :     0.000656
      dxy     :     0.000652
 17 O s       :     3.875339  s :     3.875339
      pz      :     1.247086  p :     3.885035
      px      :     1.429305
      py      :     1.208644
      dz2     :     0.010645  d :     0.032770
      dxz     :     0.007323
      dyz     :     0.009815
      dx2y2   :     0.002452
      dxy     :     0.002534


                     *******************************
                     * LOEWDIN POPULATION ANALYSIS *
                     *******************************

----------------------
LOEWDIN ATOMIC CHARGES
----------------------
   0 C :   -0.018980
   1 C :   -0.035137
   2 C :   -0.028463
   3 C :   -0.036211
   4 C :   -0.024461
   5 C :   -0.026994
   6 C :   -0.047202
   7 H :    0.037325
   8 H :    0.036287
   9 H :    0.027138
  10 H :    0.022368
  11 H :    0.021564
  12 H :    0.021282
  13 H :    0.027080
  14 H :    0.024404
  15 N :    0.484767
  16 O :    0.257343
  17 O :    0.257890

-------------------------------
LOEWDIN REDUCED ORBITAL CHARGES
-------------------------------
  0 C s       :     2.863335  s :     2.863335
      pz      :     1.046162  p :     3.052192
      px      :     0.982424
      py      :     1.023606
      dz2     :     0.027790  d :     0.103453
      dxz     :     0.019035
      dyz     :     0.028461
      dx2y2   :     0.012973
      dxy     :     0.015193
  1 C s       :     2.863911  s :     2.863911
      pz      :     1.054597  p :     3.082102
      px      :     1.004310
      py      :     1.023195
      dz2     :     0.029393  d :     0.089124
      dxz     :     0.017744
      dyz     :     0.024669
      dx2y2   :     0.006173
      dxy     :     0.011146
  2 C s       :     2.863344  s :     2.863344
      pz      :     1.038836  p :     3.074696
      px      :     0.996270
      py      :     1.039590
      dz2     :     0.023512  d :     0.090423
      dxz     :     0.014669
      dyz     :     0.024019
      dx2y2   :     0.013505
      dxy     :     0.014718
  3 C s       :     2.867674  s :     2.867674
      pz      :     1.041075  p :     3.081798
      px      :     1.010062
      py      :     1.030662
      dz2     :     0.021971  d :     0.086738
      dxz     :     0.014801
      dyz     :     0.026138
      dx2y2   :     0.011312
      dxy     :     0.012516
  4 C s       :     2.862790  s :     2.862790
      pz      :     1.063608  p :     3.070932
      px      :     0.988154
      py      :     1.019170
      dz2     :     0.029402  d :     0.090739
      dxz     :     0.018698
      dyz     :     0.025172
      dx2y2   :     0.006273
      dxy     :     0.011195
  5 C s       :     2.864656  s :     2.864656
      pz      :     1.039531  p :     3.074106
      px      :     1.001107
      py      :     1.033468
      dz2     :     0.023837  d :     0.088232
      dxz     :     0.014155
      dyz     :     0.023613
      dx2y2   :     0.012348
      dxy     :     0.014279
  6 C s       :     2.832928  s :     2.832928
      pz      :     1.033695  p :     3.140686
      px      :     1.061751
      py      :     1.045240
      dz2     :     0.013387  d :     0.073589
      dxz     :     0.013551
      dyz     :     0.021430
      dx2y2   :     0.007090
      dxy     :     0.018132
  7 H s       :     0.898970  s :     0.898970
      pz      :     0.015844  p :     0.063705
      px      :     0.032221
      py      :     0.015640
  8 H s       :     0.899931  s :     0.899931
      pz      :     0.027809  p :     0.063781
      px      :     0.016489
      py      :     0.019483
  9 H s       :     0.908797  s :     0.908797
      pz      :     0.012753  p :     0.064066
      px      :     0.022647
      py      :     0.028666
 10 H s       :     0.910695  s :     0.910695
      pz      :     0.011187  p :     0.066937
      px      :     0.022903
      py      :     0.032848
 11 H s       :     0.912242  s :     0.912242
      pz      :     0.035254  p :     0.066194
      px      :     0.017401
      py      :     0.013539
 12 H s       :     0.911933  s :     0.911933
      pz      :     0.029740  p :     0.066785
      px      :     0.014536
      py      :     0.022509
 13 H s       :     0.906483  s :     0.906483
      pz      :     0.011406  p :     0.066437
      px      :     0.022381
      py      :     0.032650
 14 H s       :     0.908741  s :     0.908741
      pz      :     0.035721  p :     0.066854
      px      :     0.017540
      py      :     0.013594
 15 N s       :     3.035508  s :     3.035508
      pz      :     1.135060  p :     3.265708
      px      :     1.054766
      py      :     1.075882
      dz2     :     0.058545  d :     0.214017
      dxz     :     0.066688
      dyz     :     0.068297
      dx2y2   :     0.010968
      dxy     :     0.009519
 16 O s       :     3.605844  s :     3.605844
      pz      :     1.270786  p :     4.078964
      px      :     1.395879
      py      :     1.412299
      dz2     :     0.028822  d :     0.057849
      dxz     :     0.015614
      dyz     :     0.011662
      dx2y2   :     0.000899
      dxy     :     0.000853
 17 O s       :     3.605252  s :     3.605252
      pz      :     1.365057  p :     4.078901
      px      :     1.425029
      py      :     1.288815
      dz2     :     0.018910  d :     0.057958
      dxz     :     0.009505
      dyz     :     0.022196
      dx2y2   :     0.004108
      dxy     :     0.003239


                      *****************************
                      * MAYER POPULATION ANALYSIS *
                      *****************************

  NA   - Mulliken gross atomic population
  ZA   - Total nuclear charge
  QA   - Mulliken gross atomic charge
  VA   - Mayer's total valence
  BVA  - Mayer's bonded valence
  FA   - Mayer's free valence

  ATOM       NA         ZA         QA         VA         BVA        FA
  0 C      6.0559     6.0000    -0.0559     4.0025     4.0025    -0.0000
  1 C      6.0074     6.0000    -0.0074     3.8552     3.8552     0.0000
  2 C      5.9703     6.0000     0.0297     3.8357     3.8357    -0.0000
  3 C      5.9945     6.0000     0.0055     3.8405     3.8405     0.0000
  4 C      5.9760     6.0000     0.0240     3.8454     3.8454     0.0000
  5 C      6.0024     6.0000    -0.0024     3.8587     3.8587    -0.0000
  6 C      5.9219     6.0000     0.0781     3.9098     3.9098     0.0000
  7 H      0.9728     1.0000     0.0272     0.9877     0.9877    -0.0000
  8 H      0.9733     1.0000     0.0267     0.9888     0.9888     0.0000
  9 H      0.9917     1.0000     0.0083     0.9960     0.9960     0.0000
 10 H      1.0322     1.0000    -0.0322     0.9850     0.9850     0.0000
 11 H      1.0318     1.0000    -0.0318     0.9755     0.9755    -0.0000
 12 H      1.0241     1.0000    -0.0241     0.9766     0.9766    -0.0000
 13 H      1.0161     1.0000    -0.0161     0.9770     0.9770    -0.0000
 14 H      1.0296     1.0000    -0.0296     0.9857     0.9857    -0.0000
 15 N      6.4133     7.0000     0.5867     3.9934     3.9934    -0.0000
 16 O      7.7936     8.0000     0.2064     2.5270     2.5270    -0.0000
 17 O      7.7931     8.0000     0.2069     2.5279     2.5279     0.0000

  Mayer bond orders larger than 0.100000
B(  0-C ,  1-C ) :   1.3974 B(  0-C ,  5-C ) :   1.3763 B(  0-C ,  6-C ) :   1.0728 
B(  1-C ,  2-C ) :   1.3809 B(  1-C , 10-H ) :   0.9813 B(  2-C ,  3-C ) :   1.3909 
B(  2-C , 11-H ) :   0.9798 B(  3-C ,  4-C ) :   1.3739 B(  3-C , 12-H ) :   0.9812 
B(  4-C ,  5-C ) :   1.4029 B(  4-C , 13-H ) :   0.9827 B(  5-C , 14-H ) :   0.9861 
B(  6-C ,  7-H ) :   0.9502 B(  6-C ,  8-H ) :   0.9527 B(  6-C ,  9-H ) :   0.9597 
B( 15-N , 16-O ) :   1.9963 B( 15-N , 17-O ) :   1.9972 B( 16-O , 17-O ) :   0.5307 


-------
TIMINGS
-------

Total SCF time: 0 days 0 hours 2 min 34 sec 

Total time                  ....     154.682 sec
Sum of individual times     ....     153.483 sec  ( 99.2%)

Fock matrix formation       ....     146.474 sec  ( 94.7%)
  XC integration            ....      11.248 sec  (  7.7% of F)
    Basis function eval.    ....       3.524 sec  ( 31.3% of XC)
    Density eval.           ....       2.733 sec  ( 24.3% of XC)
    XC-Functional eval.     ....       0.891 sec  (  7.9% of XC)
    XC-Potential eval.      ....       3.246 sec  ( 28.9% of XC)
Diagonalization             ....       0.181 sec  (  0.1%)
Density matrix formation    ....       0.026 sec  (  0.0%)
Population analysis         ....       0.058 sec  (  0.0%)
Initial guess               ....       1.934 sec  (  1.3%)
Orbital Transformation      ....       0.000 sec  (  0.0%)
Orbital Orthonormalization  ....       0.000 sec  (  0.0%)
DIIS solution               ....       0.298 sec  (  0.2%)
SOSCF solution              ....       0.152 sec  (  0.1%)
Grid generation             ....       4.360 sec  (  2.8%)

-------------------------   --------------------
FINAL SINGLE POINT ENERGY      -475.641286671037
-------------------------   --------------------


                            ***************************************
                            *     ORCA property calculations      *
                            ***************************************

                                    ---------------------
                                    Active property flags
                                    ---------------------
   (+) Dipole Moment


------------------------------------------------------------------------------
                       ORCA ELECTRIC PROPERTIES CALCULATION
------------------------------------------------------------------------------

Dipole Moment Calculation                       ... on
Quadrupole Moment Calculation                   ... off
Polarizability Calculation                      ... off
GBWName                                         ... educts_freq.gbw
Electron density file                           ... educts_freq.scfp
The origin for moment calculation is the CENTER OF MASS  = (-12.925526, -0.357174 -7.150121)

-------------
DIPOLE MOMENT
-------------
                                X             Y             Z
Electronic contribution:     -9.06905      -4.94164     -56.84766
Nuclear contribution   :      5.78511       3.91714      38.76830
                        -----------------------------------------
Total Dipole Moment    :     -3.28394      -1.02450     -18.07937
                        -----------------------------------------
Magnitude (a.u.)       :     18.40373
Magnitude (Debye)      :     46.77857



--------------------
Rotational spectrum 
--------------------
 
Rotational constants in cm-1:     0.119580     0.002448     0.002401 
Rotational constants in MHz :  3584.925303    73.383848    71.980366 

 Dipole components along the rotational axes: 
x,y,z [a.u.] :   -18.403078     0.101519     0.117294 
x,y,z [Debye]:   -46.776906     0.258041     0.298137 

 

-------------------------------------------------------------------------------
                               ORCA SCF HESSIAN
-------------------------------------------------------------------------------

Hessian of the Kohn-Sham DFT energy:
Kohn-Sham wavefunction type                      ... RKS
Hartree-Fock exchange scaling                    ...    0.200
Number of operators                              ...    1
Number of atoms                                  ...   18
Basis set dimensions                             ...  180
Integral neglect threshold                       ... 1.0e-10
Integral primitive cutoff                        ... 1.0e-11

Setting up DFT Hessian calculations              ... 
Electron density on the grid                     ... found on disk
Electron density on the final grid               ... found on disk
Building xc-kernel on the grid                   ... done   (      0.1 sec)
Building xc-kernel on the final grid             ... done   (      0.3 sec)
                                                     done   (      0.7 sec)

Nuclear repulsion Hessian                        ... done   (      0.0 sec)

----------------------------------------------
Forming right-hand sides of CP-SCF equations     ...
----------------------------------------------
One electron integral derivatives                ... done   (      1.0 sec)
Transforming the overlap derivative matrices     ... done   (      0.1 sec)
Making the Q(x) pseudodensities                  ... done   (      0.1 sec)
Adding the E*S(x)*S(y) terms to the Hessian      ... done   (      0.3 sec)
Calculating energy weighted overlap derivatives  ... done   (      2.5 sec)
Two electron integral derivatives                ... done   (     57.8 sec)
Exchange-correlation integral derivatives        ... done   (    123.2 sec)
tr(F(y)Q(x)) contribution to the Hessian         ... done   (      0.0 sec)
Response fock operator R(S(x))                   ... done   (    360.5 sec)
XC Response fock operator R(S(x))                ... done   (     42.4 sec)
tr(F(y)S(x)) contribution to the Hessian         ... done   (      0.0 sec)
Transforming and finalizing RHSs                 ... done   (      0.1 sec)

----------------------------------------------
Solving the CP-SCF equations                     ...
----------------------------------------------
     CP-SCF ITERATION   0: 
     CP-SCF ITERATION   1:      0.012151430819
     CP-SCF ITERATION   2:      0.002379740616
     CP-SCF ITERATION   3:      0.000110339912
     CP-SCF ITERATION   4:      0.000055600505
     CP-SCF ITERATION   5:      0.000002559357
     CP-SCF ITERATION   6:      0.000000992799

                                                 ... done   (   2403.3 sec)
Forming perturbed density Hessian contributions  ... done   (      0.1 sec)
Making the perturbed densities                   ... done   (      0.2 sec)
2nd integral derivative contribs                 ... done   (    272.6 sec)
Exchange-correlation Hessian                     ... done   (    100.8 sec)
Dipol derivatives                                ... done   (      3.1 sec)

Total SCF Hessian time: 0 days 0 hours 56 min 11 sec 

Writing the Hessian file to the disk             ... done


Maximum memory used throughout the entire calculation: 112.2 MB

-----------------------
VIBRATIONAL FREQUENCIES
-----------------------

Scaling factor for frequencies =  1.000000000  (already applied!)

   0:         0.00 cm**-1
   1:         0.00 cm**-1
   2:         0.00 cm**-1
   3:         0.00 cm**-1
   4:         0.00 cm**-1
   5:         0.00 cm**-1
   6:        -1.51 cm**-1 ***imaginary mode***
   7:        23.06 cm**-1
   8:        57.68 cm**-1
   9:       103.13 cm**-1
  10:       187.68 cm**-1
  11:       202.00 cm**-1
  12:       208.72 cm**-1
  13:       342.09 cm**-1
  14:       412.33 cm**-1
  15:       492.02 cm**-1
  16:       533.92 cm**-1
  17:       628.36 cm**-1
  18:       714.55 cm**-1
  19:       716.81 cm**-1
  20:       743.22 cm**-1
  21:       749.76 cm**-1
  22:       800.92 cm**-1
  23:       856.07 cm**-1
  24:       913.56 cm**-1
  25:       988.49 cm**-1
  26:       993.00 cm**-1
  27:      1005.01 cm**-1
  28:      1013.78 cm**-1
  29:      1025.43 cm**-1
  30:      1056.14 cm**-1
  31:      1110.31 cm**-1
  32:      1158.75 cm**-1
  33:      1184.28 cm**-1
  34:      1256.77 cm**-1
  35:      1308.30 cm**-1
  36:      1343.00 cm**-1
  37:      1351.79 cm**-1
  38:      1405.66 cm**-1
  39:      1451.86 cm**-1
  40:      1459.97 cm**-1
  41:      1501.18 cm**-1
  42:      1509.91 cm**-1
  43:      1591.02 cm**-1
  44:      1674.68 cm**-1
  45:      2067.35 cm**-1
  46:      3007.34 cm**-1
  47:      3061.01 cm**-1
  48:      3137.25 cm**-1
  49:      3173.35 cm**-1
  50:      3178.24 cm**-1
  51:      3185.28 cm**-1
  52:      3196.44 cm**-1
  53:      3203.55 cm**-1


------------
NORMAL MODES
------------

These modes are the Cartesian displacements weighted by the diagonal matrix
M(i,i)=1/sqrt(m[i]) where m[i] is the mass of the displaced atom
Thus, these vectors are normalized but *not* orthogonal

                  0          1          2          3          4          5    
      0       0.000000   0.000000   0.000000   0.000000   0.000000   0.000000
      1       0.000000   0.000000   0.000000   0.000000   0.000000   0.000000
      2       0.000000   0.000000   0.000000   0.000000   0.000000   0.000000
      3       0.000000   0.000000   0.000000   0.000000   0.000000   0.000000
      4       0.000000   0.000000   0.000000   0.000000   0.000000   0.000000
      5       0.000000   0.000000   0.000000   0.000000   0.000000   0.000000
      6       0.000000   0.000000   0.000000   0.000000   0.000000   0.000000
      7       0.000000   0.000000   0.000000   0.000000   0.000000   0.000000
      8       0.000000   0.000000   0.000000   0.000000   0.000000   0.000000
      9       0.000000   0.000000   0.000000   0.000000   0.000000   0.000000
     10       0.000000   0.000000   0.000000   0.000000   0.000000   0.000000
     11       0.000000   0.000000   0.000000   0.000000   0.000000   0.000000
     12       0.000000   0.000000   0.000000   0.000000   0.000000   0.000000
     13       0.000000   0.000000   0.000000   0.000000   0.000000   0.000000
     14       0.000000   0.000000   0.000000   0.000000   0.000000   0.000000
     15       0.000000   0.000000   0.000000   0.000000   0.000000   0.000000
     16       0.000000   0.000000   0.000000   0.000000   0.000000   0.000000
     17       0.000000   0.000000   0.000000   0.000000   0.000000   0.000000
     18       0.000000   0.000000   0.000000   0.000000   0.000000   0.000000
     19       0.000000   0.000000   0.000000   0.000000   0.000000   0.000000
     20       0.000000   0.000000   0.000000   0.000000   0.000000   0.000000
     21       0.000000   0.000000   0.000000   0.000000   0.000000   0.000000
     22       0.000000   0.000000   0.000000   0.000000   0.000000   0.000000
     23       0.000000   0.000000   0.000000   0.000000   0.000000   0.000000
     24       0.000000   0.000000   0.000000   0.000000   0.000000   0.000000
     25       0.000000   0.000000   0.000000   0.000000   0.000000   0.000000
     26       0.000000   0.000000   0.000000   0.000000   0.000000   0.000000
     27       0.000000   0.000000   0.000000   0.000000   0.000000   0.000000
     28       0.000000   0.000000   0.000000   0.000000   0.000000   0.000000
     29       0.000000   0.000000   0.000000   0.000000   0.000000   0.000000
     30       0.000000   0.000000   0.000000   0.000000   0.000000   0.000000
     31       0.000000   0.000000   0.000000   0.000000   0.000000   0.000000
     32       0.000000   0.000000   0.000000   0.000000   0.000000   0.000000
     33       0.000000   0.000000   0.000000   0.000000   0.000000   0.000000
     34       0.000000   0.000000   0.000000   0.000000   0.000000   0.000000
     35       0.000000   0.000000   0.000000   0.000000   0.000000   0.000000
     36       0.000000   0.000000   0.000000   0.000000   0.000000   0.000000
     37       0.000000   0.000000   0.000000   0.000000   0.000000   0.000000
     38       0.000000   0.000000   0.000000   0.000000   0.000000   0.000000
     39       0.000000   0.000000   0.000000   0.000000   0.000000   0.000000
     40       0.000000   0.000000   0.000000   0.000000   0.000000   0.000000
     41       0.000000   0.000000   0.000000   0.000000   0.000000   0.000000
     42       0.000000   0.000000   0.000000   0.000000   0.000000   0.000000
     43       0.000000   0.000000   0.000000   0.000000   0.000000   0.000000
     44       0.000000   0.000000   0.000000   0.000000   0.000000   0.000000
     45       0.000000   0.000000   0.000000   0.000000   0.000000   0.000000
     46       0.000000   0.000000   0.000000   0.000000   0.000000   0.000000
     47       0.000000   0.000000   0.000000   0.000000   0.000000   0.000000
     48       0.000000   0.000000   0.000000   0.000000   0.000000   0.000000
     49       0.000000   0.000000   0.000000   0.000000   0.000000   0.000000
     50       0.000000   0.000000   0.000000   0.000000   0.000000   0.000000
     51       0.000000   0.000000   0.000000   0.000000   0.000000   0.000000
     52       0.000000   0.000000   0.000000   0.000000   0.000000   0.000000
     53       0.000000   0.000000   0.000000   0.000000   0.000000   0.000000
                  6          7          8          9         10         11    
      0       0.032806   0.033376  -0.056915  -0.025576  -0.001277  -0.119488
      1       0.010585  -0.049042  -0.028700  -0.017579  -0.015663  -0.076307
      2       0.188379   0.064647   0.006589   0.007323   0.002328   0.029727
      3       0.033662  -0.012370   0.143173  -0.006431  -0.040463  -0.148175
      4       0.008659   0.087937   0.080817  -0.004613  -0.039806  -0.094466
      5       0.187527   0.117921  -0.048264   0.001991   0.012359   0.037362
      6       0.034733  -0.078499   0.256667   0.019880  -0.012293   0.002333
      7       0.007185   0.195131   0.136615   0.012918  -0.020873   0.001797
      8       0.188913   0.021904  -0.064097  -0.004520   0.004622  -0.000706
      9       0.034872  -0.098210   0.159252   0.021063   0.054052   0.141002
     10       0.007552   0.162395   0.076409   0.013030   0.021483   0.090928
     11       0.191096  -0.122649  -0.022697  -0.005158  -0.012972  -0.035500
     12       0.034002  -0.054226  -0.046982  -0.012959   0.098198   0.024016
     13       0.009430   0.026228  -0.037324  -0.008949   0.048915   0.015789
     14       0.191956  -0.176971   0.034072   0.002796  -0.024332  -0.005665
     15       0.032986   0.012258  -0.156159  -0.040620   0.069143  -0.133198
     16       0.011003  -0.080622  -0.090243  -0.026704   0.029391  -0.085331
     17       0.190616  -0.081815   0.048727   0.010410  -0.016337   0.033730
     18       0.031998   0.108343  -0.170293   0.029723  -0.045912   0.160367
     19       0.012743  -0.168179  -0.082647   0.021017  -0.044958   0.100908
     20       0.186687   0.167944   0.021714  -0.009140   0.014205  -0.040480
     21       0.031396   0.135067  -0.200990   0.002124  -0.071335   0.316962
     22       0.016221  -0.225583  -0.142582   0.459738   0.026226  -0.189494
     23       0.184560   0.163583   0.159551  -0.394919   0.001310  -0.118084
     24       0.034473   0.140795  -0.296844   0.564484   0.015243  -0.017004
     25       0.013680  -0.246376  -0.107368  -0.055266  -0.087803   0.346395
     26       0.188652   0.129896  -0.063151   0.217069   0.016299   0.040360
     27       0.029445   0.111375  -0.104255  -0.390665  -0.117364   0.455678
     28       0.010327  -0.131550  -0.040918  -0.277675  -0.096330   0.316330
     29       0.185370   0.291815  -0.018039   0.122283   0.034500  -0.112878
     30       0.033543   0.003759   0.221162  -0.006944  -0.097762  -0.187775
     31       0.008366   0.114232   0.128799  -0.004853  -0.076312  -0.119788
     32       0.185726   0.236527  -0.081837   0.002161   0.027421   0.047543
     33       0.035485  -0.114402   0.421930   0.036792  -0.046618   0.048362
     34       0.005621   0.305029   0.227588   0.023903  -0.042153   0.031119
     35       0.188224   0.065156  -0.109888  -0.008784   0.013519  -0.012431
     36       0.035630  -0.147022   0.246081   0.040854   0.073786   0.324036
     37       0.006471   0.241979   0.119644   0.026203   0.034682   0.207897
     38       0.192094  -0.193363  -0.035293  -0.010507  -0.018353  -0.081384
     39       0.034147  -0.070795  -0.127781  -0.022936   0.153739   0.089789
     40       0.009761  -0.000309  -0.087082  -0.015310   0.084281   0.057737
     41       0.193762  -0.295624   0.068187   0.005248  -0.038906  -0.022474
     42       0.032330   0.047462  -0.321849  -0.070367   0.101385  -0.160647
     43       0.012480  -0.190024  -0.181170  -0.046322   0.049033  -0.102548
     44       0.191284  -0.124791   0.093906   0.017581  -0.024621   0.040652
     45      -0.067028   0.020972  -0.030473   0.000565  -0.034787   0.000084
     46      -0.019543  -0.042455  -0.012265   0.000400   0.009911   0.000138
     47      -0.378848  -0.003664   0.005606   0.000166  -0.000534   0.000116
     48      -0.066287   0.019937  -0.040378   0.001395  -0.640736  -0.003559
     49      -0.017115  -0.042446  -0.012097   0.000416   0.179208   0.002557
     50      -0.378655  -0.003407   0.008141  -0.000051   0.167812   0.001257
     51      -0.068285   0.022071  -0.019354  -0.000351   0.579319   0.003621
     52      -0.021416  -0.042544  -0.013166   0.000445  -0.164907  -0.002136
     53      -0.379636  -0.003827   0.004088   0.000268  -0.152938  -0.001445
                 12         13         14         15         16         17    
      0       0.003702  -0.083684  -0.002273  -0.219641   0.049827   0.072124
      1      -0.014588   0.093238  -0.002471  -0.143083  -0.132508  -0.081756
      2       0.000558  -0.093504   0.001317   0.053132  -0.177379   0.075860
      3       0.015860  -0.060954   0.171402   0.033714  -0.080365   0.148265
      4      -0.002242   0.049172   0.109250   0.023865   0.113690  -0.262262
      5      -0.001348  -0.123280  -0.042466  -0.008611  -0.031077  -0.079630
      6       0.002710   0.022722  -0.164386   0.101329  -0.090200  -0.079535
      7      -0.006600  -0.055867  -0.104772   0.067642   0.138761  -0.010180
      8      -0.001114  -0.048631   0.041978  -0.025309   0.012148  -0.342537
      9      -0.021398   0.036267  -0.003746  -0.159614  -0.051482  -0.071044
     10      -0.022588  -0.040020  -0.002242  -0.099397   0.182146   0.079317
     11       0.000899   0.043370   0.000733   0.042958   0.233322  -0.078498
     12      -0.031852  -0.002933   0.171389   0.097246   0.047083  -0.176806
     13      -0.033798   0.035822   0.109618   0.062241  -0.018654   0.302261
     14       0.002346   0.075791  -0.043752  -0.022290   0.156292   0.067498
     15      -0.018283  -0.083125  -0.167735   0.038207   0.068910   0.057036
     16      -0.029173   0.116470  -0.108308   0.023293  -0.058009   0.029071
     17       0.001969  -0.027672   0.042453  -0.007455   0.126203   0.303012
     18       0.012593   0.125015  -0.001747   0.003396   0.055911   0.032189
     19      -0.013659  -0.145528   0.000525  -0.001479  -0.205133  -0.037007
     20       0.001789   0.125103  -0.000718  -0.005281  -0.292234   0.033040
     21       0.017447   0.231762  -0.006337   0.147525   0.053503   0.042400
     22      -0.030998  -0.336901   0.002746  -0.109336  -0.203063  -0.057795
     23       0.008227   0.066427   0.009324  -0.238770  -0.289631   0.031573
     24      -0.001919   0.257459  -0.005001   0.046809   0.056627   0.050746
     25      -0.008742  -0.364220  -0.006159   0.209727  -0.210161  -0.058170
     26      -0.002438   0.040471  -0.007645   0.165760  -0.296763   0.028758
     27       0.028247   0.137013  -0.004528   0.129183   0.054351   0.031706
     28      -0.001428  -0.029187  -0.001687   0.093188  -0.213000  -0.030418
     29       0.000870   0.512973  -0.000744  -0.025104  -0.299678   0.063067
     30       0.035016  -0.071729   0.376892   0.266090  -0.060744   0.166463
     31       0.010439   0.029913   0.240583   0.172701   0.152367  -0.229390
     32      -0.002760  -0.225326  -0.093543  -0.063839   0.197860   0.071598
     33       0.011904   0.068797  -0.374615   0.332300  -0.021934  -0.147359
     34       0.002926  -0.145775  -0.239015   0.213834  -0.016104   0.121839
     35      -0.002518  -0.091680   0.095464  -0.084392  -0.054153  -0.280757
     36      -0.032277   0.072348  -0.017580  -0.281715  -0.052968   0.167120
     37      -0.026540  -0.081450  -0.010552  -0.177409   0.184560  -0.190482
     38       0.001375   0.082652   0.003825   0.073577   0.232358   0.177691
     39      -0.050766   0.009419   0.376505   0.331471   0.015111  -0.195546
     40      -0.046312   0.058295   0.240480   0.211502  -0.062305   0.271313
     41       0.003734   0.179157  -0.095580  -0.083181  -0.028604  -0.082788
     42      -0.027072  -0.133662  -0.374496   0.287613  -0.037210   0.122391
     43      -0.038373   0.209937  -0.241649   0.185659   0.120570  -0.100182
     44       0.003233   0.017257   0.093685  -0.068864   0.213801   0.241300
     45       0.029595  -0.000329  -0.000142   0.000013  -0.000043  -0.000480
     46       0.005207   0.000539  -0.000078  -0.000093   0.000107   0.000872
     47       0.102350  -0.000018   0.000035  -0.000009  -0.000014   0.000008
     48       0.215815  -0.000326   0.000050  -0.000430  -0.000102  -0.000615
     49       0.688455   0.000440  -0.000086  -0.000046   0.000101   0.000821
     50       0.111079  -0.000026  -0.000023   0.000096  -0.000002   0.000047
     51      -0.212973  -0.000334  -0.000268   0.000180  -0.000047  -0.000613
     52      -0.592180   0.000628  -0.000087  -0.000030   0.000141   0.001037
     53      -0.205126   0.000032   0.000032  -0.000003   0.000002   0.000124
                 18         19         20         21         22         23    
      0       0.006736   0.054964  -0.000556  -0.124506   0.003985  -0.005349
      1       0.005615   0.035605  -0.000313  -0.079039   0.009335  -0.003319
      2      -0.002160  -0.013559   0.000155   0.032090   0.009433   0.001388
      3      -0.037131  -0.052230   0.000100   0.093709   0.086634  -0.062423
      4      -0.023913  -0.033694   0.000062   0.058548  -0.069152  -0.039901
      5       0.008479   0.013251  -0.000007  -0.021285   0.178706   0.015962
      6       0.029657   0.114035  -0.000244  -0.020409   0.094350  -0.059175
      7       0.017920   0.072857  -0.000180  -0.014836  -0.055626  -0.038006
      8      -0.007641  -0.028745   0.000094   0.007814   0.232685   0.015223
      9       0.003874  -0.053040   0.000686   0.111341   0.022270   0.003140
     10       0.001592  -0.034119   0.000424   0.069888  -0.088498   0.002081
     11       0.000138   0.013388  -0.000140  -0.030069  -0.116569  -0.000934
     12       0.062596   0.110378   0.000171  -0.028171  -0.137710   0.059508
     13       0.040524   0.070628   0.000184  -0.014720   0.205946   0.037927
     14      -0.014317  -0.027875   0.000010   0.006033  -0.023880  -0.015041
     15      -0.002076  -0.048641   0.000528   0.087767  -0.116571   0.064332
     16       0.000087  -0.031029   0.000408   0.058696   0.159633   0.040912
     17       0.001183   0.012015  -0.000090  -0.022577  -0.046566  -0.015967
     18      -0.025710   0.009854  -0.000419  -0.026665   0.039740   0.003020
     19      -0.014005   0.006240  -0.000204  -0.018485  -0.150578   0.002649
     20       0.005020  -0.002479   0.000062   0.005010  -0.218559  -0.001483
     21      -0.041500  -0.006916  -0.000124   0.105511   0.065704   0.001292
     22       0.007727   0.009091  -0.000216  -0.107381  -0.196261  -0.005429
     23       0.019726   0.032715  -0.000631  -0.218708  -0.243018   0.006710
     24      -0.017320  -0.006011  -0.000031   0.028962   0.066741  -0.003895
     25      -0.037380  -0.017427   0.000195   0.171746  -0.202783  -0.001241
     26      -0.006627  -0.026250   0.000538   0.167487  -0.246605  -0.005530
     27      -0.045478   0.015425  -0.000339   0.100461   0.042932  -0.007262
     28      -0.028789   0.009672  -0.000138   0.076881  -0.161047  -0.004333
     29       0.008389  -0.006750   0.000075  -0.016126  -0.232043   0.003954
     30      -0.155302  -0.402391  -0.000114  -0.060236   0.083840   0.426602
     31      -0.099531  -0.257506  -0.000071  -0.040165  -0.090393   0.272613
     32       0.037251   0.100766   0.000061   0.015510   0.121815  -0.106765
     33      -0.044379  -0.147217  -0.001332  -0.478732  -0.022142   0.383760
     34      -0.030437  -0.094203  -0.000852  -0.304844   0.204396   0.246299
     35       0.010924   0.037691   0.000368   0.125121   0.354108  -0.097095
     36      -0.109815  -0.528814   0.000404  -0.310097   0.035529  -0.023956
     37      -0.072219  -0.338678   0.000150  -0.200002  -0.070781  -0.015084
     38       0.029517   0.133052  -0.000000   0.076101  -0.120451   0.005759
     39       0.020241  -0.145340  -0.000281  -0.452597  -0.094380  -0.406497
     40       0.013595  -0.092628  -0.000094  -0.285298   0.279446  -0.259676
     41      -0.002733   0.036687   0.000157   0.115487   0.265301   0.101750
     42      -0.088304  -0.394782   0.000922  -0.037004  -0.092479  -0.410644
     43      -0.054338  -0.253050   0.000658  -0.022887   0.107503  -0.263653
     44       0.022858   0.098098  -0.000194   0.007998  -0.080270   0.102227
     45      -0.743607   0.025510   0.295924  -0.002349   0.000070  -0.000236
     46       0.251220  -0.008381   0.733959   0.000407  -0.000076   0.000183
     47       0.209200  -0.007128   0.171877   0.000529  -0.000027   0.000061
     48       0.335791  -0.010984  -0.094518   0.000457   0.000026  -0.000003
     49      -0.110336   0.003775  -0.384867  -0.000254  -0.000019  -0.000005
     50      -0.095176   0.003175   0.127346  -0.000197  -0.000011  -0.000011
     51       0.317102  -0.011122  -0.164705   0.001271  -0.000007   0.000476
     52      -0.111503   0.003825  -0.257971  -0.000330  -0.000033   0.000008
     53      -0.088513   0.003013  -0.277909  -0.000203  -0.000001  -0.000096
                 24         25         26         27         28         29    
      0      -0.012191  -0.034022   0.002977  -0.030578   0.015173  -0.000169
      1      -0.007260   0.042192   0.004578   0.032885   0.010252   0.006183
      2       0.003305  -0.035817  -0.002477  -0.015200  -0.003845   0.007750
      3       0.073073  -0.019337   0.074353   0.173813   0.021954  -0.010398
      4       0.048210   0.025880   0.045614  -0.241172   0.007499   0.039600
      5      -0.019312   0.010203  -0.017269   0.081689  -0.004194   0.061017
      6      -0.010908   0.032643  -0.085235  -0.031617  -0.061358  -0.093411
      7      -0.006737  -0.019880  -0.055115   0.036229  -0.039860   0.101351
      8       0.002264   0.058097   0.022753  -0.059158   0.015195  -0.108392
      9      -0.085315  -0.009866   0.014289  -0.058895   0.079617   0.040572
     10      -0.055062  -0.015882   0.010386   0.138950   0.055508  -0.123452
     11       0.020988  -0.081605  -0.005528   0.143795  -0.015797  -0.161943
     12       0.000481  -0.003923   0.068272   0.075606  -0.081273   0.092547
     13      -0.000558  -0.005669   0.041773  -0.103602  -0.052921  -0.111239
     14      -0.000217  -0.009432  -0.016708   0.028121   0.019951   0.093576
     15       0.071455   0.081723  -0.071095  -0.082937   0.036224  -0.014212
     16       0.044202  -0.073493  -0.048525   0.062863   0.025319   0.043758
     17      -0.016507   0.125568   0.020806  -0.178473  -0.013595   0.051714
     18      -0.031650  -0.075002  -0.006239  -0.053432  -0.018494  -0.000156
     19      -0.019330   0.083951   0.001013   0.073787  -0.010595  -0.008947
     20       0.008536  -0.078641  -0.001907  -0.043484   0.004604  -0.016525
     21       0.075653   0.127491   0.007675   0.089979   0.031786   0.008375
     22      -0.077424  -0.357657  -0.013610  -0.250901  -0.034113  -0.020297
     23      -0.185773  -0.101315  -0.016116  -0.052765  -0.090191  -0.025536
     24       0.034722   0.241671   0.014570   0.170702   0.022257   0.007697
     25       0.133205  -0.317295  -0.006726  -0.241209   0.056593  -0.015794
     26       0.149675  -0.191574   0.001694  -0.146970   0.072777  -0.017594
     27       0.090923  -0.041035   0.008547  -0.041217   0.047461   0.003876
     28       0.072436   0.298314   0.019255   0.216368   0.039316  -0.002690
     29      -0.012592   0.616366   0.021362   0.450148  -0.004565  -0.002620
     30      -0.425618  -0.007603  -0.395756   0.204858  -0.141112   0.024731
     31      -0.270652   0.020646  -0.255134  -0.217819  -0.097108   0.110035
     32       0.104341  -0.072011   0.100145   0.218779   0.036155   0.376754
     33       0.077302  -0.020042   0.463923  -0.140955   0.365607  -0.269799
     34       0.049317   0.028065   0.302011   0.173710   0.231922   0.446114
     35      -0.020312   0.092588  -0.115219   0.032843  -0.093306   0.037498
     36       0.480191  -0.072157  -0.089507  -0.085365  -0.451684   0.040082
     37       0.306858   0.050165  -0.051526   0.221208  -0.282866  -0.147713
     38      -0.121230  -0.146579   0.017122   0.081221   0.116878  -0.167858
     39       0.024104   0.003914  -0.358907   0.061816   0.475030   0.158200
     40       0.014238  -0.028239  -0.231713  -0.106372   0.302114  -0.033629
     41      -0.007623  -0.170050   0.086779   0.039112  -0.123485   0.488988
     42      -0.416073   0.099214   0.381704  -0.163306  -0.251382  -0.149083
     43      -0.268924  -0.136152   0.241005   0.205064  -0.158325   0.292289
     44       0.104714   0.111328  -0.091793  -0.113245   0.057980   0.177809
     45      -0.000059   0.000013  -0.000010  -0.000003  -0.000101   0.000001
     46       0.000019  -0.000010  -0.000002   0.000010   0.000023  -0.000001
     47       0.000003  -0.000002  -0.000007  -0.000005   0.000022   0.000012
     48      -0.000024   0.000003  -0.000007  -0.000004  -0.000073  -0.000001
     49      -0.000012   0.000004  -0.000004   0.000015  -0.000021   0.000004
     50       0.000011  -0.000010   0.000003  -0.000007   0.000012  -0.000004
     51       0.000067  -0.000039  -0.000005  -0.000037   0.000113  -0.000008
     52      -0.000025   0.000010  -0.000010   0.000018  -0.000023   0.000009
     53      -0.000011  -0.000003   0.000000  -0.000003  -0.000022  -0.000003
                 30         31         32         33         34         35    
      0      -0.124927  -0.017582   0.003053  -0.005665  -0.081656  -0.146473
      1      -0.080181   0.019265  -0.002062   0.016105   0.213951   0.149458
      2       0.030847  -0.021105   0.006832   0.019625   0.219265  -0.202500
      3       0.044727   0.028061   0.000946  -0.001333   0.005432   0.027795
      4       0.032224  -0.061447   0.002438  -0.014569   0.025523  -0.014322
      5      -0.011663  -0.044125   0.009546  -0.042300   0.086510   0.073300
      6      -0.009525   0.023895   0.015784  -0.018532  -0.018468   0.073177
      7      -0.006370  -0.015636  -0.033328   0.032411  -0.013275  -0.122445
      8       0.003809   0.055181  -0.022497   0.009179  -0.106519  -0.020127
      9       0.002388  -0.046809  -0.030861  -0.004897  -0.010265  -0.054851
[...]
      2      -0.162224   0.158759  -0.188639  -0.000004   0.000928  -0.000199
      3       0.049113  -0.077998  -0.010943  -0.000250  -0.000189  -0.000153
      4      -0.044456   0.056193   0.136661   0.000051   0.000421  -0.000282
      5       0.082212  -0.166817   0.303964  -0.000094   0.000453   0.000046
      6      -0.075827   0.123954   0.087100   0.000020  -0.000115   0.000049
      7       0.145142  -0.170392  -0.212918   0.000100   0.000076  -0.000023
      8       0.067728   0.058178  -0.195355  -0.000037  -0.000236   0.000015
      9      -0.002555  -0.192338  -0.016437   0.000344   0.000133  -0.000040
     10      -0.036697   0.222198   0.070129   0.000397  -0.000180   0.000013
     11      -0.103468  -0.198150   0.113031  -0.000108   0.000111  -0.000003
     12       0.043800   0.097926   0.012416   0.000539   0.000100   0.000025
     13      -0.019030  -0.097031  -0.133879   0.000491  -0.000357   0.000059
     14       0.125597   0.142197  -0.291653  -0.000097  -0.000450   0.000012
     15      -0.063086  -0.110015  -0.092717   0.000300  -0.000097   0.000268
     16       0.108610   0.167116   0.228853   0.000432   0.000608   0.000197
     17       0.025715  -0.011846   0.214756  -0.000090   0.000982  -0.000330
     18      -0.013937  -0.010100  -0.006958  -0.000305  -0.014263  -0.073399
     19       0.041847   0.009962   0.023338   0.000093  -0.018877  -0.046906
     20       0.054591  -0.015026   0.032910  -0.000042  -0.050486   0.026740
     21       0.018525   0.026168  -0.004596  -0.000339   0.631277   0.550292
     22      -0.081454   0.044461  -0.009908   0.000622   0.267351   0.228213
     23       0.104860  -0.143506   0.050313  -0.000328   0.243436   0.232390
     24       0.110255  -0.094016   0.033839  -0.000275  -0.239548   0.291574
     25      -0.016820  -0.066462   0.007986  -0.000199  -0.319165   0.407229
     26       0.079544  -0.115887   0.039552  -0.000312   0.426651  -0.570161
     27      -0.025275   0.010694  -0.008151  -0.000668  -0.218859   0.036875
     28      -0.023061   0.084047   0.004262  -0.000039   0.267341  -0.070717
     29      -0.142901   0.195688  -0.038101   0.000209  -0.082840   0.021866
     30       0.010670  -0.032552  -0.096807  -0.000277   0.003592  -0.000940
     31      -0.144865   0.148048   0.012661   0.000079  -0.005558   0.001464
     32      -0.325066   0.249936  -0.350154   0.000219  -0.000126  -0.000084
     33       0.218606  -0.027842  -0.168707  -0.000135   0.000565  -0.000080
     34      -0.420429   0.129958   0.268055   0.000222  -0.000529   0.000099
     35      -0.199962   0.218218   0.013469   0.000200   0.000772  -0.000136
     36       0.100025   0.269001  -0.032050   0.000741  -0.000238  -0.000411
     37      -0.162293  -0.302092   0.095829   0.000347   0.000830  -0.000335
     38      -0.013405   0.299904   0.113557   0.000153   0.001247   0.000000
     39      -0.006757   0.078886   0.095469   0.001007  -0.000050  -0.000218
     40      -0.130301  -0.169122  -0.021342   0.000879  -0.000100  -0.000014
     41      -0.358244  -0.119573   0.326332   0.000031  -0.000471   0.000106
     42       0.196640   0.086730   0.196386   0.000660  -0.002820  -0.000984
     43      -0.393515  -0.211773  -0.316662   0.000476   0.000946  -0.001596
     44      -0.219263  -0.194767  -0.024321  -0.000225  -0.008407   0.002890
     45      -0.000004   0.000069  -0.000014  -0.140682  -0.000001   0.000000
     46       0.000008  -0.000106   0.000023   0.243818   0.000002   0.000003
     47      -0.000025   0.000052  -0.000004  -0.795617   0.000003   0.000004
     48       0.000008   0.000043  -0.000010   0.092705  -0.000002  -0.000004
     49      -0.000001  -0.000074   0.000014  -0.030593   0.000002   0.000002
     50       0.000025  -0.000041   0.000013   0.364076  -0.000001  -0.000002
     51      -0.000001   0.000045  -0.000002   0.029977   0.000001   0.000016
     52      -0.000003  -0.000083   0.000016  -0.184357   0.000003   0.000003
     53       0.000010  -0.000024   0.000008   0.332838  -0.000001  -0.000005
                 48         49         50         51         52         53    
      0       0.000370  -0.000427  -0.001135  -0.000309   0.001266   0.000312
      1       0.000135   0.001139   0.001376   0.001207  -0.001284  -0.000896
      2       0.001665   0.001222  -0.000968   0.001867   0.001758  -0.001066
      3      -0.002149  -0.017111   0.024156  -0.028026  -0.021887   0.013490
      4       0.003183   0.025068  -0.035858   0.041632   0.033611  -0.020835
      5      -0.000241  -0.004323   0.004932  -0.005644  -0.001614   0.000704
      6       0.000212   0.014868  -0.012835   0.002867  -0.019819   0.016311
      7      -0.000258  -0.008825   0.008309  -0.003865   0.010881  -0.010215
      8       0.000235   0.036274  -0.029564   0.001520  -0.050648   0.038489
      9      -0.000092   0.008042  -0.000574  -0.010644   0.002922  -0.007809
     10       0.000073  -0.026733   0.003146   0.034726  -0.004988   0.026307
     11      -0.000149  -0.036069   0.005697   0.046077  -0.001107   0.035878
     12       0.000192  -0.018679  -0.015325   0.005297  -0.027938  -0.031017
     13      -0.000166   0.027886   0.022124  -0.009272   0.042369   0.046157
     14       0.000354  -0.003468  -0.004774  -0.002470  -0.003461  -0.006109
     15      -0.000295   0.013384   0.021877   0.014323  -0.008993  -0.008500
     16       0.000203  -0.008703  -0.013562  -0.008815   0.004151   0.003819
     17      -0.000856   0.031351   0.052918   0.034832  -0.025413  -0.024291
     18       0.052837  -0.000681   0.001577  -0.001104  -0.000824   0.000393
     19      -0.064851   0.000824  -0.001975   0.001293   0.001022  -0.000512
     20       0.038218  -0.000106   0.001315  -0.000399  -0.000560  -0.000031
     21      -0.179765  -0.000289  -0.006700   0.001185   0.002089   0.001128
     22      -0.089093  -0.000793  -0.003897  -0.000835   0.001055   0.001247
     23      -0.066801  -0.000638  -0.002788  -0.000568   0.000441   0.001217
     24       0.120423   0.000827   0.004998   0.000573  -0.001481  -0.001118
     25       0.143303   0.000016   0.005231  -0.001324  -0.001822  -0.000414
     26      -0.201343  -0.001431  -0.008411  -0.000723   0.002122   0.002264
     27      -0.569046   0.008912  -0.016711   0.013185   0.008143  -0.005808
     28       0.710529  -0.011682   0.021037  -0.017267  -0.010288   0.007739
     29      -0.201933   0.001705  -0.005644   0.002469   0.002655  -0.000827
     30       0.022327   0.201818  -0.282058   0.320021   0.243843  -0.147840
     31      -0.033856  -0.300353   0.420161  -0.476475  -0.364206   0.220962
     32       0.001678   0.039322  -0.054033   0.061669   0.044162  -0.026319
     33      -0.002614  -0.179899   0.148215  -0.016824   0.230799  -0.177029
     34       0.001532   0.109532  -0.090934   0.012487  -0.139771   0.108697
     35      -0.006544  -0.432218   0.354289  -0.034666   0.556438  -0.423001
     36      -0.000166  -0.096382   0.012879   0.120392  -0.011241   0.087814
     37       0.000282   0.317614  -0.043625  -0.395954   0.031443  -0.289566
     38      -0.000004   0.425231  -0.059814  -0.528997   0.035288  -0.387925
     39      -0.002257   0.226396   0.181724  -0.065659   0.315863   0.341346
     40       0.003272  -0.337674  -0.270309   0.099282  -0.471760  -0.508654
     41      -0.000615   0.042946   0.036292  -0.008963   0.058383   0.065973
     42       0.002466  -0.154185  -0.253612  -0.163193   0.108947   0.101941
     43      -0.000984   0.096417   0.158038   0.101991  -0.066620  -0.062239
     44       0.008194  -0.371371  -0.612103  -0.393186   0.266189   0.249419
     45       0.000001   0.000000  -0.000002  -0.000002  -0.000000  -0.000002
     46      -0.000001  -0.000000   0.000004   0.000002   0.000001   0.000002
     47       0.000002  -0.000002   0.000002  -0.000005   0.000003  -0.000008
     48      -0.000001   0.000001  -0.000002  -0.000001  -0.000001   0.000001
     49      -0.000000  -0.000001   0.000004   0.000000   0.000001  -0.000000
     50      -0.000002  -0.000000  -0.000000   0.000001  -0.000001   0.000003
     51       0.000003   0.000000  -0.000004   0.000002  -0.000001  -0.000002
     52       0.000000  -0.000001   0.000005  -0.000001   0.000002  -0.000001
     53      -0.000003   0.000000   0.000000   0.000001  -0.000001   0.000003


-----------
IR SPECTRUM
-----------

 Mode    freq (cm**-1)   T**2         TX         TY         TZ
-------------------------------------------------------------------
   7:        23.06    0.826866  (  0.403023  -0.814533   0.031238)
   8:        57.68    0.584537  ( -0.687667  -0.302919   0.141035)
   9:       103.13    0.672624  (  0.599723   0.517656  -0.212104)
  10:       187.68    0.094937  ( -0.300716   0.059286   0.031493)
  11:       202.00    1.573389  (  1.055965   0.638293  -0.225630)
  12:       208.72    0.084778  (  0.109512   0.229531   0.141778)
  13:       342.09    0.349046  (  0.276330  -0.248789   0.459120)
  14:       412.33    0.000486  (  0.002709   0.000100  -0.021879)
  15:       492.02    7.682967  (  2.304882   1.437644  -0.551058)
  16:       533.92    0.468615  (  0.117445  -0.486767  -0.466777)
  17:       628.36    0.133234  (  0.189397  -0.200609   0.238996)
  18:       714.55   11.122788  ( -3.148500   0.642661   0.892593)
  19:       716.81   28.353015  ( -4.281721  -2.989464   1.040665)
  20:       743.22    7.062864  (  0.970126   2.406316   0.575642)
  21:       749.76   20.484367  ( -3.754847  -2.321000   0.999224)
  22:       800.92    0.416933  ( -0.011397   0.416138   0.493591)
  23:       856.07    0.029992  ( -0.133274  -0.107391   0.026400)
  24:       913.56    0.221124  ( -0.396580  -0.083797   0.238383)
  25:       988.49    2.125144  ( -0.163479   0.821702   1.192990)
  26:       993.00    0.022932  ( -0.123342   0.078139   0.040164)
  27:      1005.01    0.460513  ( -0.196913   0.436921   0.480457)
  28:      1013.78    0.023512  (  0.142409   0.056824  -0.001572)
  29:      1025.43    2.970099  ( -0.224985   0.933511   1.431097)
  30:      1056.14    4.625946  ( -1.685725  -1.334806   0.050680)
  31:      1110.31    5.310577  ( -1.123604   1.062165  -1.708770)
  32:      1158.75    0.570593  (  0.426339  -0.439558   0.442286)
  33:      1184.28    0.323076  ( -0.009786   0.238240   0.515967)
  34:      1256.77    0.846143  (  0.139250   0.266113   0.869446)
  35:      1308.30    1.620394  (  0.581630  -1.074263  -0.357853)
  36:      1343.00    0.259453  ( -0.254636   0.304413  -0.319290)
  37:      1351.79    0.538684  (  0.267718   0.671601   0.126344)
  38:      1405.66    0.586407  (  0.370702  -0.163100   0.649912)
  39:      1451.86    6.670097  ( -2.042754  -1.450342   0.627504)
  40:      1459.97    3.882827  (  1.039053  -0.854840   1.439599)
  41:      1501.18    7.130886  (  1.149653  -0.931463   2.222962)
  42:      1509.91   17.244160  (  1.124249  -2.861112  -2.791820)
  43:      1591.02    0.565430  (  0.361277  -0.326027   0.573250)
  44:      1674.68    8.428702  (  0.519285  -1.734512  -2.269474)
  45:      2067.35  280.889414  ( -2.797455   4.754650 -15.825832)
  46:      3007.34   22.801931  (  0.016016  -2.545295  -4.040192)
  47:      3061.01   13.088120  ( -2.966385  -1.627305   1.280842)
  48:      3137.25   12.019981  (  1.996562  -2.749246   0.689469)
  49:      3173.35    2.419338  ( -0.007483   0.522374   1.465062)
  50:      3178.24    1.311024  (  0.587599  -0.612576   0.768442)
  51:      3185.28   18.742204  ( -0.828345   2.558061   3.392989)
  52:      3196.44   32.804768  ( -3.050996   3.397784  -3.457059)
  53:      3203.55    8.896216  ( -0.560809   1.773879   2.331322)

The first frequency considered to be a vibration is 7
The total number of vibrations considered is 47


--------------------------
THERMOCHEMISTRY AT 298.15K
--------------------------

Temperature         ... 298.15 K
Pressure            ... 1.00 atm
Total Mass          ... 138.15 AMU

Throughout the following assumptions are being made:
  (1) The electronic state is orbitally nondegenerate
  (2) There are no thermally accessible electronically excited states
  (3) Hindered rotations indicated by low frequency modes are not
      treated as such but are treated as vibrations and this may
      cause some error
  (4) All equations used are the standard statistical mechanics
      equations for an ideal gas
  (5) All vibrations are strictly harmonic

freq.      23.06  E(vib)   ...       0.56 
freq.      57.68  E(vib)   ...       0.51 
freq.     103.13  E(vib)   ...       0.46 
freq.     187.68  E(vib)   ...       0.36 
freq.     202.00  E(vib)   ...       0.35 
freq.     208.72  E(vib)   ...       0.34 
freq.     342.09  E(vib)   ...       0.23 
freq.     412.33  E(vib)   ...       0.19 
freq.     492.02  E(vib)   ...       0.14 
freq.     533.92  E(vib)   ...       0.13 
freq.     628.36  E(vib)   ...       0.09 
freq.     714.55  E(vib)   ...       0.07 
freq.     716.81  E(vib)   ...       0.07 
freq.     743.22  E(vib)   ...       0.06 
freq.     749.76  E(vib)   ...       0.06 
freq.     800.92  E(vib)   ...       0.05 
freq.     856.07  E(vib)   ...       0.04 
freq.     913.56  E(vib)   ...       0.03 
freq.     988.49  E(vib)   ...       0.02 
freq.     993.00  E(vib)   ...       0.02 
freq.    1005.01  E(vib)   ...       0.02 
freq.    1013.78  E(vib)   ...       0.02 
freq.    1025.43  E(vib)   ...       0.02 
freq.    1056.14  E(vib)   ...       0.02 
freq.    1110.31  E(vib)   ...       0.02 
freq.    1158.75  E(vib)   ...       0.01 
freq.    1184.28  E(vib)   ...       0.01 
freq.    1256.77  E(vib)   ...       0.01 
freq.    1308.30  E(vib)   ...       0.01 
freq.    1343.00  E(vib)   ...       0.01 
freq.    1351.79  E(vib)   ...       0.01 
freq.    1405.66  E(vib)   ...       0.00 
freq.    1451.86  E(vib)   ...       0.00 
freq.    1459.97  E(vib)   ...       0.00 
freq.    1501.18  E(vib)   ...       0.00 
freq.    1509.91  E(vib)   ...       0.00 
freq.    1591.02  E(vib)   ...       0.00 
freq.    1674.68  E(vib)   ...       0.00 
freq.    2067.35  E(vib)   ...       0.00 
freq.    3007.34  E(vib)   ...       0.00 
freq.    3061.01  E(vib)   ...       0.00 
freq.    3137.25  E(vib)   ...       0.00 
freq.    3173.35  E(vib)   ...       0.00 
freq.    3178.24  E(vib)   ...       0.00 
freq.    3185.28  E(vib)   ...       0.00 
freq.    3196.44  E(vib)   ...       0.00 
freq.    3203.55  E(vib)   ...       0.00 

------------
INNER ENERGY
------------

The inner energy is: U= E(el) + E(ZPE) + E(vib) + E(rot) + E(trans)
    E(el)   - is the total energy from the electronic structure calculation
              = E(kin-el) + E(nuc-el) + E(el-el) + E(nuc-nuc)
    E(ZPE)  - the the zero temperature vibrational energy from the frequency calculation
    E(vib)  - the the finite temperature correction to E(ZPE) due to population
              of excited vibrational states
    E(rot)  - is the rotational thermal energy
    E(trans)- is the translational thermal energy

Summary of contributions to the inner energy U:
Electronic energy                ...   -475.64128667 Eh
Zero point energy                ...      0.13961756 Eh      87.61 kcal/mol
Thermal vibrational correction   ...      0.00631475 Eh       3.96 kcal/mol
Thermal rotational correction    ...      0.00141627 Eh       0.89 kcal/mol
Thermal translational correction ...      0.00141627 Eh       0.89 kcal/mol
-----------------------------------------------------------------------
Total thermal energy                   -475.49252181 Eh


Summary of corrections to the electronic energy:
(perhaps to be used in another calculation)
Total thermal correction                  0.00914729 Eh       5.74 kcal/mol
Non-thermal (ZPE) correction              0.13961756 Eh      87.61 kcal/mol
-----------------------------------------------------------------------
Total correction                          0.14876486 Eh      93.35 kcal/mol


--------
ENTHALPY
--------

The enthalpy is H = U + kB*T
                kB is Boltzmann's constant
Total free energy                 ...   -475.49252181 Eh 
Thermal Enthalpy correction       ...      0.00094421 Eh       0.59 kcal/mol
-----------------------------------------------------------------------
Total Enthalpy                    ...   -475.49157761 Eh


Note: Only C1 symmetry has been detected, increase convergence thresholds 
      if your molecule has a higher symmetry. Symmetry factor of 1.0 is   
      used for the rotational entropy correction. 
 

Note: Rotational entropy computed according to Herzberg 
Infrared and Raman Spectra, Chapter V,1, Van Nostrand Reinhold, 1945 
Point Group:  C1, Symmetry Number:   1  
Rotational constants in cm-1:     0.119580     0.002448     0.002401 

Vibrational entropy computed according to the QRRHO of S. Grimme
Chem.Eur.J. 2012 18 9955


-------
ENTROPY
-------

The entropy contributions are T*S = T*(S(el)+S(vib)+S(rot)+S(trans))
     S(el)   - electronic entropy
     S(vib)  - vibrational entropy
     S(rot)  - rotational entropy
     S(trans)- translational entropy
The entropies will be listed as mutliplied by the temperature to get
units of energy

Electronic entropy                ...      0.00000000 Eh      0.00 kcal/mol
Vibrational entropy               ...      0.01123274 Eh      7.05 kcal/mol
Rotational entropy                ...      0.01619948 Eh     10.17 kcal/mol
Translational entropy             ...      0.01932890 Eh     12.13 kcal/mol
-----------------------------------------------------------------------
Final entropy term                ...      0.04676112 Eh     29.34 kcal/mol

In case the symmetry of your molecule has not been determined correctly
or in case you have a reason to use a different symmetry number we print 
out the resulting rotational entropy values for sn=1,12 :
 --------------------------------------------------------
|  sn= 1 | S(rot)=       0.01619948 Eh     10.17 kcal/mol|
|  sn= 2 | S(rot)=       0.01554502 Eh      9.75 kcal/mol|
|  sn= 3 | S(rot)=       0.01516219 Eh      9.51 kcal/mol|
|  sn= 4 | S(rot)=       0.01489057 Eh      9.34 kcal/mol|
|  sn= 5 | S(rot)=       0.01467988 Eh      9.21 kcal/mol|
|  sn= 6 | S(rot)=       0.01450773 Eh      9.10 kcal/mol|
|  sn= 7 | S(rot)=       0.01436219 Eh      9.01 kcal/mol|
|  sn= 8 | S(rot)=       0.01423611 Eh      8.93 kcal/mol|
|  sn= 9 | S(rot)=       0.01412490 Eh      8.86 kcal/mol|
|  sn=10 | S(rot)=       0.01402542 Eh      8.80 kcal/mol|
|  sn=11 | S(rot)=       0.01393543 Eh      8.74 kcal/mol|
|  sn=12 | S(rot)=       0.01385328 Eh      8.69 kcal/mol|
 --------------------------------------------------------


-------------------
GIBBS FREE ENERGY
-------------------

The Gibbs free energy is G = H - T*S

Total enthalpy                    ...   -475.49157761 Eh 
Total entropy correction          ...     -0.04676112 Eh    -29.34 kcal/mol
-----------------------------------------------------------------------
Final Gibbs free energy         ...   -475.53833873 Eh

For completeness - the Gibbs free energy minus the electronic energy
G-E(el)                           ...      0.10294795 Eh     64.60 kcal/mol


Timings for individual modules:

Sum of individual times         ...     3526.835 sec (=  58.781 min)
GTO integral calculation        ...        0.755 sec (=   0.013 min)   0.0 %
SCF iterations                  ...      154.765 sec (=   2.579 min)   4.4 %
Analytical frequency calculation...     3371.315 sec (=  56.189 min)  95.6 %
                             ****ORCA TERMINATED NORMALLY****
TOTAL RUN TIME: 0 days 0 hours 58 minutes 48 seconds 630 msec
