
                                 *****************
                                 * O   R   C   A *
                                 *****************

                                            #,                                       
                                            ###                                      
                                            ####                                     
                                            #####                                    
                                            ######                                   
                                           ########,                                 
                                     ,,################,,,,,                         
                               ,,#################################,,                 
                          ,,##########################################,,             
                       ,#########################################, ''#####,          
                    ,#############################################,,   '####,        
                  ,##################################################,,,,####,       
                ,###########''''           ''''###############################       
              ,#####''   ,,,,##########,,,,          '''####'''          '####       
            ,##' ,,,,###########################,,,                        '##       
           ' ,,###''''                  '''############,,,                           
         ,,##''                                '''############,,,,        ,,,,,,###''
      ,#''                                            '''#######################'''  
     '                                                          ''''####''''         
             ,#######,   #######,   ,#######,      ##                                
            ,#'     '#,  ##    ##  ,#'     '#,    #''#        ######   ,####,        
            ##       ##  ##   ,#'  ##            #'  '#       #        #'  '#        
            ##       ##  #######   ##           ,######,      #####,   #    #        
            '#,     ,#'  ##    ##  '#,     ,#' ,#      #,         ##   #,  ,#        
             '#######'   ##     ##  '#######'  #'      '#     #####' # '####'        



                  #######################################################
                  #                        -***-                        #
                  #          Department of theory and spectroscopy      #
                  #    Directorship and core code : Frank Neese         #
                  #        Max Planck Institute fuer Kohlenforschung    #
                  #                Kaiser Wilhelm Platz 1               #
                  #                 D-45470 Muelheim/Ruhr               #
                  #                      Germany                        #
                  #                                                     #
                  #                  All rights reserved                #
                  #                        -***-                        #
                  #######################################################



                         Program Version 5.0.4 -  RELEASE  -

 With contributions from (in alphabetic order):
   Daniel Aravena         : Magnetic Suceptibility
   Michael Atanasov       : Ab Initio Ligand Field Theory (pilot matlab implementation)
   Alexander A. Auer      : GIAO ZORA, VPT2 properties, NMR spectrum
   Ute Becker             : Parallelization
   Giovanni Bistoni       : ED, misc. LED, open-shell LED, HFLD
   Martin Brehm           : Molecular dynamics
   Dmytro Bykov           : SCF Hessian
   Vijay G. Chilkuri      : MRCI spin determinant printing, contributions to CSF-ICE
   Dipayan Datta          : RHF DLPNO-CCSD density
   Achintya Kumar Dutta   : EOM-CC, STEOM-CC
   Dmitry Ganyushin       : Spin-Orbit,Spin-Spin,Magnetic field MRCI
   Miquel Garcia          : C-PCM and meta-GGA Hessian, CC/C-PCM, Gaussian charge scheme
   Yang Guo               : DLPNO-NEVPT2, F12-NEVPT2, CIM, IAO-localization
   Andreas Hansen         : Spin unrestricted coupled pair/coupled cluster methods
   Benjamin Helmich-Paris : MC-RPA, TRAH-SCF, COSX integrals
   Lee Huntington         : MR-EOM, pCC
   Robert Izsak           : Overlap fitted RIJCOSX, COSX-SCS-MP3, EOM
   Marcus Kettner         : VPT2
   Christian Kollmar      : KDIIS, OOCD, Brueckner-CCSD(T), CCSD density, CASPT2, CASPT2-K
   Simone Kossmann        : Meta GGA functionals, TD-DFT gradient, OOMP2, MP2 Hessian
   Martin Krupicka        : Initial AUTO-CI
   Lucas Lang             : DCDCAS
   Marvin Lechner         : AUTO-CI (C++ implementation), FIC-MRCC
   Dagmar Lenk            : GEPOL surface, SMD
   Dimitrios Liakos       : Extrapolation schemes; Compound Job, initial MDCI parallelization
   Dimitrios Manganas     : Further ROCIS development; embedding schemes
   Dimitrios Pantazis     : SARC Basis sets
   Anastasios Papadopoulos: AUTO-CI, single reference methods and gradients
   Taras Petrenko         : DFT Hessian,TD-DFT gradient, ASA, ECA, R-Raman, ABS, FL, XAS/XES, NRVS
   Peter Pinski           : DLPNO-MP2, DLPNO-MP2 Gradient
   Christoph Reimann      : Effective Core Potentials
   Marius Retegan         : Local ZFS, SOC
   Christoph Riplinger    : Optimizer, TS searches, QM/MM, DLPNO-CCSD(T), (RO)-DLPNO pert. Triples
   Tobias Risthaus        : Range-separated hybrids, TD-DFT gradient, RPA, STAB
   Michael Roemelt        : Original ROCIS implementation
   Masaaki Saitow         : Open-shell DLPNO-CCSD energy and density
   Barbara Sandhoefer     : DKH picture change effects
   Avijit Sen             : IP-ROCIS
   Kantharuban Sivalingam : CASSCF convergence, NEVPT2, FIC-MRCI
   Bernardo de Souza      : ESD, SOC TD-DFT
   Georgi Stoychev        : AutoAux, RI-MP2 NMR, DLPNO-MP2 response
   Willem Van den Heuvel  : Paramagnetic NMR
   Boris Wezisla          : Elementary symmetry handling
   Frank Wennmohs         : Technical directorship


 We gratefully acknowledge several colleagues who have allowed us to
 interface, adapt or use parts of their codes:
   Stefan Grimme, W. Hujo, H. Kruse, P. Pracht,  : VdW corrections, initial TS optimization,
                  C. Bannwarth, S. Ehlert          DFT functionals, gCP, sTDA/sTD-DF
   Ed Valeev, F. Pavosevic, A. Kumar             : LibInt (2-el integral package), F12 methods
   Garnet Chan, S. Sharma, J. Yang, R. Olivares  : DMRG
   Ulf Ekstrom                                   : XCFun DFT Library
   Mihaly Kallay                                 : mrcc  (arbitrary order and MRCC methods)
   Jiri Pittner, Ondrej Demel                    : Mk-CCSD
   Frank Weinhold                                : gennbo (NPA and NBO analysis)
   Christopher J. Cramer and Donald G. Truhlar   : smd solvation model
   Lars Goerigk                                  : TD-DFT with DH, B97 family of functionals
   V. Asgeirsson, H. Jonsson                     : NEB implementation
   FAccTs GmbH                                   : IRC, NEB, NEB-TS, DLPNO-Multilevel, CI-OPT
                                                   MM, QMMM, 2- and 3-layer-ONIOM, Crystal-QMMM,
                                                   LR-CPCM, SF, NACMEs, symmetry and pop. for TD-DFT,
                                                   nearIR, NL-DFT gradient (VV10), updates on ESD,
                                                   ML-optimized integration grids
   S Lehtola, MJT Oliveira, MAL Marques          : LibXC Library
   Liviu Ungur et al                             : ANISO software


 Your calculation uses the libint2 library for the computation of 2-el integrals
 For citations please refer to: http://libint.valeyev.net

 Your ORCA version has been built with support for libXC version: 5.1.0
 For citations please refer to: https://tddft.org/programs/libxc/

 This ORCA versions uses:
   CBLAS   interface :  Fast vector & matrix operations
   LAPACKE interface :  Fast linear algebra routines
   Shared memory     :  Shared parallel matrices


Your calculation utilizes the atom-pairwise dispersion correction
based on tight binding partial charges (D4)
Cite in your paper:
E.Caldeweyher, C.Bannwarth, S.Grimme, J.Chem.Phys., (2017), 147, 034112.
E.Caldeweyher, S.Ehlert, A.Hansen, H.Neugebauer, S.Grimme, J.Chem.Phys., (2018), in progress.
   

================================================================================

----- Orbital basis set information -----
Your calculation utilizes the basis: def2-SVP
   F. Weigend and R. Ahlrichs, Phys. Chem. Chem. Phys. 7, 3297 (2005).

----- AuxJ basis set information -----
Your calculation utilizes the auxiliary basis: def2/J
   F. Weigend, Phys. Chem. Chem. Phys. 8, 1057 (2006).

================================================================================
                                        WARNINGS
                       Please study these warnings very carefully!
================================================================================


WARNING: Geometry Optimization
  ===> : Switching off AutoStart
         For restart on a previous wavefunction, please use MOREAD

INFO   : the flag for use of the SHARK integral package has been found!

================================================================================
                                       INPUT FILE
================================================================================
NAME = opt.inp
|  1> !B3LYP DEF2-SVP OPT FREQ D4 SOSCF
|  2> 
|  3> * xyz 1 1
|  4>   C   -2.85963185966414      1.48194187475522     -0.41800734319042
|  5>   C   -3.53875803367669      0.24008939452015     -0.64421100388658
|  6>   C   -2.83212593187056     -0.94670455669457     -0.64205301202744
|  7>   C   -1.44130293493790     -0.95445470616814     -0.41144402060125
|  8>   C   -0.79063063885859      0.26846346761694     -0.18170221109393
|  9>   C   -1.44910273420892      1.47681548576834     -0.17957798086733
| 10>   H   -4.61693418318061      0.24626397546151     -0.81935262539189
| 11>   H   -3.35368390818515     -1.88977069965916     -0.81726418944127
| 12>   H   -0.86029418297637     -1.87726639834692     -0.40231179303658
| 13>   H   2.56511078467233     -0.15840955253313      9.92066508293247
| 14>   H   -0.88895010641618      2.39614236475087     -0.00094426293350
| 15>   N   -3.53444363326045      2.64040830624597     -0.42699853379827
| 16>   H   -4.53635105902554      2.66911032108468     -0.59272936449556
| 17>   H   -3.06308254955847      3.52794824895252     -0.27459827868990
| 18>   N   0.67694455908735      0.26224047284550      0.07384226804214
| 19>   O   1.20159491624443      1.33955238700089      0.27577624918930
| 20>   O   1.22513149581553     -0.82203038560069      0.06212101928999
| 21> **                         ****END OF INPUT****
================================================================================

                       *****************************
                       * Geometry Optimization Run *
                       *****************************

Geometry optimization settings:
Update method            Update   .... BFGS
Choice of coordinates    CoordSys .... Z-matrix Internals
Initial Hessian          InHess   .... Almoef's Model

Convergence Tolerances:
Energy Change            TolE     ....  5.0000e-06 Eh
Max. Gradient            TolMAXG  ....  3.0000e-04 Eh/bohr
RMS Gradient             TolRMSG  ....  1.0000e-04 Eh/bohr
Max. Displacement        TolMAXD  ....  4.0000e-03 bohr
RMS Displacement         TolRMSD  ....  2.0000e-03 bohr
Strict Convergence                ....  False
------------------------------------------------------------------------------
                        ORCA OPTIMIZATION COORDINATE SETUP
------------------------------------------------------------------------------

The optimization will be done in new redundant internal coordinates
Making redundant internal coordinates   ...  (new redundants) done
Evaluating the initial hessian          ...  (Almloef) done
Evaluating the coordinates              ...  done
Calculating the B-matrix                .... done
Calculating the G-matrix                .... done
Diagonalizing the G-matrix              .... done
The first mode is                       ....   95
The number of degrees of freedom        ....   45

    -----------------------------------------------------------------
                    Redundant Internal Coordinates


    -----------------------------------------------------------------
         Definition                    Initial Value    Approx d2E/dq
    -----------------------------------------------------------------
      1. B(C   1,C   0)                  1.4334         0.532756   
      2. B(C   2,C   1)                  1.3812         0.645239   
      3. B(C   3,C   2)                  1.4098         0.580893   
      4. B(C   4,C   3)                  1.4042         0.593111   
      5. B(C   5,C   0)                  1.4305         0.538328   
      6. B(C   5,C   4)                  1.3761         0.657482   
      7. B(H   6,C   1)                  1.0923         0.357036   
      8. B(H   7,C   2)                  1.0918         0.357686   
      9. B(H   8,C   3)                  1.0905         0.359411   
     10. B(H   9,C   4)                 10.6537         0.000000   
     11. B(H  10,C   5)                  1.0913         0.358440   
     12. B(H  10,H   9)                 10.8118         0.000000   
     13. B(N  11,C   0)                  1.3407         0.670685   
     14. B(H  12,N  11)                  1.0159         0.423387   
     15. B(H  13,N  11)                  1.0164         0.422603   
     16. B(N  14,C   4)                  1.4897         0.388023   
     17. B(N  14,H   9)                 10.0350         0.000000   
     18. B(O  15,N  14)                  1.2152         0.952673   
     19. B(O  15,H   9)                  9.8553         0.000000   
     20. B(O  16,H   9)                  9.9713         0.000000   
     21. B(O  16,N  14)                  1.2150         0.953172   
     22. A(C   1,C   0,C   5)          119.3643         0.411931   
     23. A(C   5,C   0,N  11)          120.0328         0.426406   
     24. A(C   1,C   0,N  11)          120.6028         0.425613   
     25. A(C   2,C   1,H   6)          120.6688         0.354789   
     26. A(C   0,C   1,C   2)          120.1178         0.425447   
     27. A(C   0,C   1,H   6)          119.2133         0.343511   
     28. A(C   1,C   2,H   7)          119.8360         0.354898   
     29. A(C   1,C   2,C   3)          120.6422         0.432099   
     30. A(C   3,C   2,H   7)          119.5215         0.348650   
     31. A(C   4,C   3,H   8)          119.2571         0.350161   
     32. A(C   2,C   3,C   4)          118.6275         0.425620   
     33. A(C   2,C   3,H   8)          122.1149         0.348933   
     34. A(C   3,C   4,C   5)          122.9063         0.435189   
     35. A(C   3,C   4,H   9)          105.4389         0.089092   
     36. A(C   5,C   4,N  14)          118.3467         0.400901   
     37. A(C   3,C   4,N  14)          118.7470         0.393711   
     38. A(H   9,C   4,N  14)           61.7613         0.089083   
     39. A(C   5,C   4,H   9)          100.6284         0.089094   
     40. A(C   4,C   5,H  10)          119.6286         0.356159   
     41. A(C   0,C   5,H  10)          122.0318         0.344338   
     42. A(C   0,C   5,C   4)          118.3393         0.427678   
     43. A(C   4,H   9,H  10)           11.3993         0.089000   
     44. A(H  10,H   9,O  15)           11.9891         0.089000   
     45. A(N  14,H   9,O  16)            6.9541         0.089000   
     46. A(H  10,H   9,O  16)           20.8531         0.089000   
     47. A(C   4,H   9,O  16)           12.2611         0.089000   
     48. A(N  14,H   9,O  15)            6.9283         0.089000   
     49. A(C   4,H   9,O  15)           12.1296         0.089000   
     50. A(H  10,H   9,N  14)           13.9587         0.089000   
     51. A(C   4,H   9,N  14)            7.5146         0.089000   
     52. A(O  15,H   9,O  16)           12.5623         0.089000   
     53. A(C   5,H  10,H   9)           96.6127         0.089034   
     54. A(H  12,N  11,H  13)          117.2021         0.301067   
     55. A(C   0,N  11,H  13)          121.3377         0.362044   
     56. A(C   0,N  11,H  12)          121.4588         0.362158   
     57. A(H   9,N  14,O  15)           78.0455         0.089162   
     58. A(C   4,N  14,H   9)          110.7241         0.089134   
     59. A(O  15,N  14,O  16)          126.7236         0.494418   
     60. A(C   4,N  14,O  16)          116.5228         0.422636   
     61. A(C   4,N  14,O  15)          116.7533         0.422596   
     62. A(H   9,N  14,O  16)           83.5214         0.089162   
     63. A(H   9,O  15,N  14)           95.0262         0.089188   
     64. A(H   9,O  16,N  14)           89.5245         0.089171   
     65. D(C   2,C   1,C   0,C   5)     -0.5304         0.019379   
     66. D(H   6,C   1,C   0,C   5)    179.5924         0.019379   
     67. D(C   2,C   1,C   0,N  11)    179.5464         0.019379   
     68. D(H   6,C   1,C   0,N  11)     -0.3308         0.019379   
     69. D(H   7,C   2,C   1,C   0)   -179.8517         0.028958   
     70. D(C   3,C   2,C   1,C   0)      0.3409         0.028958   
     71. D(C   3,C   2,C   1,H   6)   -179.7837         0.028958   
     72. D(H   7,C   2,C   1,H   6)      0.0237         0.028958   
     73. D(H   8,C   3,C   2,H   7)      0.0577         0.023186   
     74. D(H   8,C   3,C   2,C   1)    179.8657         0.023186   
     75. D(C   4,C   3,C   2,H   7)   -179.6893         0.023186   
     76. D(C   4,C   3,C   2,C   1)      0.1187         0.023186   
     77. D(C   5,C   4,C   3,H   8)    179.8377         0.026308   
     78. D(N  14,C   4,C   3,C   2)    179.4825         0.026308   
     79. D(H   9,C   4,C   3,H   8)    -66.1697         0.026308   
     80. D(H   9,C   4,C   3,C   2)    113.5846         0.026308   
     81. D(N  14,C   4,C   3,H   8)     -0.2718         0.026308   
     82. D(C   5,C   4,C   3,C   2)     -0.4080         0.026308   
     83. D(H  10,C   5,C   4,N  14)      0.4851         0.032779   
     84. D(H  10,C   5,C   4,H   9)     64.0135         0.032779   
     85. D(H  10,C   5,C   4,C   3)   -179.6240         0.032779   
     86. D(C   0,C   5,C   4,H   9)   -116.1474         0.032779   
     87. D(C   0,C   5,C   4,N  14)   -179.6758         0.032779   
     88. D(C   0,C   5,C   4,C   3)      0.2151         0.032779   
     89. D(H  10,C   5,C   0,N  11)      0.0122         0.019798   
     90. D(H  10,C   5,C   0,C   1)   -179.9114         0.019798   
     91. D(C   4,C   5,C   0,N  11)   -179.8228         0.019798   
     92. D(C   4,C   5,C   0,C   1)      0.2535         0.019798   
     93. D(H  10,H   9,C   4,N  14)     93.0709         0.001500   
     94. D(H  10,H   9,C   4,C   5)    -23.5171         0.001500   
     95. D(H  10,H   9,C   4,C   3)   -152.2191         0.001500   
     96. D(O  16,H   9,C   4,C   5)   -147.4282         0.001500   
     97. D(O  16,H   9,C   4,C   3)     83.8698         0.001500   
     98. D(O  15,H   9,C   4,N  14)     31.5423         0.001500   
     99. D(O  15,H   9,C   4,C   5)    -85.0457         0.001500   
    100. D(O  15,H   9,C   4,C   3)    146.2524         0.001500   
    101. D(N  14,H   9,C   4,C   5)   -116.5880         0.001500   
    102. D(O  16,H   9,C   4,N  14)    -30.8402         0.001500   
    103. D(N  14,H   9,C   4,C   3)    114.7101         0.001500   
    104. D(C   5,H  10,H   9,O  16)     59.5355         0.001500   
    105. D(C   5,H  10,H   9,O  15)     92.6317         0.001500   
    106. D(C   5,H  10,H   9,N  14)     62.6360         0.001500   
    107. D(C   5,H  10,H   9,C   4)     29.8588         0.001500   
    108. D(H   9,H  10,C   5,C   4)    -61.2096         0.108404   
    109. D(H   9,H  10,C   5,C   0)    118.9574         0.108404   
    110. D(H  13,N  11,C   0,C   5)      0.5253         0.036917   
    111. D(H  13,N  11,C   0,C   1)   -179.5520         0.036917   
    112. D(H  12,N  11,C   0,C   5)   -179.9124         0.036917   
    113. D(H  12,N  11,C   0,C   1)      0.0103         0.036917   
    114. D(O  15,N  14,H   9,H  10)     59.4193         0.001500   
    115. D(O  15,N  14,H   9,C   4)    114.3214         0.001500   
    116. D(C   4,N  14,H   9,O  16)    115.9477         0.001500   
    117. D(C   4,N  14,H   9,H  10)    -54.9022         0.001500   
    118. D(H   9,N  14,C   4,C   5)     87.0270         0.013774   
    119. D(H   9,N  14,C   4,C   3)    -92.8685         0.013774   
    120. D(O  16,N  14,C   4,H   9)     93.0954         0.013774   
    121. D(O  16,N  14,C   4,C   5)   -179.8776         0.013774   
    122. D(C   4,N  14,H   9,O  15)   -114.3214         0.001500   
    123. D(O  16,N  14,C   4,C   3)      0.2268         0.013774   
    124. D(O  15,N  14,C   4,H   9)    -86.7161         0.013774   
    125. D(O  15,N  14,C   4,C   5)      0.3109         0.013774   
    126. D(O  15,N  14,H   9,O  16)   -129.7309         0.001500   
    127. D(O  15,N  14,C   4,C   3)   -179.5847         0.013774   
    128. D(O  16,N  14,H   9,O  15)    129.7309         0.001500   
    129. D(O  16,N  14,H   9,H  10)   -170.8499         0.001500   
    130. D(O  16,N  14,H   9,C   4)   -115.9477         0.001500   
    131. D(H   9,O  15,N  14,O  16)    -72.4316         0.096632   
    132. D(H   9,O  15,N  14,C   4)    107.3580         0.096632   
    133. D(N  14,O  15,H   9,O  16)     25.3471         0.001500   
    134. D(N  14,O  15,H   9,H  10)    -91.3134         0.001500   
    135. D(N  14,O  15,H   9,C   4)    -34.5521         0.001500   
    136. D(H   9,O  16,N  14,O  15)     69.8303         0.096750   
    137. D(H   9,O  16,N  14,C   4)   -109.9597         0.096750   
    138. D(N  14,O  16,H   9,O  15)    -25.2469         0.001500   
    139. D(N  14,O  16,H   9,H  10)      6.1862         0.001500   
    140. D(N  14,O  16,H   9,C   4)     33.6239         0.001500   
    -----------------------------------------------------------------

Number of atoms                         .... 17
Number of degrees of freedom            .... 140

         *************************************************************
         *                GEOMETRY OPTIMIZATION CYCLE   1            *
         *************************************************************
---------------------------------
CARTESIAN COORDINATES (ANGSTROEM)
---------------------------------
  C     -2.859632    1.481942   -0.418007
  C     -3.538758    0.240089   -0.644211
  C     -2.832126   -0.946705   -0.642053
  C     -1.441303   -0.954455   -0.411444
  C     -0.790631    0.268463   -0.181702
  C     -1.449103    1.476815   -0.179578
  H     -4.616934    0.246264   -0.819353
  H     -3.353684   -1.889771   -0.817264
  H     -0.860294   -1.877266   -0.402312
  H      2.565111   -0.158410    9.920665
  H     -0.888950    2.396142   -0.000944
  N     -3.534444    2.640408   -0.426999
  H     -4.536351    2.669110   -0.592729
  H     -3.063083    3.527948   -0.274598
  N      0.676945    0.262240    0.073842
  O      1.201595    1.339552    0.275776
  O      1.225131   -0.822030    0.062121

----------------------------
CARTESIAN COORDINATES (A.U.)
----------------------------
  NO LB      ZA    FRAG     MASS         X           Y           Z
   0 C     6.0000    0    12.011   -5.403921    2.800464   -0.789919
   1 C     6.0000    0    12.011   -6.687284    0.453703   -1.217382
   2 C     6.0000    0    12.011   -5.351942   -1.789012   -1.213304
   3 C     6.0000    0    12.011   -2.723668   -1.803658   -0.777517
   4 C     6.0000    0    12.011   -1.494075    0.507322   -0.343367
   5 C     6.0000    0    12.011   -2.738407    2.790777   -0.339353
   6 H     1.0000    0     1.008   -8.724741    0.465371   -1.548352
   7 H     1.0000    0     1.008   -6.337544   -3.571149   -1.544405
   8 H     1.0000    0     1.008   -1.625720   -3.547519   -0.760259
   9 H     1.0000    0     1.008    4.847357   -0.299351   18.747340
  10 H     1.0000    0     1.008   -1.679872    4.528053   -0.001784
  11 N     7.0000    0    14.007   -6.679131    4.989649   -0.806910
  12 H     1.0000    0     1.008   -8.572461    5.043888   -1.120096
  13 H     1.0000    0     1.008   -5.788387    6.666856   -0.518916
  14 N     7.0000    0    14.007    1.279240    0.495563    0.139542
  15 O     8.0000    0    15.999    2.270685    2.531387    0.521142
  16 O     8.0000    0    15.999    2.315163   -1.553412    0.117392

--------------------------------
INTERNAL COORDINATES (ANGSTROEM)
--------------------------------
 C      0   0   0     0.000000000000     0.00000000     0.00000000
 C      1   0   0     1.433379935330     0.00000000     0.00000000
 C      2   1   0     1.381236209658   120.11784284     0.00000000
 C      3   2   1     1.409833032859   120.64215656     0.34085285
 C      4   3   2     1.404166868892   118.62752167     0.11871903
 C      5   4   3     1.376119403424   122.90626646   359.59201890
 H      2   1   3     1.092326197796   119.21327013   180.12275478
 H      3   2   1     1.091831227505   119.83602021   180.14825363
 H      4   3   2     1.090520970297   122.11487796   179.86568518
 H      5   4   3    10.653686968386   105.43890493   113.58463966
 H      6   5   4     1.091257477420   119.62862658   180.37598108
 N      1   2   3     1.340707367095   120.60282082   179.54640702
 H     12   1   2     1.015927656727   121.45876876     0.00000000
 H     12   1   2     1.016432122124   121.33772445   180.44799493
 N      5   4   3     1.489670657597   118.74697387   179.48252664
 O     15   5   4     1.215169243516   116.75332395   180.41534564
 O     15   5   4     1.215026583967   116.52279325     0.22682352

---------------------------
INTERNAL COORDINATES (A.U.)
---------------------------
 C      0   0   0     0.000000000000     0.00000000     0.00000000
 C      1   0   0     2.708695523632     0.00000000     0.00000000
 C      2   1   0     2.610158162510   120.11784284     0.00000000
 C      3   2   1     2.664198326659   120.64215656     0.34085285
 C      4   3   2     2.653490828532   118.62752167     0.11871903
 C      5   4   3     2.600488800046   122.90626646   359.59201890
 H      2   1   3     2.064197362743   119.21327013   180.12275478
 H      3   2   1     2.063262004447   119.83602021   180.14825363
 H      4   3   2     2.060785977160   122.11487796   179.86568518
 H      5   4   3    20.132550686774   105.43890493   113.58463966
 H      6   5   4     2.062177773918   119.62862658   180.37598108
 N      1   2   3     2.533569749541   120.60282082   179.54640702
 H     12   1   2     1.919825043090   121.45876876     0.00000000
 H     12   1   2     1.920778344535   121.33772445   180.44799493
 N      5   4   3     2.815069572598   118.74697387   179.48252664
 O     15   5   4     2.296337076610   116.75332395   180.41534564
 O     15   5   4     2.296067489132   116.52279325     0.22682352

---------------------
BASIS SET INFORMATION
---------------------
There are 4 groups of distinct atoms

 Group   1 Type C   : 7s4p1d contracted to 3s2p1d pattern {511/31/1}
 Group   2 Type H   : 4s1p contracted to 2s1p pattern {31/1}
 Group   3 Type N   : 7s4p1d contracted to 3s2p1d pattern {511/31/1}
 Group   4 Type O   : 7s4p1d contracted to 3s2p1d pattern {511/31/1}

Atom   0C    basis set group =>   1
Atom   1C    basis set group =>   1
Atom   2C    basis set group =>   1
Atom   3C    basis set group =>   1
Atom   4C    basis set group =>   1
Atom   5C    basis set group =>   1
Atom   6H    basis set group =>   2
Atom   7H    basis set group =>   2
Atom   8H    basis set group =>   2
Atom   9H    basis set group =>   2
Atom  10H    basis set group =>   2
Atom  11N    basis set group =>   3
Atom  12H    basis set group =>   2
Atom  13H    basis set group =>   2
Atom  14N    basis set group =>   3
Atom  15O    basis set group =>   4
Atom  16O    basis set group =>   4
---------------------------------
AUXILIARY/J BASIS SET INFORMATION
---------------------------------
There are 4 groups of distinct atoms

 Group   1 Type C   : 12s5p4d2f1g contracted to 6s4p3d1f1g pattern {711111/2111/211/2/1}
 Group   2 Type H   : 5s2p1d contracted to 3s1p1d pattern {311/2/1}
 Group   3 Type N   : 12s5p4d2f1g contracted to 6s4p3d1f1g pattern {711111/2111/211/2/1}
 Group   4 Type O   : 12s5p4d2f1g contracted to 6s4p3d1f1g pattern {711111/2111/211/2/1}

Atom   0C    basis set group =>   1
Atom   1C    basis set group =>   1
Atom   2C    basis set group =>   1
Atom   3C    basis set group =>   1
Atom   4C    basis set group =>   1
Atom   5C    basis set group =>   1
Atom   6H    basis set group =>   2
Atom   7H    basis set group =>   2
Atom   8H    basis set group =>   2
Atom   9H    basis set group =>   2
Atom  10H    basis set group =>   2
Atom  11N    basis set group =>   3
Atom  12H    basis set group =>   2
Atom  13H    basis set group =>   2
Atom  14N    basis set group =>   3
Atom  15O    basis set group =>   4
Atom  16O    basis set group =>   4
------------------------------------------------------------------------------
                           ORCA GTO INTEGRAL CALCULATION
                           -- RI-GTO INTEGRALS CHOSEN --
------------------------------------------------------------------------------
------------------------------------------------------------------------------
                   ___                                                        
                  /   \      - P O W E R E D   B Y -                         
                 /     \                                                     
                 |  |  |   _    _      __       _____    __    __             
                 |  |  |  | |  | |    /  \     |  _  \  |  |  /  |          
                  \  \/   | |  | |   /    \    | | | |  |  | /  /          
                 / \  \   | |__| |  /  /\  \   | |_| |  |  |/  /          
                |  |  |   |  __  | /  /__\  \  |    /   |      \           
                |  |  |   | |  | | |   __   |  |    \   |  |\   \          
                \     /   | |  | | |  |  |  |  | |\  \  |  | \   \       
                 \___/    |_|  |_| |__|  |__|  |_| \__\ |__|  \__/        
                                                                              
                      - O R C A' S   B I G   F R I E N D -                    
                                      &                                       
                       - I N T E G R A L  F E E D E R -                       
                                                                              
 v1 FN, 2020, v2 2021                                                         
------------------------------------------------------------------------------


Reading SHARK input file opt.SHARKINP.tmp ... ok
----------------------
SHARK INTEGRAL PACKAGE
----------------------

Number of atoms                             ...     17
Number of basis functions                   ...    175
Number of shells                            ...     81
Maximum angular momentum                    ...      2
Integral batch strategy                     ... SHARK/LIBINT Hybrid
RI-J (if used) integral strategy            ... SPLIT-RIJ (Revised 2003 algorithm where possible)
Printlevel                                  ...      1
Contraction scheme used                     ... SEGMENTED contraction
Coulomb Range Separation                    ... NOT USED
Exchange Range Separation                   ... NOT USED
Finite Nucleus Model                        ... NOT USED
Auxiliary Coulomb fitting basis             ... AVAILABLE
   # of basis functions in Aux-J            ...    567
   # of shells in Aux-J                     ...    185
   Maximum angular momentum in Aux-J        ...      4
Auxiliary J/K fitting basis                 ... NOT available
Auxiliary Correlation fitting basis         ... NOT available
Auxiliary 'external' fitting basis          ... NOT available
Integral threshold                          ...     2.500000e-11
Primitive cut-off                           ...     2.500000e-12
Primitive pair pre-selection threshold      ...     2.500000e-12

Calculating pre-screening integrals         ... done (  0.0 sec) Dimension = 81
Organizing shell pair data                  ... done (  0.0 sec)
Shell pair information
Total number of shell pairs                 ...      3321
Shell pairs after pre-screening             ...      2799
Total number of primitive shell pairs       ...     12241
Primitive shell pairs kept                  ...      7461
          la=0 lb=0:    820 shell pairs
          la=1 lb=0:   1004 shell pairs
          la=1 lb=1:    328 shell pairs
          la=2 lb=0:    367 shell pairs
          la=2 lb=1:    232 shell pairs
          la=2 lb=2:     48 shell pairs

Calculating one electron integrals          ... done (  0.0 sec)
Calculating RI/J V-Matrix + Cholesky decomp.... done (  0.0 sec)
Calculating Nuclear repulsion               ... done (  0.0 sec) ENN=    500.671351769029 Eh

SHARK setup successfully completed in   0.3 seconds

Maximum memory used throughout the entire GTOINT-calculation: 23.9 MB
-------------------------------------------------------------------------------
                                 ORCA SCF
-------------------------------------------------------------------------------

------------
SCF SETTINGS
------------
Hamiltonian:
 Density Functional     Method          .... DFT(GTOs)
 Exchange Functional    Exchange        .... B88
   X-Alpha parameter    XAlpha          ....  0.666667
   Becke's b parameter  XBeta           ....  0.004200
 Correlation Functional Correlation     .... LYP
 LDA part of GGA corr.  LDAOpt          .... VWN-5
 Gradients option       PostSCFGGA      .... off
 Hybrid DFT is turned on
   Fraction HF Exchange ScalHFX         ....  0.200000
   Scaling of DF-GGA-X  ScalDFX         ....  0.720000
   Scaling of DF-GGA-C  ScalDFC         ....  0.810000
   Scaling of DF-LDA-C  ScalLDAC        ....  1.000000
   Perturbative correction              ....  0.000000
   Density functional embedding theory  .... OFF
   NL short-range parameter             ....  4.800000
 RI-approximation to the Coulomb term is turned on
   Number of AuxJ basis functions       .... 567
   RIJ-COSX (HFX calculated with COS-X)).... on


General Settings:
 Integral files         IntName         .... opt
 Hartree-Fock type      HFTyp           .... RHF
 Total Charge           Charge          ....    1
 Multiplicity           Mult            ....    1
 Number of Electrons    NEL             ....   72
 Basis Dimension        Dim             ....  175
 Nuclear Repulsion      ENuc            ....    500.6713517690 Eh

Convergence Acceleration:
 DIIS                   CNVDIIS         .... on
   Start iteration      DIISMaxIt       ....    12
   Startup error        DIISStart       ....  0.200000
   # of expansion vecs  DIISMaxEq       ....     5
   Bias factor          DIISBfac        ....   1.050
   Max. coefficient     DIISMaxC        ....  10.000
 Trust-Rad. Augm. Hess. CNVTRAH         .... auto
   Auto Start mean grad. ratio tolernc. ....  1.125000
   Auto Start start iteration           ....    20
   Auto Start num. interpolation iter.  ....    10
   Max. Number of Micro iterations      ....    16
   Max. Number of Macro iterations      .... Maxiter - #DIIS iter
   Number of Davidson start vectors     ....     2
   Converg. threshold I  (grad. norm)   ....   1.000e-05
   Converg. threshold II (energy diff.) ....   1.000e-08
   Grad. Scal. Fac. for Micro threshold ....   0.100
   Minimum threshold for Micro iter.    ....   0.010
   NR start threshold (gradient norm)   ....   0.001
   Initial trust radius                 ....   0.400
   Minimum AH scaling param. (alpha)    ....   1.000
   Maximum AH scaling param. (alpha)    .... 1000.000
   Orbital update algorithm             .... Taylor
   White noise on init. David. guess    .... on
   Maximum white noise                  ....   0.010
   Quad. conv. algorithm                .... NR
 SOSCF                  CNVSOSCF        .... on
   Start iteration      SOSCFMaxIt      ....   150
   Startup grad/error   SOSCFStart      ....  0.003300
 Level Shifting         CNVShift        .... on
   Level shift para.    LevelShift      ....    0.2500
   Turn off err/grad.   ShiftErr        ....    0.0010
 Zerner damping         CNVZerner       .... off
 Static damping         CNVDamp         .... on
   Fraction old density DampFac         ....    0.7000
   Max. Damping (<1)    DampMax         ....    0.9800
   Min. Damping (>=0)   DampMin         ....    0.0000
   Turn off err/grad.   DampErr         ....    0.1000
 Fernandez-Rico         CNVRico         .... off

SCF Procedure:
 Maximum # iterations   MaxIter         ....   125
 SCF integral mode      SCFMode         .... Direct
   Integral package                     .... SHARK and LIBINT hybrid scheme
 Reset frequency        DirectResetFreq ....    20
 Integral Threshold     Thresh          ....  2.500e-11 Eh
 Primitive CutOff       TCut            ....  2.500e-12 Eh

Convergence Tolerance:
 Convergence Check Mode ConvCheckMode   .... Total+1el-Energy
 Convergence forced     ConvForced      .... 0
 Energy Change          TolE            ....  1.000e-08 Eh
 1-El. energy change                    ....  1.000e-05 Eh
 Orbital Gradient       TolG            ....  1.000e-05
 Orbital Rotation angle TolX            ....  1.000e-05
 DIIS Error             TolErr          ....  5.000e-07


Diagonalization of the overlap matrix:
Smallest eigenvalue                        ... 2.909e-04
Time for diagonalization                   ...    0.008 sec
Threshold for overlap eigenvalues          ... 1.000e-08
Number of eigenvalues below threshold      ... 0
Time for construction of square roots      ...    0.004 sec
Total time needed                          ...    0.013 sec

Time for model grid setup =    0.306 sec

------------------------------
INITIAL GUESS: MODEL POTENTIAL
------------------------------
Loading Hartree-Fock densities                     ... done
Calculating cut-offs                               ... done
Initializing the effective Hamiltonian             ... done
Setting up the integral package (SHARK)            ... done
Starting the Coulomb interaction                   ... done (   0.3 sec)
Reading the grid                                   ... done
Mapping shells                                     ... done
Starting the XC term evaluation                    ... done (   0.7 sec)
  promolecular density results
     # of electrons  =     72.998258172
     EX              =    -62.437352727
     EC              =     -2.505297010
     EX+EC           =    -64.942649738
Transforming the Hamiltonian                       ... done (   0.0 sec)
Diagonalizing the Hamiltonian                      ... done (   0.0 sec)
Back transforming the eigenvectors                 ... done (   0.0 sec)
Now organizing SCF variables                       ... done
                      ------------------
                      INITIAL GUESS DONE (   1.4 sec)
                      ------------------
-------------------
DFT GRID GENERATION
-------------------

General Integration Accuracy     IntAcc      ... 4.388
Radial Grid Type                 RadialGrid  ... OptM3 with GC (2021)
Angular Grid (max. ang.)         AngularGrid ... 4 (Lebedev-302)
Angular grid pruning method      GridPruning ... 4 (adaptive)
Weight generation scheme         WeightScheme... Becke
Basis function cutoff            BFCut       ... 1.0000e-11
Integration weight cutoff        WCut        ... 1.0000e-14
Angular grids for H and He will be reduced by one unit
Partially contracted basis set               ... off
Rotationally invariant grid construction     ... off

Total number of grid points                  ...    82961
Total number of batches                      ...     1307
Average number of points per batch           ...       63
Average number of grid points per atom       ...     4880
Time for grid setup =    1.467 sec

--------------------
COSX GRID GENERATION
--------------------

GRIDX 1
-------
General Integration Accuracy     IntAcc      ... 3.816
Radial Grid Type                 RadialGrid  ... OptM3 with GC (2021)
Angular Grid (max. ang.)         AngularGrid ... 1 (Lebedev-50)
Angular grid pruning method      GridPruning ... 4 (adaptive)
Weight generation scheme         WeightScheme... Becke
Basis function cutoff            BFCut       ... 1.0000e-11
Integration weight cutoff        WCut        ... 1.0000e-14
Angular grids for H and He will be reduced by one unit
Partially contracted basis set               ... on
Rotationally invariant grid construction     ... off

Total number of grid points                  ...    10606
Total number of batches                      ...      173
Average number of points per batch           ...       61
Average number of grid points per atom       ...      624
UseSFitting                                  ... on

GRIDX 2
-------
General Integration Accuracy     IntAcc      ... 4.020
Radial Grid Type                 RadialGrid  ... OptM3 with GC (2021)
Angular Grid (max. ang.)         AngularGrid ... 2 (Lebedev-110)
Angular grid pruning method      GridPruning ... 4 (adaptive)
Weight generation scheme         WeightScheme... Becke
Basis function cutoff            BFCut       ... 1.0000e-11
Integration weight cutoff        WCut        ... 1.0000e-14
Angular grids for H and He will be reduced by one unit
Partially contracted basis set               ... on
Rotationally invariant grid construction     ... off

Total number of grid points                  ...    23466
Total number of batches                      ...      376
Average number of points per batch           ...       62
Average number of grid points per atom       ...     1380
UseSFitting                                  ... on

GRIDX 3
-------
General Integration Accuracy     IntAcc      ... 4.338
Radial Grid Type                 RadialGrid  ... OptM3 with GC (2021)
Angular Grid (max. ang.)         AngularGrid ... 3 (Lebedev-194)
Angular grid pruning method      GridPruning ... 4 (adaptive)
Weight generation scheme         WeightScheme... Becke
Basis function cutoff            BFCut       ... 1.0000e-11
Integration weight cutoff        WCut        ... 1.0000e-14
Angular grids for H and He will be reduced by one unit
Partially contracted basis set               ... on
Rotationally invariant grid construction     ... off

Total number of grid points                  ...    51676
Total number of batches                      ...      816
Average number of points per batch           ...       63
Average number of grid points per atom       ...     3040
UseSFitting                                  ... on

Time for X-Grid setup             =    2.629 sec

--------------
SCF ITERATIONS
--------------
ITER       Energy         Delta-E        Max-DP      RMS-DP      [F,P]     Damp
               ***  Starting incremental Fock matrix formation  ***
  0   -491.1892363987   0.000000000000 0.20729117  0.00383849  0.2279520 0.7000
  1   -491.4865548560  -0.297318457373 0.15173948  0.00245501  0.0854076 0.7000
                               ***Turning on DIIS***
  2   -491.5035833796  -0.017028523586 0.37480694  0.00529130  0.0350058 0.0000
  3   -491.1492453989   0.354337980720 0.02436354  0.00035836  0.2008520 0.7000
  4   -491.1609658526  -0.011720453735 0.19486724  0.00251641  0.1895016 0.7000
  5   -491.5001848919  -0.339219039274 0.45469024  0.00586342  0.0515998 0.0000
  6   -491.4353782873   0.064806604569 0.01519780  0.00053909  0.0945545 0.0000
  7   -491.4501465994  -0.014768312035 0.02615989  0.00080486  0.0761354 0.0000
  8   -491.4577602040  -0.007613604667 0.00990039  0.00026863  0.0540265 0.0000
  9   -491.4582827888  -0.000522584781 0.00211743  0.00008531  0.0578586 0.0000
 10   -491.4587617332  -0.000478944367 0.69996302  0.00857373  0.0590716 0.0000
 11   -491.0178528881   0.440908845069 0.04372034  0.00048346  0.2636819 0.7000
 12   -491.0457330550  -0.027880166923 0.04413900  0.00050862  0.2435888 0.7000
 13   -491.0717458382  -0.026012783163 0.03644749  0.00042034  0.2226916 0.7000
 14   -491.0916027339  -0.019856895724 0.02834064  0.00032491  0.2055027 0.7000
 15   -491.1063978305  -0.014795096610 0.19353139  0.00290025  0.1921918 0.7000
 16   -491.4805854658  -0.374187635313 0.45157324  0.00616154  0.0534119 0.0000
 17   -491.3889225063   0.091662959529 0.01372111  0.00038369  0.1215222 0.7000
 18   -491.4036159036  -0.014693397321 0.01509503  0.00043349  0.1059451 0.7000
 19   -491.4177857269  -0.014169823302 0.04275187  0.00125932  0.0910614 0.0000
               *** Restarting incremental Fock matrix formation ***
                                   *** Resetting DIIS ***
 20   -491.4507017688  -0.032916041855 0.69097110  0.00892402  0.0651042 0.0000

 WARNING: the maximum gradient error descreased on average only by a factor   1.1
          during the last 20 iterations

                      *** Initiating the TRAH-SCF procedure ***


TRAH GRIDX
----------

General Integration Accuracy     IntAcc      ... 3.067
Radial Grid Type                 RadialGrid  ... OptM3 with GC (2021)
Angular Grid (max. ang.)         AngularGrid ... 1 (Lebedev-50)
Angular grid pruning method      GridPruning ... 4 (adaptive)
Weight generation scheme         WeightScheme... Becke
Basis function cutoff            BFCut       ... 1.0000e-11
Integration weight cutoff        WCut        ... 1.0000e-14
Angular grids for H and He will be reduced by one unit
Partially contracted basis set               ... on
Rotationally invariant grid construction     ... off

Total number of grid points                  ...     5621
Total number of batches                      ...      100
Average number of points per batch           ...       56
Average number of grid points per atom       ...      331


TRAH GRID
---------

General Integration Accuracy     IntAcc      ... 3.467
Radial Grid Type                 RadialGrid  ... OptM3 with GC (2021)
Angular Grid (max. ang.)         AngularGrid ... 1 (Lebedev-50)
Angular grid pruning method      GridPruning ... 4 (adaptive)
Weight generation scheme         WeightScheme... Becke
Basis function cutoff            BFCut       ... 1.0000e-11
Integration weight cutoff        WCut        ... 1.0000e-14
Angular grids for H and He will be reduced by one unit
Partially contracted basis set               ... off
Rotationally invariant grid construction     ... off

Total number of grid points                  ...    12327
Total number of batches                      ...      201
Average number of points per batch           ...       61
Average number of grid points per atom       ...      725

 --------------------------------------------------------------------------------------------
   Iter.        energy            ||Error||_2        Shift      TRadius  Mac/Mic        Rej.
 --------------------------------------------------------------------------------------------
WARNING: 39 diagonal Hessian elements are negative!
    0       -490.976113709641     1.748432e+00                     0.400 (TRAH MAcro)   No
WARNING : negative HOMO - LUMO gap : -0.914464
    0     dE    -2.019268e-01     1.174134e+00    -3.8509e-01      0.221 (TRAH MIcro)
    0     dE    -2.983013e-01     2.550101e+00    -7.6862e-01      0.400 (TRAH MIcro)
    0     dE    -1.820095e-01     3.225578e-01    -5.8430e+00      0.144 (TRAH MIcro)
    0     dE    -1.836128e-01     1.096898e-01    -5.8806e+00      0.144 (TRAH MIcro)
    0     dE    -1.838975e-01     2.903178e-02    -5.8913e+00      0.144 (TRAH MIcro)
    0     dE    -1.838910e-01     1.327476e-02    -5.8919e+00      0.144 (TRAH MIcro)
    0     dE    -1.838625e-01     2.348136e-03    -5.8922e+00      0.144 (TRAH MIcro)
WARNING: 32 diagonal Hessian elements are negative!
    1       -491.159667152672     8.443306e-01                     0.480 (TRAH MAcro)   No
WARNING : negative HOMO - LUMO gap : -0.767656
    1     dE    -5.984963e-02     3.938240e-01    -1.1743e-01      0.139 (TRAH MIcro)
    1     dE    -7.440019e-02     6.002038e-01    -1.4305e-01      0.200 (TRAH MIcro)
    1     dE    -5.051704e-02     9.262132e-02    -5.1815e+00      0.081 (TRAH MIcro)
    1     dE    -5.096698e-02     2.651563e-02    -5.2125e+00      0.082 (TRAH MIcro)
    1     dE    -5.103279e-02     1.273947e-02    -5.2164e+00      0.082 (TRAH MIcro)
    1     dE    -5.103684e-02     1.501437e-03    -5.2171e+00      0.082 (TRAH MIcro)
WARNING: 27 diagonal Hessian elements are negative!
    2       -491.210714775751     4.265095e-01                     0.576 (TRAH MAcro)   No
WARNING : negative HOMO - LUMO gap : -0.694274
    2     dE    -1.871035e-02     1.939620e-01    -3.7139e-02      0.087 (TRAH MIcro)
    2     dE    -2.312196e-02     1.246844e-01    -4.5549e-02      0.124 (TRAH MIcro)
    2     dE    -7.265602e-02     3.225099e+00    -4.5174e-01      0.455 (TRAH MIcro)
    2     dE    -1.459577e-02     4.179488e-02    -5.1738e+00      0.045 (TRAH MIcro)
    2     dE    -1.470033e-02     1.583179e-02    -5.1988e+00      0.045 (TRAH MIcro)
    2     dE    -1.472815e-02     5.124354e-03    -5.2046e+00      0.045 (TRAH MIcro)
WARNING: 25 diagonal Hessian elements are negative!
    3       -491.225450752020     2.353671e-01                     0.691 (TRAH MAcro)   No
WARNING : negative HOMO - LUMO gap : -0.659252
    3     dE    -6.855041e-03     1.103453e-01    -1.3664e-02      0.058 (TRAH MIcro)
    3     dE    -8.921386e-03     2.101798e-01    -1.7687e-02      0.094 (TRAH MIcro)
    3     dE    -1.119126e-01     1.830169e+00    -1.3008e+00      0.399 (TRAH MIcro)
    3     dE    -4.634718e-03     2.267525e-02    -5.9144e+00      0.025 (TRAH MIcro)
    3     dE    -6.341638e-01     4.074546e-01    -2.6349e+00      0.691 (TRAH MIcro)
    3     dE    -4.670529e-03     7.053867e-03    -5.9408e+00      0.025 (TRAH MIcro)
WARNING: 25 diagonal Hessian elements are negative!
    4       -491.230122944417     1.469654e-01                     0.829 (TRAH MAcro)   No
WARNING : negative HOMO - LUMO gap : -0.642676
    4     dE    -3.155026e-03     7.084002e-02    -6.2985e-03      0.043 (TRAH MIcro)
    4     dE    -4.400440e-03     8.754329e-02    -8.7507e-03      0.076 (TRAH MIcro)
    4     dE    -7.877685e-03     1.246718e+00    -1.4847e-02      0.247 (TRAH MIcro)
    4     dE    -2.586113e-03     1.518629e-02    -3.4345e+00      0.023 (TRAH MIcro)
    4     dE    -2.608805e-03     4.322593e-03    -3.4541e+00      0.023 (TRAH MIcro)
WARNING: 23 diagonal Hessian elements are negative!
    5       -491.232732155857     8.095685e-02                     0.995 (TRAH MAcro)   No
WARNING : negative HOMO - LUMO gap : -0.630049
    5     dE    -1.239689e-03     5.915218e-02    -2.4771e-03      0.031 (TRAH MIcro)
    5     dE    -2.553026e-03     1.740638e-01    -5.0526e-03      0.103 (TRAH MIcro)
    5     dE    -2.206288e-02     8.544937e-01    -1.4187e-01      0.519 (TRAH MIcro)
    5     dE    -8.525105e-04     1.333921e-02    -4.1013e+00      0.013 (TRAH MIcro)
    5     dE    -8.680270e-04     6.319182e-03    -4.1291e+00      0.013 (TRAH MIcro)
WARNING: 23 diagonal Hessian elements are negative!
    6       -491.233599974173     5.446125e-02                     1.194 (TRAH MAcro)   No
WARNING : negative HOMO - LUMO gap : -0.624506
    6     dE    -6.438243e-04     1.481171e-01    -1.2869e-03      0.024 (TRAH MIcro)
    6     dE    -4.108541e-03     1.054808e+00    -7.8035e-03      0.230 (TRAH MIcro)
    6     dE    -1.318918e+00     3.195805e+00    -1.8453e+00      1.194 (TRAH MIcro)
    6     dE    -5.951822e-04     3.606424e-02    -2.7564e+00      0.014 (TRAH MIcro)
    6     dE    -6.174209e-04     3.824960e-03    -2.8277e+00      0.014 (TRAH MIcro)
WARNING: 22 diagonal Hessian elements are negative!
    7       -491.234216801196     3.885179e-02                     1.433 (TRAH MAcro)   No
WARNING : negative HOMO - LUMO gap : -0.620839
    7     dE    -6.644642e-04     2.262857e-01    -1.3272e-03      0.036 (TRAH MIcro)
    7     dE    -9.117088e-02     8.040738e-01    -7.0412e-02      1.433 (TRAH MIcro)
    7     dE    -1.274557e-01     1.607892e+00    -1.0576e-01      1.433 (TRAH MIcro)
    7     dE    -2.254806e+00     2.997439e+00    -2.1921e+00      1.433 (TRAH MIcro)
    7     dE    -2.584150e+00     4.182417e-01    -2.5130e+00      1.433 (TRAH MIcro)
    7     dE    -2.592921e+00     1.283892e-01    -2.5216e+00      1.433 (TRAH MIcro)
    7     dE    -2.593773e+00     1.543204e-02    -2.5224e+00      1.433 (TRAH MIcro)
    7     dE    -2.593785e+00     3.618433e-03    -2.5224e+00      1.433 (TRAH MIcro)
WARNING: 17 diagonal Hessian elements are negative!
    8       -491.374174150583     1.278022e+00                     1.003 (TRAH MAcro)   No
WARNING : negative HOMO - LUMO gap : -0.450787
    8     dE    -1.174687e-01     1.751556e+00    -2.2462e-01      0.214 (TRAH MIcro)
    8     dE    -1.101339e+00     1.561384e+00    -1.7583e+00      1.003 (TRAH MIcro)
    8     dE    -1.205118e+00     3.508412e-01    -2.0207e+00      1.003 (TRAH MIcro)
    8     dE    -1.211720e+00     6.324970e-02    -2.0411e+00      1.003 (TRAH MIcro)
    8     dE    -1.211888e+00     2.241797e-02    -2.0415e+00      1.003 (TRAH MIcro)
    8     dE    -1.211915e+00     4.287511e-03    -2.0414e+00      1.003 (TRAH MIcro)
 ---------------------------------
          TRAH Step control 
 ---------------------------------
  predicted energy change = -1.211915
  actual energy  change   = 0.034615
  energy change ratio     = -0.028562
  old trust radius        = 1.003291
  new trust radius        = 0.702303
  reject step?            =  1
    9       -491.374174150583     3.885179e-02                     0.702 (TRAH MAcro)  Yes
WARNING: 17 diagonal Hessian elements are negative!
   10       -491.374174150583     1.278022e+00                     0.702 (TRAH MAcro)   No
WARNING : negative HOMO - LUMO gap : -0.450787
   10     dE    -1.172231e-01     1.708311e+00    -2.2431e-01      0.213 (TRAH MIcro)
   10     dE    -6.355036e-01     9.364961e-01    -1.8745e+00      0.702 (TRAH MIcro)
   10     dE    -3.865509e-01     1.254932e-01    -2.2656e+00      0.476 (TRAH MIcro)
   10     dE    -3.916932e-01     4.016499e-02    -2.2703e+00      0.480 (TRAH MIcro)
   10     dE    -3.897408e-01     1.233043e-02    -2.2706e+00      0.478 (TRAH MIcro)
   10     dE    -3.887929e-01     1.668432e-03    -2.2707e+00      0.477 (TRAH MIcro)
WARNING: 1 diagonal Hessian elements are negative!
   11       -491.625100138423     1.894049e-01                     0.702 (TRAH MAcro)   No
WARNING : negative HOMO - LUMO gap : -0.021581
   11     dE    -5.126953e-03     2.843763e-01    -1.0223e-02      0.055 (TRAH MIcro)
   11     dE    -7.921201e-03     8.556673e-02    -1.5701e-02      0.095 (TRAH MIcro)
   11     dE    -8.461718e-03     2.592883e-02    -1.6716e-02      0.111 (TRAH MIcro)
   11     dE    -8.527831e-03     1.509656e-02    -1.6834e-02      0.115 (TRAH MIcro)
   11     dE    -8.544318e-03     6.703954e-03    -1.6859e-02      0.117 (TRAH MIcro)
   12       -491.632562925237     3.124946e-02                     0.843 (TRAH MAcro)   No
WARNING : small    HOMO - LUMO gap : 0.011473
   12     dE    -1.101574e-04     5.586065e-02    -2.2030e-04      0.007 (TRAH MIcro)
   12     dE    -1.475316e-04     3.262791e-02    -2.9503e-04      0.011 (TRAH MIcro)
   12     dE    -2.677583e-04     1.852523e-02    -5.3527e-04      0.021 (TRAH MIcro)
   12     dE    -2.986876e-04     8.231219e-03    -5.9696e-04      0.026 (TRAH MIcro)
   12     dE    -3.022078e-04     2.649116e-03    -6.0397e-04      0.027 (TRAH MIcro)
   13       -491.632875257176     3.194362e-03                     1.011 (TRAH MAcro)   No
WARNING : small    HOMO - LUMO gap : 0.009254
   13     dE    -5.882171e-07     4.112147e-03    -1.1764e-06      0.000 (TRAH MIcro)
   13     dE    -7.597490e-07     3.220070e-03    -1.5195e-06      0.001 (TRAH MIcro)
   13     dE    -1.904755e-06     1.590799e-03    -3.8095e-06      0.003 (TRAH MIcro)
   13     dE    -2.099906e-06     4.930494e-04    -4.1998e-06      0.003 (TRAH MIcro)
   13     dE    -2.111376e-06     1.458781e-04    -4.2227e-06      0.003 (TRAH MIcro)
   14       -491.632877375463     1.516632e-04                           (NR   MAcro)
WARNING : small    HOMO - LUMO gap : 0.009116
   14     dE    -1.869796e-10     1.423108e-04                           (NR   MIcro)
   14     dE    -1.433337e-09     7.684227e-05                           (NR   MIcro)
   14     dE    -1.910780e-09     3.592691e-05                           (NR   MIcro)
   14     dE    -2.005261e-09     1.272852e-05                           (NR   MIcro)
   14     dE    -2.024207e-09     7.066957e-06                           (NR   MIcro)
   14     dE    -2.027280e-09     2.797836e-06                           (NR   MIcro)
   14     dE    -2.027563e-09     1.117198e-06                           (NR   MIcro)
   14     dE    -2.027626e-09     2.264231e-07                           (NR   MIcro)
   15       -491.632877377443     2.617082e-07                           (NR   MAcro)
WARNING : small    HOMO - LUMO gap : 0.009115

               *****************************************************
               *                     SUCCESS                       *
               *           SCF CONVERGED AFTER 119 CYCLES          *
               *****************************************************

Old exchange energy                            =    -12.500925177 Eh
New exchange energy                            =    -12.500946597 Eh
Exchange energy change after final integration =     -0.000021420 Eh
Total energy after final integration           =   -491.632898797 Eh
Final COS-X integration done in                =    13.030 sec

----------------
TOTAL SCF ENERGY
----------------

Total Energy       :         -491.63289880 Eh          -13378.01130 eV

Components:
Nuclear Repulsion  :          500.67135177 Eh           13623.96011 eV
Electronic Energy  :         -992.30425057 Eh          -27001.97141 eV
One Electron Energy:        -1649.44386294 Eh          -44883.64935 eV
Two Electron Energy:          657.13961237 Eh           17881.67794 eV
Max COSX asymmetry :            0.00000224 Eh               0.00006 eV

Virial components:
Potential Energy   :         -979.09745054 Eh          -26642.59611 eV
Kinetic Energy     :          487.46455175 Eh           13264.58481 eV
Virial Ratio       :            2.00855108


DFT components:
N(Alpha)           :       35.999944622562 electrons
N(Beta)            :       35.999944622562 electrons
N(Total)           :       71.999889245124 electrons
E(X)               :      -49.903130372881 Eh       
E(C)               :       -2.918861153693 Eh       
E(XC)              :      -52.821991526574 Eh       
DFET-embed. en.    :        0.000000000000 Eh       

---------------
SCF CONVERGENCE
---------------

  Last Energy change         ...   -1.9800e-09  Tolerance :   1.0000e-08
  Last Orbital Gradient      ...    2.6171e-07  Tolerance :   1.0000e-05
  Last Orbital Rotation      ...    9.0003e-05

             **** THE GBW FILE WAS UPDATED (opt.gbw) ****
             **** DENSITY opt.scfp WAS UPDATED ****
             **** ENERGY FILE WAS UPDATED (opt.en.tmp) ****
             **** THE GBW FILE WAS UPDATED (opt.gbw) ****
             **** DENSITY opt.scfp WAS UPDATED ****
----------------
ORBITAL ENERGIES
----------------

  NO   OCC          E(Eh)            E(eV) 
   0   2.0000     -19.289390      -524.8910 
   1   2.0000     -19.288445      -524.8653 
   2   2.0000     -14.687023      -399.6542 
   3   2.0000     -14.557440      -396.1281 
   4   2.0000     -10.437763      -284.0260 
   5   2.0000     -10.401312      -283.0341 
   6   2.0000     -10.379161      -282.4313 
   7   2.0000     -10.378552      -282.4148 
   8   2.0000     -10.376085      -282.3476 
   9   2.0000     -10.368377      -282.1379 
  10   2.0000      -1.351551       -36.7776 
  11   2.0000      -1.180478       -32.1224 
  12   2.0000      -1.123521       -30.5726 
  13   2.0000      -1.027774       -27.9671 
  14   2.0000      -0.945782       -25.7360 
  15   2.0000      -0.909694       -24.7540 
  16   2.0000      -0.845884       -23.0177 
  17   2.0000      -0.794171       -21.6105 
  18   2.0000      -0.764706       -20.8087 
  19   2.0000      -0.714253       -19.4358 
  20   2.0000      -0.694927       -18.9099 
  21   2.0000      -0.668973       -18.2037 
  22   2.0000      -0.663920       -18.0662 
  23   2.0000      -0.653290       -17.7769 
  24   2.0000      -0.636791       -17.3280 
  25   2.0000      -0.613975       -16.7071 
  26   2.0000      -0.604294       -16.4437 
  27   2.0000      -0.580743       -15.8028 
  28   2.0000      -0.552399       -15.0315 
  29   2.0000      -0.534703       -14.5500 
  30   2.0000      -0.503155       -13.6915 
  31   2.0000      -0.441453       -12.0125 
  32   2.0000      -0.434782       -11.8310 
  33   2.0000      -0.434200       -11.8152 
  34   2.0000      -0.421251       -11.4628 
  35   2.0000      -0.375222       -10.2103 
  36   0.0000      -0.366107        -9.9623 
  37   0.0000      -0.221788        -6.0352 
  38   0.0000      -0.175396        -4.7728 
  39   0.0000      -0.141225        -3.8429 
  40   0.0000      -0.103311        -2.8112 
  41   0.0000      -0.071205        -1.9376 
  42   0.0000      -0.065885        -1.7928 
  43   0.0000      -0.016335        -0.4445 
  44   0.0000      -0.014325        -0.3898 
  45   0.0000      -0.004301        -0.1170 
  46   0.0000       0.024536         0.6676 
  47   0.0000       0.028855         0.7852 
  48   0.0000       0.081517         2.2182 
  49   0.0000       0.104793         2.8516 
  50   0.0000       0.117775         3.2048 
  51   0.0000       0.129100         3.5130 
  52   0.0000       0.134431         3.6580 
  53   0.0000       0.158562         4.3147 
  54   0.0000       0.189800         5.1647 
  55   0.0000       0.232361         6.3229 
  56   0.0000       0.241340         6.5672 
  57   0.0000       0.261247         7.1089 
  58   0.0000       0.278792         7.5863 
  59   0.0000       0.295113         8.0304 
  60   0.0000       0.295440         8.0393 
  61   0.0000       0.315372         8.5817 
  62   0.0000       0.323000         8.7893 
  63   0.0000       0.331668         9.0251 
  64   0.0000       0.350463         9.5366 
  65   0.0000       0.367851        10.0097 
  66   0.0000       0.372348        10.1321 
  67   0.0000       0.375960        10.2304 
  68   0.0000       0.431420        11.7395 
  69   0.0000       0.435474        11.8499 
  70   0.0000       0.443317        12.0633 
  71   0.0000       0.480227        13.0676 
  72   0.0000       0.489447        13.3185 
  73   0.0000       0.510208        13.8835 
  74   0.0000       0.526784        14.3345 
  75   0.0000       0.527510        14.3543 
  76   0.0000       0.538142        14.6436 
  77   0.0000       0.550696        14.9852 
  78   0.0000       0.559279        15.2188 
  79   0.0000       0.574941        15.6449 
  80   0.0000       0.581735        15.8298 
  81   0.0000       0.624431        16.9916 
  82   0.0000       0.649562        17.6755 
  83   0.0000       0.657570        17.8934 
  84   0.0000       0.660380        17.9699 
  85   0.0000       0.702950        19.1282 
  86   0.0000       0.733461        19.9585 
  87   0.0000       0.789150        21.4739 
  88   0.0000       0.807242        21.9662 
  89   0.0000       0.826086        22.4789 
  90   0.0000       0.856402        23.3039 
  91   0.0000       0.873292        23.7635 
  92   0.0000       0.901616        24.5342 
  93   0.0000       0.913808        24.8660 
  94   0.0000       0.965156        26.2632 
  95   0.0000       1.026339        27.9281 
  96   0.0000       1.035319        28.1725 
  97   0.0000       1.041440        28.3390 
  98   0.0000       1.061194        28.8766 
  99   0.0000       1.072810        29.1926 
 100   0.0000       1.088424        29.6175 
 101   0.0000       1.102951        30.0128 
 102   0.0000       1.107477        30.1360 
 103   0.0000       1.150647        31.3107 
 104   0.0000       1.155681        31.4477 
 105   0.0000       1.174820        31.9685 
 106   0.0000       1.227807        33.4103 
 107   0.0000       1.235025        33.6067 
 108   0.0000       1.235078        33.6082 
 109   0.0000       1.235083        33.6083 
 110   0.0000       1.268728        34.5238 
 111   0.0000       1.304156        35.4879 
 112   0.0000       1.337265        36.3888 
 113   0.0000       1.363682        37.1077 
 114   0.0000       1.461883        39.7799 
 115   0.0000       1.503945        40.9244 
 116   0.0000       1.519245        41.3408 
 117   0.0000       1.541651        41.9505 
 118   0.0000       1.565621        42.6027 
 119   0.0000       1.566823        42.6354 
 120   0.0000       1.583858        43.0990 
 121   0.0000       1.592680        43.3390 
 122   0.0000       1.603858        43.6432 
 123   0.0000       1.630043        44.3557 
 124   0.0000       1.637072        44.5470 
 125   0.0000       1.648236        44.8508 
 126   0.0000       1.674330        45.5608 
 127   0.0000       1.715077        46.6696 
 128   0.0000       1.762656        47.9643 
 129   0.0000       1.787470        48.6395 
 130   0.0000       1.795473        48.8573 
 131   0.0000       1.854372        50.4600 
 132   0.0000       1.910079        51.9759 
 133   0.0000       1.915466        52.1225 
 134   0.0000       1.943723        52.8914 
 135   0.0000       1.963314        53.4245 
 136   0.0000       1.969805        53.6011 
 137   0.0000       2.003386        54.5149 
 138   0.0000       2.010539        54.7096 
 139   0.0000       2.045674        55.6656 
 140   0.0000       2.063061        56.1387 
 141   0.0000       2.135879        58.1202 
 142   0.0000       2.167938        58.9926 
 143   0.0000       2.173353        59.1400 
 144   0.0000       2.179698        59.3126 
 145   0.0000       2.230989        60.7083 
 146   0.0000       2.261805        61.5469 
 147   0.0000       2.294358        62.4327 
 148   0.0000       2.358440        64.1764 
 149   0.0000       2.400445        65.3194 
 150   0.0000       2.435100        66.2624 
 151   0.0000       2.479650        67.4747 
 152   0.0000       2.493300        67.8461 
 153   0.0000       2.495385        67.9029 
 154   0.0000       2.516466        68.4765 
 155   0.0000       2.541643        69.1616 
 156   0.0000       2.553239        69.4772 
 157   0.0000       2.565192        69.8024 
 158   0.0000       2.573625        70.0319 
 159   0.0000       2.605599        70.9020 
 160   0.0000       2.665427        72.5300 
 161   0.0000       2.675122        72.7938 
 162   0.0000       2.738568        74.5202 
 163   0.0000       2.861632        77.8690 
 164   0.0000       2.899262        78.8929 
 165   0.0000       2.909642        79.1754 
 166   0.0000       2.915535        79.3357 
 167   0.0000       3.013227        81.9941 
 168   0.0000       3.154699        85.8437 
 169   0.0000       3.183564        86.6292 
 170   0.0000       3.256591        88.6163 
 171   0.0000       3.357774        91.3697 
 172   0.0000       3.436565        93.5137 
 173   0.0000       3.636899        98.9650 
 174   0.0000       3.671498        99.9065 

                    ********************************
                    * MULLIKEN POPULATION ANALYSIS *
                    ********************************

-----------------------
MULLIKEN ATOMIC CHARGES
-----------------------
   0 C :    0.038126
   1 C :    0.063405
   2 C :    0.027507
   3 C :    0.051102
   4 C :    0.158768
   5 C :    0.004766
   6 H :    0.029987
   7 H :    0.054371
   8 H :    0.062311
   9 H :    0.242148
  10 H :    0.039223
  11 N :    0.044739
  12 H :    0.169638
  13 H :    0.170859
  14 N :    0.234748
  15 O :   -0.200419
  16 O :   -0.191279
Sum of atomic charges:    1.0000000

--------------------------------
MULLIKEN REDUCED ORBITAL CHARGES
--------------------------------
  0 C s       :     3.028276  s :     3.028276
      pz      :     0.896335  p :     2.871080
      px      :     1.014386
      py      :     0.960358
      dz2     :     0.004835  d :     0.062518
      dxz     :     0.008534
      dyz     :     0.012854
      dx2y2   :     0.017303
      dxy     :     0.018992
  1 C s       :     3.205385  s :     3.205385
      pz      :     0.956838  p :     2.699141
      px      :     0.811975
      py      :     0.930328
      dz2     :     0.002634  d :     0.032069
      dxz     :     0.002721
      dyz     :     0.005301
      dx2y2   :     0.011071
      dxy     :     0.010342
  2 C s       :     3.181782  s :     3.181782
      pz      :     0.922880  p :     2.755934
      px      :     0.921549
      py      :     0.911505
      dz2     :     0.002651  d :     0.034777
      dxz     :     0.004777
      dyz     :     0.004189
      dx2y2   :     0.011345
      dxy     :     0.011815
  3 C s       :     3.270852  s :     3.270852
      pz      :     0.850805  p :     2.644414
      px      :     0.884241
      py      :     0.909368
      dz2     :     0.002918  d :     0.033631
      dxz     :     0.005052
      dyz     :     0.004040
      dx2y2   :     0.009459
      dxy     :     0.012162
  4 C s       :     3.033447  s :     3.033447
      pz      :     1.014295  p :     2.759292
      px      :     0.860939
      py      :     0.884059
      dz2     :     0.004116  d :     0.048493
      dxz     :     0.005545
      dyz     :     0.007363
      dx2y2   :     0.019472
      dxy     :     0.011996
  5 C s       :     3.306385  s :     3.306385
      pz      :     0.932558  p :     2.657641
      px      :     0.838026
      py      :     0.887057
      dz2     :     0.002745  d :     0.031208
      dxz     :     0.004318
      dyz     :     0.004401
      dx2y2   :     0.010291
      dxy     :     0.009452
  6 H s       :     0.946779  s :     0.946779
      pz      :     0.004695  p :     0.023234
      px      :     0.015516
      py      :     0.003024
  7 H s       :     0.922431  s :     0.922431
      pz      :     0.004204  p :     0.023198
      px      :     0.006068
      py      :     0.012926
  8 H s       :     0.913757  s :     0.913757
      pz      :     0.003615  p :     0.023932
      px      :     0.007658
      py      :     0.012658
  9 H s       :     0.757852  s :     0.757852
      pz      :     0.000000  p :     0.000000
      px      :     0.000000
      py      :     0.000000
 10 H s       :     0.936424  s :     0.936424
      pz      :     0.004561  p :     0.024353
      px      :     0.007746
      py      :     0.012046
 11 N s       :     3.299188  s :     3.299188
      pz      :     1.518168  p :     3.640212
      px      :     1.061230
      py      :     1.060814
      dz2     :     0.001475  d :     0.015862
      dxz     :     0.001007
      dyz     :     0.002394
      dx2y2   :     0.005966
      dxy     :     0.005020
 12 H s       :     0.785826  s :     0.785826
      pz      :     0.010911  p :     0.044536
      px      :     0.026368
      py      :     0.007257
 13 H s       :     0.784613  s :     0.784613
      pz      :     0.010795  p :     0.044528
      px      :     0.011333
      py      :     0.022400
 14 N s       :     3.287817  s :     3.287817
      pz      :     1.184668  p :     3.359519
      px      :     1.139310
      py      :     1.035540
      dz2     :     0.005740  d :     0.117916
      dxz     :     0.006219
      dyz     :     0.028753
      dx2y2   :     0.043525
      dxy     :     0.033679
 15 O s       :     3.863490  s :     3.863490
      pz      :     1.394456  p :     4.313823
      px      :     1.675270
      py      :     1.244097
      dz2     :     0.002908  d :     0.023106
      dxz     :     0.001668
      dyz     :     0.005663
      dx2y2   :     0.006007
      dxy     :     0.006861
 16 O s       :     3.865119  s :     3.865119
      pz      :     1.402520  p :     4.302976
      px      :     1.663617
      py      :     1.236839
      dz2     :     0.002789  d :     0.023184
      dxz     :     0.001656
      dyz     :     0.005364
      dx2y2   :     0.006205
      dxy     :     0.007171


                     *******************************
                     * LOEWDIN POPULATION ANALYSIS *
                     *******************************

----------------------
LOEWDIN ATOMIC CHARGES
----------------------
   0 C :    0.072883
   1 C :    0.013038
   2 C :    0.027590
   3 C :    0.071927
   4 C :    0.004906
   5 C :    0.015485
   6 H :    0.052737
   7 H :    0.060699
   8 H :    0.063933
   9 H :    0.242148
  10 H :    0.058034
  11 N :    0.139218
  12 H :    0.113777
  13 H :    0.114592
  14 N :    0.274216
  15 O :   -0.167536
  16 O :   -0.157647

-------------------------------
LOEWDIN REDUCED ORBITAL CHARGES
-------------------------------
  0 C s       :     2.840893  s :     2.840893
      pz      :     0.884189  p :     2.938857
      px      :     1.052025
      py      :     1.002643
      dz2     :     0.010565  d :     0.147367
      dxz     :     0.017354
      dyz     :     0.026129
      dx2y2   :     0.044244
      dxy     :     0.049074
  1 C s       :     2.868918  s :     2.868918
      pz      :     0.947630  p :     3.033422
      px      :     1.045465
      py      :     1.040327
      dz2     :     0.006254  d :     0.084622
      dxz     :     0.004760
      dyz     :     0.011409
      dx2y2   :     0.032021
      dxy     :     0.030177
  2 C s       :     2.862198  s :     2.862198
      pz      :     0.915833  p :     3.020442
      px      :     1.046133
      py      :     1.058477
      dz2     :     0.006363  d :     0.089769
      dxz     :     0.010236
      dyz     :     0.007996
      dx2y2   :     0.032041
      dxy     :     0.033133
  3 C s       :     2.877505  s :     2.877505
      pz      :     0.849352  p :     2.964631
      px      :     1.058117
      py      :     1.057163
      dz2     :     0.006726  d :     0.085936
      dxz     :     0.010550
      dyz     :     0.007953
      dx2y2   :     0.027389
      dxy     :     0.033319
  4 C s       :     2.869471  s :     2.869471
      pz      :     0.992145  p :     3.003815
      px      :     0.916185
      py      :     1.095485
      dz2     :     0.009809  d :     0.121808
      dxz     :     0.011224
      dyz     :     0.015481
      dx2y2   :     0.050643
      dxy     :     0.034652
  5 C s       :     2.869592  s :     2.869592
      pz      :     0.938228  p :     3.031157
      px      :     1.024079
      py      :     1.068849
      dz2     :     0.006548  d :     0.083766
      dxz     :     0.009306
      dyz     :     0.008472
      dx2y2   :     0.030611
      dxy     :     0.028829
  6 H s       :     0.877589  s :     0.877589
      pz      :     0.014611  p :     0.069674
      px      :     0.044806
      py      :     0.010256
  7 H s       :     0.871157  s :     0.871157
      pz      :     0.012967  p :     0.068145
      px      :     0.018294
      py      :     0.036884
  8 H s       :     0.861841  s :     0.861841
      pz      :     0.011652  p :     0.074226
      px      :     0.024339
      py      :     0.038236
  9 H s       :     0.757852  s :     0.757852
      pz      :     0.000000  p :     0.000000
      px      :     0.000000
      py      :     0.000000
 10 H s       :     0.866567  s :     0.866567
      pz      :     0.014486  p :     0.075398
      px      :     0.025088
      py      :     0.035824
 11 N s       :     3.025630  s :     3.025630
      pz      :     1.459386  p :     3.792426
      px      :     1.173020
      py      :     1.160020
      dz2     :     0.002604  d :     0.042726
      dxz     :     0.001996
      dyz     :     0.004651
      dx2y2   :     0.018179
      dxy     :     0.015296
 12 H s       :     0.766431  s :     0.766431
      pz      :     0.034591  p :     0.119792
      px      :     0.070184
      py      :     0.015017
 13 H s       :     0.765697  s :     0.765697
      pz      :     0.034277  p :     0.119711
      px      :     0.027439
      py      :     0.057995
 14 N s       :     3.046841  s :     3.046841
      pz      :     1.135972  p :     3.431688
      px      :     1.164228
      py      :     1.131488
      dz2     :     0.013591  d :     0.247254
      dxz     :     0.010599
      dyz     :     0.051226
      dx2y2   :     0.097494
      dxy     :     0.074345
 15 O s       :     3.616929  s :     3.616929
      pz      :     1.408663  p :     4.506305
      px      :     1.711314
      py      :     1.386327
      dz2     :     0.006418  d :     0.044303
      dxz     :     0.002361
      dyz     :     0.008753
      dx2y2   :     0.011438
      dxy     :     0.015332
 16 O s       :     3.617631  s :     3.617631
      pz      :     1.411376  p :     4.495603
      px      :     1.703259
      py      :     1.380968
      dz2     :     0.006747  d :     0.044413
      dxz     :     0.002112
      dyz     :     0.007601
      dx2y2   :     0.011644
      dxy     :     0.016310


                      *****************************
                      * MAYER POPULATION ANALYSIS *
                      *****************************

  NA   - Mulliken gross atomic population
  ZA   - Total nuclear charge
  QA   - Mulliken gross atomic charge
  VA   - Mayer's total valence
  BVA  - Mayer's bonded valence
  FA   - Mayer's free valence

  ATOM       NA         ZA         QA         VA         BVA        FA
  0 C      5.9619     6.0000     0.0381     4.0036     4.0036    -0.0000
  1 C      5.9366     6.0000     0.0634     3.7717     3.7717     0.0000
  2 C      5.9725     6.0000     0.0275     3.8613     3.8613    -0.0000
  3 C      5.9489     6.0000     0.0511     3.8009     3.8009    -0.0000
  4 C      5.8412     6.0000     0.1588     3.8774     3.8774     0.0000
[...]
Average number of points per batch           ...       63
Average number of grid points per atom       ...     3047
UseSFitting                                  ... on

Time for X-Grid setup             =    1.188 sec

--------------
SCF ITERATIONS
--------------
ITER       Energy         Delta-E        Max-DP      RMS-DP      [F,P]     Damp
               ***  Starting incremental Fock matrix formation  ***
  0   -491.6321739411   0.000000000000 0.00317853  0.00014226  0.0174114 0.7000
                      *** Initiating the SOSCF procedure ***
                      *** Re-Reading the Fockian *** 
                      *** Removing any level shift *** 
ITER      Energy       Delta-E        Grad      Rot      Max-DP    RMS-DP
  1   -491.63264340  -0.0004694620  0.001359  0.001359  0.010259  0.000425
               *** Restarting incremental Fock matrix formation ***
  2   -491.63391615  -0.0012727494  0.000958  0.012759  0.008339  0.000149
  3   -491.63376304   0.0001531169  0.007518  0.018583  0.012272  0.000205
  4   -491.63377060  -0.0000075678  0.004054  0.008367  0.008848  0.000244
  5   -491.63363714   0.0001334609  0.005574  0.007703  0.006336  0.000179
  6   -491.63392687  -0.0002897264  0.001218  0.002395  0.003994  0.000145
  7   -491.63391285   0.0000140227  0.001508  0.003718  0.002937  0.000078
  8   -491.63396872  -0.0000558693  0.000321  0.001695  0.000826  0.000041
  9   -491.63396987  -0.0000011559  0.000163  0.000391  0.000410  0.000019
 10   -491.63397197  -0.0000020936  0.000057  0.000302  0.000258  0.000009
 11   -491.63397196   0.0000000048  0.000053  0.000146  0.000124  0.000005
 12   -491.63397214  -0.0000001767  0.000022  0.000072  0.000064  0.000002
 13   -491.63397213   0.0000000100  0.000033  0.000048  0.000036  0.000001
 14   -491.63397214  -0.0000000179  0.000003  0.000022  0.000014  0.000000
 15   -491.63397215  -0.0000000014  0.000006  0.000016  0.000009  0.000000
                  ***Gradient check signals convergence***
              ***Rediagonalizing the Fockian in SOSCF/NRSCF***

               *****************************************************
               *                     SUCCESS                       *
               *           SCF CONVERGED AFTER  16 CYCLES          *
               *****************************************************

Old exchange energy                            =    -12.500588546 Eh
New exchange energy                            =    -12.500586612 Eh
Exchange energy change after final integration =      0.000001934 Eh
Total energy after final integration           =   -491.633970212 Eh
Final COS-X integration done in                =    13.072 sec
Total Energy       :         -491.63397021 Eh          -13378.04046 eV
  Last Energy change         ...   -4.7351e-11  Tolerance :   1.0000e-08
  Last MAX-Density change    ...    3.1086e-15  Tolerance :   1.0000e-07
             **** THE GBW FILE WAS UPDATED (opt.gbw) ****
             **** DENSITY opt.scfp WAS UPDATED ****
             **** ENERGY FILE WAS UPDATED (opt.en.tmp) ****
             **** THE GBW FILE WAS UPDATED (opt.gbw) ****
             **** DENSITY opt.scfp WAS UPDATED ****
Total SCF time: 0 days 0 hours 2 min 8 sec 

Maximum memory used throughout the entire SCF-calculation: 73.5 MB


-------------------------------------------------------------------------------
                          DFT DISPERSION CORRECTION                            
                                                                               
                                 DFTD4 V2.5                                    
-------------------------------------------------------------------------------
Starting D4
-------------------------   ----------------
Dispersion correction           -0.025432934
-------------------------   ----------------


-------------------------   --------------------
FINAL SINGLE POINT ENERGY      -491.659403146181
-------------------------   --------------------

------------------------------------------------------------------------------
                         ORCA SCF GRADIENT CALCULATION
------------------------------------------------------------------------------

 ... reading COSX grid (gridx3)
Gradient of the Kohn-Sham DFT energy:
Kohn-Sham wavefunction type      ... RKS
Hartree-Fock exchange scaling    ...    0.200
Number of operators              ...    1
Number of atoms                  ...   17
Basis set dimensions             ...  175
Integral neglect threshold       ... 2.5e-11
Integral primitive cutoff        ... 2.5e-12
SHARK Integral package           ... ON

Nuc. rep. gradient       (SHARK) ... done (  0.0 sec)
HCore & Overlap gradient (SHARK) ... done (  0.2 sec)
RI-J gradient            (SHARK) ... done (  2.4 sec)
COSX-gradient                    ... done ( 15.7 sec)
Exchange-correlation gradient    ... done
Dispersion correction            ... Starting D4


------------------- 
Dispersion Gradient 
------------------- 
   1  :   -0.000287950    0.000325831   -0.000218367
   2  :   -0.000294661   -0.000111781   -0.000353108
   3  :   -0.000181916   -0.000524633   -0.000354271
   4  :    0.000030072   -0.000513873   -0.000122492
   5  :    0.000286886   -0.000138613    0.000272577
   6  :   -0.000030714    0.000369101    0.000075560
   7  :   -0.000126789   -0.000032865   -0.000147856
   8  :   -0.000046092   -0.000149641   -0.000094867
   9  :    0.000064090   -0.000199826    0.000009075
  10  :   -0.000000468    0.000000073   -0.000000617
  11  :    0.000051504    0.000197408    0.000114290
  12  :   -0.000267718    0.000492483   -0.000145325
  13  :   -0.000159544    0.000116224   -0.000139700
  14  :   -0.000027592    0.000247632    0.000041382
  15  :    0.000393057   -0.000033551    0.000420790
  16  :    0.000272056    0.000170271    0.000361792
  17  :    0.000325780   -0.000214240    0.000281137

  |G| =    0.001673997

done

------------------
CARTESIAN GRADIENT
------------------

   1   C   :    0.000126188    0.000066250    0.000002614
   2   C   :    0.002491208   -0.000818057    0.003612443
   3   C   :   -0.000689793    0.002975081   -0.000428792
   4   C   :    0.000663028   -0.000814680    0.000381032
   5   C   :   -0.000232368    0.001550545    0.000986004
   6   C   :    0.001675330   -0.000650227    0.001366710
   7   H   :   -0.001510466   -0.000141573   -0.002145160
   8   H   :   -0.000459772   -0.001603614   -0.000894570
   9   H   :   -0.000275071    0.000655069   -0.000228311
  10   H   :   -0.000040726    0.000010583   -0.000046774
  11   H   :   -0.000880800   -0.000675182   -0.001504672
  12   N   :    0.001636642    0.002019283    0.002504497
  13   H   :   -0.000583793    0.000144871   -0.000615429
  14   H   :   -0.000865490   -0.002200823   -0.001670262
  15   N   :   -0.000462469   -0.000112317   -0.001172146
  16   O   :   -0.001013431    0.001677740   -0.000181323
  17   O   :    0.000411556   -0.001913213    0.000010601

Difference to translation invariance:
           :   -0.0000102286    0.0001697353   -0.0000235384

Difference to rotation invariance:
           :   -0.0004941189   -0.0005677971   -0.0006888458

Norm of the cartesian gradient     ...    0.0092321293
RMS gradient                       ...    0.0012927567
MAX gradient                       ...    0.0036124435

-------
TIMINGS
-------

Total SCF gradient time            ...       25.490 sec

One electron gradient       ....       0.240 sec  (  0.9%)
RI-J Coulomb gradient       ....       2.398 sec  (  9.4%)
COSX gradient               ....      15.654 sec  ( 61.4%)
XC gradient                 ....       6.493 sec  ( 25.5%)

Maximum memory used throughout the entire SCFGRAD-calculation: 59.2 MB
------------------------------------------------------------------------------
                         ORCA GEOMETRY RELAXATION STEP
------------------------------------------------------------------------------

Reading the OPT-File                    .... done
Getting information on internals        .... done
Copying old internal coords+grads       .... done
Making the new internal coordinates     .... (new redundants).... done
Validating the new internal coordinates .... (new redundants).... done
Calculating the B-matrix                .... done
Calculating the G,G- and P matrices     .... done
Transforming gradient to internals      .... done
Projecting the internal gradient        .... done
Number of atoms                         ....  17
Number of internal coordinates          ....  95
Current Energy                          ....  -491.659403146 Eh
Current gradient norm                   ....     0.009232129 Eh/bohr
Maximum allowed component of the step   ....  0.300
Current trust radius                    ....  0.300
Updating the Hessian (BFGS)             .... done
Forming the augmented Hessian           .... done
Diagonalizing the augmented Hessian     .... done
Last element of RFO vector              ....  0.954779846
Lowest eigenvalues of augmented Hessian:
 -0.000384782  0.000005139  0.000294134  0.001515153  0.004645370
Length of the computed step             ....  0.311395047
Warning: the length of the step is outside the trust region - taking restricted step instead
The input lambda is                     ....    -0.000385
   iter:   1  x=   -0.000421  g=  194.142536 f(x)=     0.006967
   iter:   2  x=   -0.000424  g=  167.890112 f(x)=     0.000489
   iter:   3  x=   -0.000424  g=  166.010813 f(x)=     0.000003
   iter:   4  x=   -0.000424  g=  166.000233 f(x)=     0.000000
   iter:   5  x=   -0.000424  g=  166.000233 f(x)=     0.000000
The output lambda is                    ....    -0.000424 (5 iterations)
The final length of the internal step   ....  0.300000000
Converting the step to cartesian space:
 Initial RMS(Int)=    0.0307793506
Transforming coordinates:
 Iter   0:  RMS(Cart)=    0.0479665317 RMS(Int)=    2.2264323216
 Iter   1:  RMS(Cart)=    0.0019350146 RMS(Int)=    0.0014104904
 Iter   2:  RMS(Cart)=    0.0002172378 RMS(Int)=    0.0001609612
 Iter   3:  RMS(Cart)=    0.0000224020 RMS(Int)=    0.0000172618
 Iter   4:  RMS(Cart)=    0.0000021897 RMS(Int)=    0.0000017235
 Iter   5:  RMS(Cart)=    0.0000002367 RMS(Int)=    0.0000001850
 Iter   6:  RMS(Cart)=    0.0000000263 RMS(Int)=    0.0000000204
done
Storing new coordinates                 .... done

                                .--------------------.
          ----------------------|Geometry convergence|-------------------------
          Item                value                   Tolerance       Converged
          ---------------------------------------------------------------------
          Energy change      -0.0003427375            0.0000050000      NO
          RMS gradient        0.0006728163            0.0001000000      NO
          MAX gradient        0.0028727566            0.0003000000      NO
          RMS step            0.0307793506            0.0020000000      NO
          MAX step            0.1558585181            0.0040000000      NO
          ........................................................
          Max(Bonds)      0.0354      Max(Angles)    1.66
          Max(Dihed)        8.93      Max(Improp)    0.00
          ---------------------------------------------------------------------

The optimization has not yet converged - more geometry cycles are needed


    ---------------------------------------------------------------------------
                         Redundant Internal Coordinates
                            (Angstroem and degrees)

        Definition                    Value    dE/dq     Step     New-Value
    ----------------------------------------------------------------------------
     1. B(C   1,C   0)                1.4322 -0.000537  0.0048    1.4371   
     2. B(C   2,C   1)                1.3793 -0.001775  0.0055    1.3849   
     3. B(C   3,C   2)                1.4103  0.000399 -0.0051    1.4051   
     4. B(C   4,C   3)                1.4047  0.000171  0.0006    1.4053   
     5. B(C   5,C   4)                1.3750 -0.001509  0.0020    1.3769   
     6. B(C   5,C   0)                1.4298 -0.000761  0.0025    1.4323   
     7. B(H   6,C   1)                1.0965  0.002590 -0.0121    1.0845   
     8. B(H   7,C   2)                1.0946  0.001899 -0.0085    1.0861   
     9. B(H   8,C   3)                1.0894 -0.000733  0.0030    1.0924   
    10. B(H  10,C   5)                1.0886 -0.001565  0.0063    1.0949   
    11. B(N  11,C   0)                1.3411 -0.000190  0.0018    1.3429   
    12. B(H  12,N  11)                1.0171  0.000854 -0.0013    1.0158   
    13. B(H  13,N  11)                1.0129 -0.002873  0.0044    1.0173   
    14. B(N  14,C   4)                1.4859 -0.001747  0.0107    1.4965   
    15. B(N  14,H   9)               12.5280 -0.000241  0.0247   12.5527   
    16. B(O  15,N  14)                1.2161  0.001285 -0.0041    1.2120   
    17. B(O  15,H   9)               12.0225  0.000443  0.0354   12.0578   
    18. B(O  16,H   9)               12.0546 -0.000256  0.0095   12.0641   
    19. B(O  16,N  14)                1.2163  0.001772  0.0002    1.2165   
    20. A(C   1,C   0,C   5)          119.33 -0.000010    0.09    119.42   
    21. A(C   5,C   0,N  11)          120.07  0.000017    0.07    120.13   
    22. A(C   1,C   0,N  11)          120.60 -0.000007   -0.16    120.45   
    23. A(C   0,C   1,H   6)          119.39  0.000104   -0.21    119.18   
    24. A(C   2,C   1,H   6)          120.39 -0.000564    0.63    121.02   
    25. A(C   0,C   1,C   2)          120.21  0.000457   -0.42    119.80   
    26. A(C   3,C   2,H   7)          119.46  0.000106   -0.10    119.37   
    27. A(C   1,C   2,H   7)          119.95  0.000200   -0.19    119.76   
    28. A(C   1,C   2,C   3)          120.59 -0.000306    0.28    120.87   
    29. A(C   2,C   3,C   4)          118.63 -0.000279    0.09    118.72   
    30. A(C   2,C   3,H   8)          122.16  0.000150   -0.10    122.06   
    31. A(C   4,C   3,H   8)          119.21  0.000129    0.02    119.22   
    32. A(C   3,C   4,C   5)          122.84  0.000127    0.05    122.89   
    33. A(C   5,C   4,N  14)          118.33 -0.000458    0.31    118.64   
    34. A(C   3,C   4,N  14)          118.83  0.000331   -0.36    118.47   
    35. A(C   4,C   5,H  10)          120.26  0.001025   -1.56    118.71   
    36. A(C   0,C   5,H  10)          121.34 -0.001035    1.66    123.00   
    37. A(C   0,C   5,C   4)          118.40  0.000009   -0.10    118.30   
    38. A(N  14,H   9,O  16)            5.23  0.000084   -0.04      5.19   
    39. A(N  14,H   9,O  15)            5.17  0.000074   -0.01      5.15   
    40. A(O  15,H   9,O  16)           10.37  0.000158   -0.06     10.31   
    41. A(H  12,N  11,H  13)          117.09 -0.000308    0.14    117.22   
    42. A(C   0,N  11,H  13)          121.61  0.000459   -0.42    121.19   
    43. A(C   0,N  11,H  12)          121.30 -0.000151    0.29    121.59   
    44. A(H   9,N  14,O  16)           64.51  0.000277   -0.76     63.75   
    45. A(H   9,N  14,O  15)           62.88  0.000546    0.47     63.35   
    46. A(C   4,N  14,H   9)          171.83 -0.000138   -0.76    171.07   
    47. A(O  15,N  14,O  16)          126.84  0.000831   -0.48    126.37   
    48. A(C   4,N  14,O  16)          116.68 -0.000253   -0.37    116.30   
    49. A(C   4,N  14,O  15)          116.48 -0.000578    0.85    117.33   
    50. A(H   9,O  15,N  14)          111.95 -0.000620   -0.46    111.50   
    51. A(H   9,O  16,N  14)          110.27 -0.000361    0.80    111.06   
    52. D(C   2,C   1,C   0,C   5)     -0.36 -0.000119    1.10      0.74   
    53. D(H   6,C   1,C   0,N  11)      0.32  0.000132   -1.01     -0.69   
    54. D(C   2,C   1,C   0,N  11)    179.67 -0.000131    0.83    180.50   
    55. D(H   6,C   1,C   0,C   5)   -179.72  0.000144   -0.74   -180.46   
    56. D(H   7,C   2,C   1,H   6)     -0.39 -0.000159    0.96      0.57   
    57. D(C   3,C   2,C   1,C   0)      0.35  0.000179   -1.24     -0.89   
    58. D(H   7,C   2,C   1,C   0)   -179.74  0.000102   -0.90   -180.65   
    59. D(C   3,C   2,C   1,H   6)    179.70 -0.000082    0.62    180.32   
    60. D(H   8,C   3,C   2,H   7)      0.21  0.000027   -0.46     -0.25   
    61. D(H   8,C   3,C   2,C   1)   -179.88 -0.000049   -0.13   -180.01   
    62. D(C   4,C   3,C   2,C   1)      0.05 -0.000067    0.38      0.44   
    63. D(C   4,C   3,C   2,H   7)   -179.86  0.000009    0.05   -179.81   
    64. D(N  14,C   4,C   3,C   2)    179.81 -0.000039   -0.36    179.45   
    65. D(C   5,C   4,C   3,H   8)    179.47 -0.000133    1.15    180.62   
    66. D(C   5,C   4,C   3,C   2)     -0.47 -0.000115    0.66      0.19   
    67. D(N  14,C   4,C   3,H   8)     -0.25 -0.000057    0.14     -0.11   
    68. D(H  10,C   5,C   4,N  14)      0.15  0.000104   -0.09      0.06   
    69. D(C   0,C   5,C   4,N  14)   -179.83  0.000101    0.23   -179.60   
    70. D(C   0,C   5,C   4,C   3)      0.45  0.000174   -0.78     -0.33   
    71. D(H  10,C   5,C   0,N  11)     -0.04 -0.000050    0.49      0.45   
    72. D(C   4,C   5,C   0,N  11)    179.94 -0.000046    0.16    180.10   
    73. D(H  10,C   5,C   4,C   3)   -179.58  0.000177   -1.09   -180.67   
    74. D(C   4,C   5,C   0,C   1)     -0.03 -0.000058   -0.10     -0.13   
    75. D(H  10,C   5,C   0,C   1)    180.00 -0.000062    0.23    180.22   
    76. D(H  13,N  11,C   0,C   5)      0.30  0.000036   -0.17      0.14   
    77. D(H  13,N  11,C   0,C   1)   -179.73  0.000048    0.10   -179.63   
    78. D(H  12,N  11,C   0,C   5)    179.99 -0.000007    0.25    180.24   
    79. D(H  12,N  11,C   0,C   1)     -0.04  0.000005    0.51      0.47   
    80. D(O  16,N  14,C   4,C   3)      1.97 -0.000041   -2.86     -0.89   
    81. D(O  15,N  14,C   4,C   5)      2.43  0.000148   -4.22     -1.79   
    82. D(O  15,N  14,C   4,C   3)   -177.83  0.000078   -3.25   -181.09   
    83. D(O  16,N  14,H   9,O  15)    172.12  0.000130   -1.28    170.83   
    84. D(O  15,N  14,H   9,O  16)   -172.12 -0.000130    1.28   -170.83   
    85. D(C   4,N  14,H   9,O  16)    100.32  0.000039   -7.65     92.68   
    86. D(C   4,N  14,H   9,O  15)    -87.56  0.000169   -8.93    -96.49   
    87. D(H   9,N  14,C   4,C   5)     85.87  0.000011    4.29     90.16   
    88. D(H   9,N  14,C   4,C   3)    -94.39 -0.000060    5.25    -89.14   
    89. D(O  16,N  14,C   4,C   5)   -177.77  0.000030   -3.82   -181.59   
    90. D(H   9,O  15,N  14,O  16)     -8.90  0.000028   -1.32    -10.22   
    91. D(H   9,O  15,N  14,C   4)    170.88 -0.000107   -0.88    170.00   
    92. D(N  14,O  15,H   9,O  16)      3.98 -0.000062    0.63      4.61   
    93. D(H   9,O  16,N  14,O  15)      8.78 -0.000005    1.41     10.19   
    94. D(H   9,O  16,N  14,C   4)   -171.00  0.000131    0.97   -170.03   
    95. D(N  14,O  16,H   9,O  15)     -3.94  0.000067   -0.65     -4.59   
    ----------------------------------------------------------------------------




    ----------------------------------------------------------------------------
                                   ERROR !!!
       The optimization did not converge but reached the maximum 
       number of optimization cycles.
       As a subsequent Frequencies calculation has been requested
       ORCA will abort at this point of the run.
       Please restart the calculation with the lowest energy geometry and/or
       a larger maxiter for the geometry optimization.
    ----------------------------------------------------------------------------


[file orca_main/run.cpp, line 12331]: ORCA finished with error return - aborting the run
