
                                 *****************
                                 * O   R   C   A *
                                 *****************

                                            #,                                       
                                            ###                                      
                                            ####                                     
                                            #####                                    
                                            ######                                   
                                           ########,                                 
                                     ,,################,,,,,                         
                               ,,#################################,,                 
                          ,,##########################################,,             
                       ,#########################################, ''#####,          
                    ,#############################################,,   '####,        
                  ,##################################################,,,,####,       
                ,###########''''           ''''###############################       
              ,#####''   ,,,,##########,,,,          '''####'''          '####       
            ,##' ,,,,###########################,,,                        '##       
           ' ,,###''''                  '''############,,,                           
         ,,##''                                '''############,,,,        ,,,,,,###''
      ,#''                                            '''#######################'''  
     '                                                          ''''####''''         
             ,#######,   #######,   ,#######,      ##                                
            ,#'     '#,  ##    ##  ,#'     '#,    #''#        ######   ,####,        
            ##       ##  ##   ,#'  ##            #'  '#       #        #'  '#        
            ##       ##  #######   ##           ,######,      #####,   #    #        
            '#,     ,#'  ##    ##  '#,     ,#' ,#      #,         ##   #,  ,#        
             '#######'   ##     ##  '#######'  #'      '#     #####' # '####'        



                  #######################################################
                  #                        -***-                        #
                  #          Department of theory and spectroscopy      #
                  #    Directorship and core code : Frank Neese         #
                  #        Max Planck Institute fuer Kohlenforschung    #
                  #                Kaiser Wilhelm Platz 1               #
                  #                 D-45470 Muelheim/Ruhr               #
                  #                      Germany                        #
                  #                                                     #
                  #                  All rights reserved                #
                  #                        -***-                        #
                  #######################################################



                         Program Version 5.0.4 -  RELEASE  -

 With contributions from (in alphabetic order):
   Daniel Aravena         : Magnetic Suceptibility
   Michael Atanasov       : Ab Initio Ligand Field Theory (pilot matlab implementation)
   Alexander A. Auer      : GIAO ZORA, VPT2 properties, NMR spectrum
   Ute Becker             : Parallelization
   Giovanni Bistoni       : ED, misc. LED, open-shell LED, HFLD
   Martin Brehm           : Molecular dynamics
   Dmytro Bykov           : SCF Hessian
   Vijay G. Chilkuri      : MRCI spin determinant printing, contributions to CSF-ICE
   Dipayan Datta          : RHF DLPNO-CCSD density
   Achintya Kumar Dutta   : EOM-CC, STEOM-CC
   Dmitry Ganyushin       : Spin-Orbit,Spin-Spin,Magnetic field MRCI
   Miquel Garcia          : C-PCM and meta-GGA Hessian, CC/C-PCM, Gaussian charge scheme
   Yang Guo               : DLPNO-NEVPT2, F12-NEVPT2, CIM, IAO-localization
   Andreas Hansen         : Spin unrestricted coupled pair/coupled cluster methods
   Benjamin Helmich-Paris : MC-RPA, TRAH-SCF, COSX integrals
   Lee Huntington         : MR-EOM, pCC
   Robert Izsak           : Overlap fitted RIJCOSX, COSX-SCS-MP3, EOM
   Marcus Kettner         : VPT2
   Christian Kollmar      : KDIIS, OOCD, Brueckner-CCSD(T), CCSD density, CASPT2, CASPT2-K
   Simone Kossmann        : Meta GGA functionals, TD-DFT gradient, OOMP2, MP2 Hessian
   Martin Krupicka        : Initial AUTO-CI
   Lucas Lang             : DCDCAS
   Marvin Lechner         : AUTO-CI (C++ implementation), FIC-MRCC
   Dagmar Lenk            : GEPOL surface, SMD
   Dimitrios Liakos       : Extrapolation schemes; Compound Job, initial MDCI parallelization
   Dimitrios Manganas     : Further ROCIS development; embedding schemes
   Dimitrios Pantazis     : SARC Basis sets
   Anastasios Papadopoulos: AUTO-CI, single reference methods and gradients
   Taras Petrenko         : DFT Hessian,TD-DFT gradient, ASA, ECA, R-Raman, ABS, FL, XAS/XES, NRVS
   Peter Pinski           : DLPNO-MP2, DLPNO-MP2 Gradient
   Christoph Reimann      : Effective Core Potentials
   Marius Retegan         : Local ZFS, SOC
   Christoph Riplinger    : Optimizer, TS searches, QM/MM, DLPNO-CCSD(T), (RO)-DLPNO pert. Triples
   Tobias Risthaus        : Range-separated hybrids, TD-DFT gradient, RPA, STAB
   Michael Roemelt        : Original ROCIS implementation
   Masaaki Saitow         : Open-shell DLPNO-CCSD energy and density
   Barbara Sandhoefer     : DKH picture change effects
   Avijit Sen             : IP-ROCIS
   Kantharuban Sivalingam : CASSCF convergence, NEVPT2, FIC-MRCI
   Bernardo de Souza      : ESD, SOC TD-DFT
   Georgi Stoychev        : AutoAux, RI-MP2 NMR, DLPNO-MP2 response
   Willem Van den Heuvel  : Paramagnetic NMR
   Boris Wezisla          : Elementary symmetry handling
   Frank Wennmohs         : Technical directorship


 We gratefully acknowledge several colleagues who have allowed us to
 interface, adapt or use parts of their codes:
   Stefan Grimme, W. Hujo, H. Kruse, P. Pracht,  : VdW corrections, initial TS optimization,
                  C. Bannwarth, S. Ehlert          DFT functionals, gCP, sTDA/sTD-DF
   Ed Valeev, F. Pavosevic, A. Kumar             : LibInt (2-el integral package), F12 methods
   Garnet Chan, S. Sharma, J. Yang, R. Olivares  : DMRG
   Ulf Ekstrom                                   : XCFun DFT Library
   Mihaly Kallay                                 : mrcc  (arbitrary order and MRCC methods)
   Jiri Pittner, Ondrej Demel                    : Mk-CCSD
   Frank Weinhold                                : gennbo (NPA and NBO analysis)
   Christopher J. Cramer and Donald G. Truhlar   : smd solvation model
   Lars Goerigk                                  : TD-DFT with DH, B97 family of functionals
   V. Asgeirsson, H. Jonsson                     : NEB implementation
   FAccTs GmbH                                   : IRC, NEB, NEB-TS, DLPNO-Multilevel, CI-OPT
                                                   MM, QMMM, 2- and 3-layer-ONIOM, Crystal-QMMM,
                                                   LR-CPCM, SF, NACMEs, symmetry and pop. for TD-DFT,
                                                   nearIR, NL-DFT gradient (VV10), updates on ESD,
                                                   ML-optimized integration grids
   S Lehtola, MJT Oliveira, MAL Marques          : LibXC Library
   Liviu Ungur et al                             : ANISO software


 Your calculation uses the libint2 library for the computation of 2-el integrals
 For citations please refer to: http://libint.valeyev.net

 Your ORCA version has been built with support for libXC version: 5.1.0
 For citations please refer to: https://tddft.org/programs/libxc/

 This ORCA versions uses:
   CBLAS   interface :  Fast vector & matrix operations
   LAPACKE interface :  Fast linear algebra routines
   Shared memory     :  Shared parallel matrices


Your calculation utilizes the atom-pairwise dispersion correction
based on tight binding partial charges (D4)
Cite in your paper:
E.Caldeweyher, C.Bannwarth, S.Grimme, J.Chem.Phys., (2017), 147, 034112.
E.Caldeweyher, S.Ehlert, A.Hansen, H.Neugebauer, S.Grimme, J.Chem.Phys., (2018), in progress.
   

================================================================================

----- Orbital basis set information -----
Your calculation utilizes the basis: def2-TZVP
   F. Weigend and R. Ahlrichs, Phys. Chem. Chem. Phys. 7, 3297 (2005).

----- AuxJ basis set information -----
Your calculation utilizes the auxiliary basis: def2/J
   F. Weigend, Phys. Chem. Chem. Phys. 8, 1057 (2006).

================================================================================
                                        WARNINGS
                       Please study these warnings very carefully!
================================================================================


WARNING: Geometry Optimization
  ===> : Switching off AutoStart
         For restart on a previous wavefunction, please use MOREAD

INFO   : the flag for use of the SHARK integral package has been found!

================================================================================
                                       INPUT FILE
================================================================================
NAME = educts_optfreq_4.inp
|  1> !B3LYP/G DEF2-TZVP COPT FREQ D4 SOSCF
|  2> 
|  3> * xyz 1 1
|  4>   C   -6.16196786031982      0.63456608817732      1.80070023325944
|  5>   C   -6.68663240979867      0.95323835159622      0.52241945150008
|  6>   C   -6.43720693649871      0.13433192426003     -0.56857118959928
|  7>   C   -5.65273248392365     -1.02838495250979     -0.41242745904751
|  8>   C   -5.12145358034595     -1.36104899655133      0.85020689849794
|  9>   C   -5.37211140807765     -0.54315939541428      1.93905485374930
| 10>   C   -6.41875943958409      1.50394195272794      2.98496331682346
| 11>   H   -5.46854083243818      1.91188530568113      3.37779338428848
| 12>   H   -6.85508833985482      0.91748342841729      3.81366562772367
| 13>   H   -7.08767204005009      2.34360498303608      2.75346819334671
| 14>   H   -7.29248887323711      1.85490186109546      0.40645095628016
| 15>   H   -6.84669516712151      0.38458861291414     -1.54966993355801
| 16>   H   -5.45720456424413     -1.67233900292957     -1.27341556636919
| 17>   H   -4.51624111614581     -2.26280300524188      0.96580553706305
| 18>   H   -4.96551131607386     -0.79633868957753      2.92139255657198
| 19>   N   -8.62528405824465     -0.88389905300117    -13.51212481752855
| 20>   O   -8.33027882321737     -0.94643480462231    -12.39466074174088
| 21>   O   -8.70463075082231     -0.30098460805779    -14.50810130126064
| 22> **                         ****END OF INPUT****
================================================================================

                       *****************************
                       * Geometry Optimization Run *
                       *****************************

Geometry optimization settings:
Update method            Update   .... BFGS
Choice of coordinates    CoordSys .... Cartesian
Initial Hessian          InHess   .... Unit Matrix

Convergence Tolerances:
Energy Change            TolE     ....  5.0000e-06 Eh
Max. Gradient            TolMAXG  ....  3.0000e-04 Eh/bohr
RMS Gradient             TolRMSG  ....  1.0000e-04 Eh/bohr
Max. Displacement        TolMAXD  ....  4.0000e-03 bohr
RMS Displacement         TolRMSD  ....  2.0000e-03 bohr
Strict Convergence                ....  False
------------------------------------------------------------------------------
                        ORCA OPTIMIZATION COORDINATE SETUP
------------------------------------------------------------------------------

The optimization will be done in cartesian displacement coordinates
Initial hessian                         ....done
Number of atoms                         .... 18
Number of degrees of freedom            .... 54

         *************************************************************
         *                GEOMETRY OPTIMIZATION CYCLE   1            *
         *************************************************************
---------------------------------
CARTESIAN COORDINATES (ANGSTROEM)
---------------------------------
  C     -6.161968    0.634566    1.800700
  C     -6.686632    0.953238    0.522419
  C     -6.437207    0.134332   -0.568571
  C     -5.652732   -1.028385   -0.412427
  C     -5.121454   -1.361049    0.850207
  C     -5.372111   -0.543159    1.939055
  C     -6.418759    1.503942    2.984963
  H     -5.468541    1.911885    3.377793
  H     -6.855088    0.917483    3.813666
  H     -7.087672    2.343605    2.753468
  H     -7.292489    1.854902    0.406451
  H     -6.846695    0.384589   -1.549670
  H     -5.457205   -1.672339   -1.273416
  H     -4.516241   -2.262803    0.965806
  H     -4.965511   -0.796339    2.921393
  N     -8.625284   -0.883899  -13.512125
  O     -8.330279   -0.946435  -12.394661
  O     -8.704631   -0.300985  -14.508101

----------------------------
CARTESIAN COORDINATES (A.U.)
----------------------------
  NO LB      ZA    FRAG     MASS         X           Y           Z
   0 C     6.0000    0    12.011  -11.644432    1.199156    3.402830
   1 C     6.0000    0    12.011  -12.635904    1.801359    0.987230
   2 C     6.0000    0    12.011  -12.164558    0.253851   -1.074444
   3 C     6.0000    0    12.011  -10.682116   -1.943366   -0.779375
   4 C     6.0000    0    12.011   -9.678145   -2.572010    1.606658
   5 C     6.0000    0    12.011  -10.151819   -1.026423    3.664283
   6 C     6.0000    0    12.011  -12.129697    2.842038    5.640763
   7 H     1.0000    0     1.008  -10.334045    3.612940    6.383104
   8 H     1.0000    0     1.008  -12.954240    1.733792    7.206784
   9 H     1.0000    0     1.008  -13.393759    4.428772    5.203301
  10 H     1.0000    0     1.008  -13.780807    3.505257    0.768081
  11 H     1.0000    0     1.008  -12.938379    0.726767   -2.928452
  12 H     1.0000    0     1.008  -10.312622   -3.160263   -2.406407
  13 H     1.0000    0     1.008   -8.534459   -4.276078    1.825108
  14 H     1.0000    0     1.008   -9.383457   -1.504862    5.520632
  15 N     7.0000    0    14.007  -16.299425   -1.670327  -25.534215
  16 O     8.0000    0    15.999  -15.741946   -1.788503  -23.422514
  17 O     8.0000    0    15.999  -16.449368   -0.568778  -27.416338

--------------------------------
INTERNAL COORDINATES (ANGSTROEM)
--------------------------------
 C      0   0   0     0.000000000000     0.00000000     0.00000000
 C      1   0   0     1.418036197693     0.00000000     0.00000000
 C      2   1   0     1.386752098405   120.65935588     0.00000000
 C      3   2   1     1.411273030586   119.96383406   359.91736281
 C      4   3   2     1.409669521710   120.19996691     0.00000000
 C      5   4   3     1.384688635003   119.78292488     0.03190732
 C      1   2   3     1.491387059129   121.40612242   179.94550952
 H      7   1   2     1.106186531508   110.42981592   242.18739297
 H      7   1   2     1.105017660510   110.73956896   125.60257620
 H      7   1   2     1.098211301946   112.53111283     3.50140084
 H      2   1   3     1.092477839838   119.10123424   179.97742028
 H      3   2   1     1.092183027991   120.26254164   179.84097762
 H      4   3   2     1.092798475189   119.85281727   180.00831127
 H      5   4   3     1.092156336909   119.90064638   179.90992527
 H      6   5   4     1.092891006550   120.17368378   179.84408001
 N     12   3   2    12.160294661448   156.15075604   175.78261920
 O     16  12   3     1.157438883743    11.06855858     1.18847494
 O     16  12   3     1.156742972269   143.55967928   221.86874951

---------------------------
INTERNAL COORDINATES (A.U.)
---------------------------
 C      0   0   0     0.000000000000     0.00000000     0.00000000
 C      1   0   0     2.679700061627     0.00000000     0.00000000
 C      2   1   0     2.620581681625   120.65935588     0.00000000
 C      3   2   1     2.666919527996   119.96383406   359.91736281
 C      4   3   2     2.663889335368   120.19996691     0.00000000
 C      5   4   3     2.616682300909   119.78292488     0.03190732
 C      1   2   3     2.818313101428   121.40612242   179.94550952
 H      7   1   2     2.090389597582   110.42981592   242.18739297
 H      7   1   2     2.088180751511   110.73956896   125.60257620
 H      7   1   2     2.075318597855   112.53111283     3.50140084
 H      2   1   3     2.064483924671   119.10123424   179.97742028
 H      3   2   1     2.063926811020   120.26254164   179.84097762
 H      4   3   2     2.065089837674   119.85281727   180.00831127
 H      5   4   3     2.063876372185   119.90064638   179.90992527
 H      6   5   4     2.065264696605   120.17368378   179.84408001
 N     12   3   2    22.979626617921   156.15075604   175.78261920
 O     16  12   3     2.187242507026    11.06855858     1.18847494
 O     16  12   3     2.185927424927   143.55967928   221.86874951

---------------------
BASIS SET INFORMATION
---------------------
There are 4 groups of distinct atoms

 Group   1 Type C   : 11s6p2d1f contracted to 5s3p2d1f pattern {62111/411/11/1}
 Group   2 Type H   : 5s1p contracted to 3s1p pattern {311/1}
 Group   3 Type N   : 11s6p2d1f contracted to 5s3p2d1f pattern {62111/411/11/1}
 Group   4 Type O   : 11s6p2d1f contracted to 5s3p2d1f pattern {62111/411/11/1}

Atom   0C    basis set group =>   1
Atom   1C    basis set group =>   1
Atom   2C    basis set group =>   1
Atom   3C    basis set group =>   1
Atom   4C    basis set group =>   1
Atom   5C    basis set group =>   1
Atom   6C    basis set group =>   1
Atom   7H    basis set group =>   2
Atom   8H    basis set group =>   2
Atom   9H    basis set group =>   2
Atom  10H    basis set group =>   2
Atom  11H    basis set group =>   2
Atom  12H    basis set group =>   2
Atom  13H    basis set group =>   2
Atom  14H    basis set group =>   2
Atom  15N    basis set group =>   3
Atom  16O    basis set group =>   4
Atom  17O    basis set group =>   4
---------------------------------
AUXILIARY/J BASIS SET INFORMATION
---------------------------------
There are 4 groups of distinct atoms

 Group   1 Type C   : 12s5p4d2f1g contracted to 6s4p3d1f1g pattern {711111/2111/211/2/1}
 Group   2 Type H   : 5s2p1d contracted to 3s1p1d pattern {311/2/1}
 Group   3 Type N   : 12s5p4d2f1g contracted to 6s4p3d1f1g pattern {711111/2111/211/2/1}
 Group   4 Type O   : 12s5p4d2f1g contracted to 6s4p3d1f1g pattern {711111/2111/211/2/1}

Atom   0C    basis set group =>   1
Atom   1C    basis set group =>   1
Atom   2C    basis set group =>   1
Atom   3C    basis set group =>   1
Atom   4C    basis set group =>   1
Atom   5C    basis set group =>   1
Atom   6C    basis set group =>   1
Atom   7H    basis set group =>   2
Atom   8H    basis set group =>   2
Atom   9H    basis set group =>   2
Atom  10H    basis set group =>   2
Atom  11H    basis set group =>   2
Atom  12H    basis set group =>   2
Atom  13H    basis set group =>   2
Atom  14H    basis set group =>   2
Atom  15N    basis set group =>   3
Atom  16O    basis set group =>   4
Atom  17O    basis set group =>   4
------------------------------------------------------------------------------
                           ORCA GTO INTEGRAL CALCULATION
                           -- RI-GTO INTEGRALS CHOSEN --
------------------------------------------------------------------------------
------------------------------------------------------------------------------
                   ___                                                        
                  /   \      - P O W E R E D   B Y -                         
                 /     \                                                     
                 |  |  |   _    _      __       _____    __    __             
                 |  |  |  | |  | |    /  \     |  _  \  |  |  /  |          
                  \  \/   | |  | |   /    \    | | | |  |  | /  /          
                 / \  \   | |__| |  /  /\  \   | |_| |  |  |/  /          
                |  |  |   |  __  | /  /__\  \  |    /   |      \           
                |  |  |   | |  | | |   __   |  |    \   |  |\   \          
                \     /   | |  | | |  |  |  |  | |\  \  |  | \   \       
                 \___/    |_|  |_| |__|  |__|  |_| \__\ |__|  \__/        
                                                                              
                      - O R C A' S   B I G   F R I E N D -                    
                                      &                                       
                       - I N T E G R A L  F E E D E R -                       
                                                                              
 v1 FN, 2020, v2 2021                                                         
------------------------------------------------------------------------------


Reading SHARK input file educts_optfreq_4.SHARKINP.tmp ... ok
----------------------
SHARK INTEGRAL PACKAGE
----------------------

Number of atoms                             ...     18
Number of basis functions                   ...    358
Number of shells                            ...    142
Maximum angular momentum                    ...      3
Integral batch strategy                     ... SHARK/LIBINT Hybrid
RI-J (if used) integral strategy            ... SPLIT-RIJ (Revised 2003 algorithm where possible)
Printlevel                                  ...      1
Contraction scheme used                     ... SEGMENTED contraction
Coulomb Range Separation                    ... NOT USED
Exchange Range Separation                   ... NOT USED
Finite Nucleus Model                        ... NOT USED
Auxiliary Coulomb fitting basis             ... AVAILABLE
   # of basis functions in Aux-J            ...    578
   # of shells in Aux-J                     ...    190
   Maximum angular momentum in Aux-J        ...      4
Auxiliary J/K fitting basis                 ... NOT available
Auxiliary Correlation fitting basis         ... NOT available
Auxiliary 'external' fitting basis          ... NOT available
Integral threshold                          ...     2.500000e-11
Primitive cut-off                           ...     2.500000e-12
Primitive pair pre-selection threshold      ...     2.500000e-12

Calculating pre-screening integrals         ... done (  1.1 sec) Dimension = 142
Organizing shell pair data                  ... done (  0.4 sec)
Shell pair information
Total number of shell pairs                 ...     10153
Shell pairs after pre-screening             ...      6190
Total number of primitive shell pairs       ...     31120
Primitive shell pairs kept                  ...     14657
          la=0 lb=0:   1708 shell pairs
          la=1 lb=0:   1739 shell pairs
          la=1 lb=1:    462 shell pairs
          la=2 lb=0:    885 shell pairs
          la=2 lb=1:    451 shell pairs
          la=2 lb=2:    125 shell pairs
          la=3 lb=0:    441 shell pairs
          la=3 lb=1:    229 shell pairs
          la=3 lb=2:    116 shell pairs
          la=3 lb=3:     34 shell pairs

Calculating one electron integrals          ... done (  0.2 sec)
Calculating RI/J V-Matrix + Cholesky decomp.... done (  0.1 sec)
Calculating Nuclear repulsion               ... done (  0.0 sec) ENN=    375.610143458068 Eh

SHARK setup successfully completed in   3.0 seconds

Maximum memory used throughout the entire GTOINT-calculation: 91.8 MB
-------------------------------------------------------------------------------
                                 ORCA SCF
-------------------------------------------------------------------------------

------------
SCF SETTINGS
------------
Hamiltonian:
 Density Functional     Method          .... DFT(GTOs)
 Exchange Functional    Exchange        .... B88
   X-Alpha parameter    XAlpha          ....  0.666667
   Becke's b parameter  XBeta           ....  0.004200
 Correlation Functional Correlation     .... LYP
 LDA part of GGA corr.  LDAOpt          .... VWN-3
 Gradients option       PostSCFGGA      .... off
 Hybrid DFT is turned on
   Fraction HF Exchange ScalHFX         ....  0.200000
   Scaling of DF-GGA-X  ScalDFX         ....  0.720000
   Scaling of DF-GGA-C  ScalDFC         ....  0.810000
   Scaling of DF-LDA-C  ScalLDAC        ....  1.000000
   Perturbative correction              ....  0.000000
   Density functional embedding theory  .... OFF
   NL short-range parameter             ....  4.800000
 RI-approximation to the Coulomb term is turned on
   Number of AuxJ basis functions       .... 578
   RIJ-COSX (HFX calculated with COS-X)).... on


General Settings:
 Integral files         IntName         .... educts_optfreq_4
 Hartree-Fock type      HFTyp           .... RHF
 Total Charge           Charge          ....    1
 Multiplicity           Mult            ....    1
 Number of Electrons    NEL             ....   72
 Basis Dimension        Dim             ....  358
 Nuclear Repulsion      ENuc            ....    375.6101434581 Eh

Convergence Acceleration:
 DIIS                   CNVDIIS         .... on
   Start iteration      DIISMaxIt       ....    12
   Startup error        DIISStart       ....  0.200000
   # of expansion vecs  DIISMaxEq       ....     5
   Bias factor          DIISBfac        ....   1.050
   Max. coefficient     DIISMaxC        ....  10.000
 Trust-Rad. Augm. Hess. CNVTRAH         .... auto
   Auto Start mean grad. ratio tolernc. ....  1.125000
   Auto Start start iteration           ....    20
   Auto Start num. interpolation iter.  ....    10
   Max. Number of Micro iterations      ....    16
   Max. Number of Macro iterations      .... Maxiter - #DIIS iter
   Number of Davidson start vectors     ....     2
   Converg. threshold I  (grad. norm)   ....   1.000e-05
   Converg. threshold II (energy diff.) ....   1.000e-08
   Grad. Scal. Fac. for Micro threshold ....   0.100
   Minimum threshold for Micro iter.    ....   0.010
   NR start threshold (gradient norm)   ....   0.001
   Initial trust radius                 ....   0.400
   Minimum AH scaling param. (alpha)    ....   1.000
   Maximum AH scaling param. (alpha)    .... 1000.000
   Orbital update algorithm             .... Taylor
   White noise on init. David. guess    .... on
   Maximum white noise                  ....   0.010
   Quad. conv. algorithm                .... NR
 SOSCF                  CNVSOSCF        .... on
   Start iteration      SOSCFMaxIt      ....   150
   Startup grad/error   SOSCFStart      ....  0.003300
 Level Shifting         CNVShift        .... on
   Level shift para.    LevelShift      ....    0.2500
   Turn off err/grad.   ShiftErr        ....    0.0010
 Zerner damping         CNVZerner       .... off
 Static damping         CNVDamp         .... on
   Fraction old density DampFac         ....    0.7000
   Max. Damping (<1)    DampMax         ....    0.9800
   Min. Damping (>=0)   DampMin         ....    0.0000
   Turn off err/grad.   DampErr         ....    0.1000
 Fernandez-Rico         CNVRico         .... off

SCF Procedure:
 Maximum # iterations   MaxIter         ....   125
 SCF integral mode      SCFMode         .... Direct
   Integral package                     .... SHARK and LIBINT hybrid scheme
 Reset frequency        DirectResetFreq ....    20
 Integral Threshold     Thresh          ....  2.500e-11 Eh
 Primitive CutOff       TCut            ....  2.500e-12 Eh

Convergence Tolerance:
 Convergence Check Mode ConvCheckMode   .... Total+1el-Energy
 Convergence forced     ConvForced      .... 0
 Energy Change          TolE            ....  1.000e-08 Eh
 1-El. energy change                    ....  1.000e-05 Eh
 Orbital Gradient       TolG            ....  1.000e-05
 Orbital Rotation angle TolX            ....  1.000e-05
 DIIS Error             TolErr          ....  5.000e-07


Diagonalization of the overlap matrix:
Smallest eigenvalue                        ... 9.621e-06
Time for diagonalization                   ...    0.074 sec
Threshold for overlap eigenvalues          ... 1.000e-08
Number of eigenvalues below threshold      ... 0
Time for construction of square roots      ...    0.049 sec
Total time needed                          ...    0.124 sec

Time for model grid setup =    3.284 sec

------------------------------
INITIAL GUESS: MODEL POTENTIAL
------------------------------
Loading Hartree-Fock densities                     ... done
Calculating cut-offs                               ... done
Initializing the effective Hamiltonian             ... done
Setting up the integral package (SHARK)            ... done
Starting the Coulomb interaction                   ... done (   4.1 sec)
Reading the grid                                   ... done
Mapping shells                                     ... done
Starting the XC term evaluation                    ... done (   3.8 sec)
  promolecular density results
     # of electrons  =     72.991648958
     EX              =    -61.285378937
     EC              =     -2.469329874
     EX+EC           =    -63.754708811
Transforming the Hamiltonian                       ... done (   0.1 sec)
Diagonalizing the Hamiltonian                      ... done (   0.1 sec)
Back transforming the eigenvectors                 ... done (   0.0 sec)
Now organizing SCF variables                       ... done
                      ------------------
                      INITIAL GUESS DONE (  11.4 sec)
                      ------------------
-------------------
DFT GRID GENERATION
-------------------

General Integration Accuracy     IntAcc      ... 4.388
Radial Grid Type                 RadialGrid  ... OptM3 with GC (2021)
Angular Grid (max. ang.)         AngularGrid ... 4 (Lebedev-302)
Angular grid pruning method      GridPruning ... 4 (adaptive)
Weight generation scheme         WeightScheme... Becke
Basis function cutoff            BFCut       ... 1.0000e-11
Integration weight cutoff        WCut        ... 1.0000e-14
Angular grids for H and He will be reduced by one unit
Partially contracted basis set               ... off
Rotationally invariant grid construction     ... off

Total number of grid points                  ...    86376
Total number of batches                      ...     1359
Average number of points per batch           ...       63
Average number of grid points per atom       ...     4799
Time for grid setup =    7.031 sec

--------------------
COSX GRID GENERATION
--------------------

GRIDX 1
-------
General Integration Accuracy     IntAcc      ... 3.816
Radial Grid Type                 RadialGrid  ... OptM3 with GC (2021)
Angular Grid (max. ang.)         AngularGrid ... 1 (Lebedev-50)
Angular grid pruning method      GridPruning ... 4 (adaptive)
Weight generation scheme         WeightScheme... Becke
Basis function cutoff            BFCut       ... 1.0000e-11
Integration weight cutoff        WCut        ... 1.0000e-14
Angular grids for H and He will be reduced by one unit
Partially contracted basis set               ... on
Rotationally invariant grid construction     ... off

Total number of grid points                  ...    11032
Total number of batches                      ...      179
Average number of points per batch           ...       61
Average number of grid points per atom       ...      613
UseSFitting                                  ... on

GRIDX 2
-------
General Integration Accuracy     IntAcc      ... 4.020
Radial Grid Type                 RadialGrid  ... OptM3 with GC (2021)
Angular Grid (max. ang.)         AngularGrid ... 2 (Lebedev-110)
Angular grid pruning method      GridPruning ... 4 (adaptive)
Weight generation scheme         WeightScheme... Becke
Basis function cutoff            BFCut       ... 1.0000e-11
Integration weight cutoff        WCut        ... 1.0000e-14
Angular grids for H and He will be reduced by one unit
Partially contracted basis set               ... on
Rotationally invariant grid construction     ... off

Total number of grid points                  ...    24390
Total number of batches                      ...      390
Average number of points per batch           ...       62
Average number of grid points per atom       ...     1355
UseSFitting                                  ... on

GRIDX 3
-------
General Integration Accuracy     IntAcc      ... 4.338
Radial Grid Type                 RadialGrid  ... OptM3 with GC (2021)
Angular Grid (max. ang.)         AngularGrid ... 3 (Lebedev-194)
Angular grid pruning method      GridPruning ... 4 (adaptive)
Weight generation scheme         WeightScheme... Becke
Basis function cutoff            BFCut       ... 1.0000e-11
Integration weight cutoff        WCut        ... 1.0000e-14
Angular grids for H and He will be reduced by one unit
Partially contracted basis set               ... on
Rotationally invariant grid construction     ... off

Total number of grid points                  ...    53819
Total number of batches                      ...      850
Average number of points per batch           ...       63
Average number of grid points per atom       ...     2990
UseSFitting                                  ... on

Time for X-Grid setup             =   10.233 sec

--------------
SCF ITERATIONS
--------------
ITER       Energy         Delta-E        Max-DP      RMS-DP      [F,P]     Damp
               ***  Starting incremental Fock matrix formation  ***
  0   -476.1300317581   0.000000000000 0.16192492  0.00188527  0.1982336 0.7000
  1   -476.1595590864  -0.029527328263 0.04108178  0.00072296  0.1342943 0.7000
                               ***Turning on DIIS***
  2   -476.3358226305  -0.176263544153 0.08966690  0.00155981  0.0332516 0.0000
  3   -476.3780982987  -0.042275668226 0.00438737  0.00009599  0.1312299 0.7000
  4   -476.3912064908  -0.013108192054 0.00461001  0.00010584  0.1163339 0.7000
  5   -476.4032740910  -0.012067600250 0.00487168  0.00011774  0.1016564 0.7000
  6   -476.4141931868  -0.010919095794 0.02002848  0.00048360  0.0862146 0.0000
  7   -476.4439131467  -0.029719959820 0.01214222  0.00031619  0.0317908 0.0000
  8   -476.4479714311  -0.004058284482 0.00497563  0.00013374  0.0081286 0.0000
  9   -476.4481276503  -0.000156219160 0.00250739  0.00005617  0.0077856 0.0000
                      *** Initiating the SOSCF procedure ***
                           *** Shutting down DIIS ***
                      *** Re-Reading the Fockian *** 
                      *** Removing any level shift *** 
ITER      Energy       Delta-E        Grad      Rot      Max-DP    RMS-DP
 10   -476.44823527  -0.0001076217  0.000501  0.000501  0.000811  0.000023
               *** Restarting incremental Fock matrix formation ***
 11   -476.44825223  -0.0000169544  0.000447  0.001594  0.001060  0.000019
 12   -476.44824118   0.0000110495  0.001865  0.001268  0.000785  0.000008
 13   -476.44825309  -0.0000119180  0.000118  0.000232  0.000172  0.000003
 14   -476.44825279   0.0000003003  0.000289  0.000172  0.000130  0.000001
 15   -476.44825318  -0.0000003871  0.000016  0.000019  0.000036  0.000001
 16   -476.44825318  -0.0000000007  0.000013  0.000014  0.000015  0.000000
                  ***Gradient check signals convergence***
              ***Rediagonalizing the Fockian in SOSCF/NRSCF***

               *****************************************************
               *                     SUCCESS                       *
               *           SCF CONVERGED AFTER  17 CYCLES          *
               *****************************************************

Old exchange energy                            =    -12.307671562 Eh
New exchange energy                            =    -12.307662313 Eh
Exchange energy change after final integration =      0.000009249 Eh
Total energy after final integration           =   -476.448243934 Eh
Final COS-X integration done in                =    75.616 sec

----------------
TOTAL SCF ENERGY
----------------

Total Energy       :         -476.44824393 Eh          -12964.81584 eV

Components:
Nuclear Repulsion  :          375.61014346 Eh           10220.87162 eV
Electronic Energy  :         -852.05838739 Eh          -23185.68746 eV
One Electron Energy:        -1378.67008551 Eh          -37515.52028 eV
Two Electron Energy:          526.61169812 Eh           14329.83282 eV
Max COSX asymmetry :            0.00000073 Eh               0.00002 eV

Virial components:
Potential Energy   :         -950.12481188 Eh          -25854.21053 eV
Kinetic Energy     :          473.67656794 Eh           12889.39470 eV
Virial Ratio       :            2.00585141


DFT components:
N(Alpha)           :       35.999956715002 electrons
N(Beta)            :       35.999956715002 electrons
N(Total)           :       71.999913430003 electrons
E(X)               :      -49.049877664702 Eh       
E(C)               :       -3.147904183761 Eh       
E(XC)              :      -52.197781848463 Eh       
DFET-embed. en.    :        0.000000000000 Eh       

---------------
SCF CONVERGENCE
---------------

  Last Energy change         ...   -8.4680e-10  Tolerance :   1.0000e-08
  Last MAX-Density change    ...    1.2212e-15  Tolerance :   1.0000e-07
  Last RMS-Density change    ...    1.3488e-17  Tolerance :   5.0000e-09
  Last Orbital Gradient      ...    2.1044e-06  Tolerance :   1.0000e-05
  Last Orbital Rotation      ...    8.1160e-06  Tolerance :   1.0000e-05

             **** THE GBW FILE WAS UPDATED (educts_optfreq_4.gbw) ****
             **** DENSITY educts_optfreq_4.scfp WAS UPDATED ****
             **** ENERGY FILE WAS UPDATED (educts_optfreq_4.en.tmp) ****
             **** THE GBW FILE WAS UPDATED (educts_optfreq_4.gbw) ****
             **** DENSITY educts_optfreq_4.scfp WAS UPDATED ****
----------------
ORBITAL ENERGIES
----------------

  NO   OCC          E(Eh)            E(eV) 
   0   2.0000     -19.659893      -534.9729 
   1   2.0000     -19.659710      -534.9679 
   2   2.0000     -14.988119      -407.8474 
   3   2.0000     -10.224397      -278.2200 
   4   2.0000     -10.215098      -277.9670 
   5   2.0000     -10.214078      -277.9392 
   6   2.0000     -10.213579      -277.9256 
   7   2.0000     -10.211746      -277.8757 
   8   2.0000     -10.210894      -277.8526 
   9   2.0000     -10.205562      -277.7075 
  10   2.0000      -1.690786       -46.0086 
  11   2.0000      -1.567630       -42.6574 
  12   2.0000      -1.023910       -27.8620 
  13   2.0000      -0.962574       -26.1930 
  14   2.0000      -0.960732       -26.1428 
  15   2.0000      -0.942646       -25.6507 
  16   2.0000      -0.889485       -24.2041 
  17   2.0000      -0.806336       -21.9415 
  18   2.0000      -0.783307       -21.3149 
  19   2.0000      -0.757720       -20.6186 
  20   2.0000      -0.752822       -20.4853 
  21   2.0000      -0.718378       -19.5481 
  22   2.0000      -0.639119       -17.3913 
  23   2.0000      -0.620397       -16.8819 
  24   2.0000      -0.546395       -14.8682 
  25   2.0000      -0.497707       -13.5433 
  26   2.0000      -0.493052       -13.4166 
  27   2.0000      -0.460386       -12.5277 
  28   2.0000      -0.454798       -12.3757 
  29   2.0000      -0.442752       -12.0479 
  30   2.0000      -0.422822       -11.5056 
  31   2.0000      -0.391421       -10.6511 
  32   2.0000      -0.383789       -10.4434 
  33   2.0000      -0.375551       -10.2193 
  34   2.0000      -0.295069        -8.0292 
  35   2.0000      -0.277432        -7.5493 
  36   0.0000      -0.503114       -13.6904 
  37   0.0000      -0.438525       -11.9329 
  38   0.0000      -0.211440        -5.7536 
  39   0.0000      -0.054003        -1.4695 
  40   0.0000      -0.049957        -1.3594 
  41   0.0000      -0.047715        -1.2984 
  42   0.0000      -0.014479        -0.3940 
  43   0.0000       0.006869         0.1869 
  44   0.0000       0.008687         0.2364 
  45   0.0000       0.011146         0.3033 
  46   0.0000       0.019694         0.5359 
  47   0.0000       0.035913         0.9772 
  48   0.0000       0.055205         1.5022 
  49   0.0000       0.064257         1.7485 
  50   0.0000       0.071380         1.9423 
  51   0.0000       0.078377         2.1328 
  52   0.0000       0.093718         2.5502 
  53   0.0000       0.116166         3.1610 
  54   0.0000       0.119989         3.2651 
  55   0.0000       0.120057         3.2669 
  56   0.0000       0.121521         3.3068 
  57   0.0000       0.123608         3.3636 
  58   0.0000       0.150105         4.0846 
  59   0.0000       0.157581         4.2880 
  60   0.0000       0.173945         4.7333 
  61   0.0000       0.184288         5.0147 
  62   0.0000       0.190125         5.1736 
  63   0.0000       0.191726         5.2171 
  64   0.0000       0.198319         5.3965 
  65   0.0000       0.206904         5.6301 
  66   0.0000       0.217522         5.9191 
  67   0.0000       0.219376         5.9695 
  68   0.0000       0.233504         6.3540 
  69   0.0000       0.246852         6.7172 
  70   0.0000       0.253840         6.9073 
  71   0.0000       0.261653         7.1199 
  72   0.0000       0.263427         7.1682 
  73   0.0000       0.275448         7.4953 
  74   0.0000       0.287369         7.8197 
  75   0.0000       0.289317         7.8727 
  76   0.0000       0.310892         8.4598 
  77   0.0000       0.312749         8.5103 
  78   0.0000       0.316597         8.6150 
  79   0.0000       0.319740         8.7006 
  80   0.0000       0.331806         9.0289 
  81   0.0000       0.366716         9.9789 
  82   0.0000       0.371800        10.1172 
  83   0.0000       0.378552        10.3009 
  84   0.0000       0.382102        10.3975 
  85   0.0000       0.388188        10.5631 
  86   0.0000       0.403942        10.9918 
  87   0.0000       0.413224        11.2444 
  88   0.0000       0.425077        11.5669 
  89   0.0000       0.433919        11.8075 
  90   0.0000       0.452521        12.3137 
  91   0.0000       0.456674        12.4267 
  92   0.0000       0.459345        12.4994 
  93   0.0000       0.472457        12.8562 
  94   0.0000       0.472754        12.8643 
  95   0.0000       0.479199        13.0397 
  96   0.0000       0.509825        13.8731 
  97   0.0000       0.521879        14.2010 
  98   0.0000       0.534339        14.5401 
  99   0.0000       0.578118        15.7314 
 100   0.0000       0.598446        16.2846 
 101   0.0000       0.605468        16.4756 
 102   0.0000       0.605946        16.4886 
 103   0.0000       0.611616        16.6429 
 104   0.0000       0.623965        16.9789 
 105   0.0000       0.632631        17.2148 
 106   0.0000       0.655984        17.8502 
 107   0.0000       0.676122        18.3982 
 108   0.0000       0.704310        19.1653 
 109   0.0000       0.714794        19.4505 
 110   0.0000       0.737435        20.0666 
 111   0.0000       0.753086        20.4925 
 112   0.0000       0.774927        21.0868 
 113   0.0000       0.777476        21.1562 
 114   0.0000       0.795412        21.6443 
 115   0.0000       0.800896        21.7935 
 116   0.0000       0.837723        22.7956 
 117   0.0000       0.851039        23.1579 
 118   0.0000       0.890756        24.2387 
 119   0.0000       0.895259        24.3612 
 120   0.0000       0.904853        24.6223 
 121   0.0000       0.921461        25.0742 
 122   0.0000       0.959523        26.1099 
 123   0.0000       0.961038        26.1512 
 124   0.0000       0.973998        26.5038 
 125   0.0000       1.016915        27.6717 
 126   0.0000       1.044365        28.4186 
 127   0.0000       1.057782        28.7837 
 128   0.0000       1.067837        29.0573 
 129   0.0000       1.078244        29.3405 
 130   0.0000       1.079528        29.3754 
 131   0.0000       1.087863        29.6023 
 132   0.0000       1.156594        31.4725 
 133   0.0000       1.162892        31.6439 
 134   0.0000       1.167854        31.7789 
 135   0.0000       1.174005        31.9463 
 136   0.0000       1.185427        32.2571 
 137   0.0000       1.200271        32.6610 
 138   0.0000       1.206474        32.8298 
 139   0.0000       1.218846        33.1665 
 140   0.0000       1.243781        33.8450 
 141   0.0000       1.260962        34.3125 
 142   0.0000       1.270527        34.5728 
 143   0.0000       1.273854        34.6633 
 144   0.0000       1.299590        35.3636 
 145   0.0000       1.336222        36.3604 
 146   0.0000       1.367189        37.2031 
 147   0.0000       1.397987        38.0412 
 148   0.0000       1.413606        38.4662 
 149   0.0000       1.421777        38.6885 
 150   0.0000       1.438292        39.1379 
 151   0.0000       1.464645        39.8550 
 152   0.0000       1.467867        39.9427 
 153   0.0000       1.471600        40.0443 
 154   0.0000       1.483660        40.3724 
 155   0.0000       1.501084        40.8466 
 156   0.0000       1.506611        40.9970 
 157   0.0000       1.513524        41.1851 
 158   0.0000       1.525463        41.5100 
 159   0.0000       1.562140        42.5080 
 160   0.0000       1.569978        42.7213 
 161   0.0000       1.579046        42.9680 
 162   0.0000       1.595444        43.4143 
 163   0.0000       1.623950        44.1899 
 164   0.0000       1.626399        44.2566 
 165   0.0000       1.637466        44.5577 
 166   0.0000       1.647809        44.8392 
 167   0.0000       1.654579        45.0234 
 168   0.0000       1.666545        45.3490 
 169   0.0000       1.684331        45.8330 
 170   0.0000       1.694668        46.1142 
 171   0.0000       1.699552        46.2472 
 172   0.0000       1.767208        48.0882 
 173   0.0000       1.799671        48.9715 
 174   0.0000       1.801924        49.0328 
 175   0.0000       1.812987        49.3339 
 176   0.0000       1.831709        49.8433 
 177   0.0000       1.851515        50.3823 
 178   0.0000       1.903728        51.8031 
 179   0.0000       1.913361        52.0652 
 180   0.0000       1.950504        53.0759 
 181   0.0000       1.962830        53.4113 
 182   0.0000       2.012905        54.7739 
 183   0.0000       2.017864        54.9089 
 184   0.0000       2.018777        54.9337 
 185   0.0000       2.031236        55.2727 
 186   0.0000       2.031519        55.2804 
 187   0.0000       2.043656        55.6107 
 188   0.0000       2.086634        56.7802 
 189   0.0000       2.098322        57.0983 
 190   0.0000       2.106914        57.3321 
 191   0.0000       2.162584        58.8469 
 192   0.0000       2.181919        59.3730 
 193   0.0000       2.193212        59.6803 
 194   0.0000       2.210768        60.1581 
 195   0.0000       2.232121        60.7391 
 196   0.0000       2.286330        62.2142 
 197   0.0000       2.290771        62.3350 
 198   0.0000       2.322560        63.2001 
 199   0.0000       2.354864        64.0791 
 200   0.0000       2.418451        65.8094 
 201   0.0000       2.435205        66.2653 
 202   0.0000       2.459157        66.9171 
 203   0.0000       2.467646        67.1481 
 204   0.0000       2.480511        67.4981 
 205   0.0000       2.482123        67.5420 
 206   0.0000       2.487267        67.6820 
 207   0.0000       2.505450        68.1767 
 208   0.0000       2.507096        68.2216 
 209   0.0000       2.507565        68.2343 
 210   0.0000       2.550285        69.3968 
 211   0.0000       2.557879        69.6034 
 212   0.0000       2.562230        69.7218 
 213   0.0000       2.595990        70.6405 
 214   0.0000       2.614259        71.1376 
 215   0.0000       2.629368        71.5487 
 216   0.0000       2.634193        71.6800 
 217   0.0000       2.643839        71.9425 
 218   0.0000       2.655636        72.2635 
 219   0.0000       2.664998        72.5183 
 220   0.0000       2.687940        73.1426 
 221   0.0000       2.705631        73.6240 
 222   0.0000       2.725623        74.1680 
 223   0.0000       2.727244        74.2121 
 224   0.0000       2.735193        74.4284 
 225   0.0000       2.741161        74.5908 
 226   0.0000       2.772332        75.4390 
 227   0.0000       2.784117        75.7597 
 228   0.0000       2.787671        75.8564 
 229   0.0000       2.804352        76.3103 
 230   0.0000       2.850184        77.5575 
 231   0.0000       2.855698        77.7075 
 232   0.0000       2.906243        79.0829 
 233   0.0000       2.937264        79.9270 
 234   0.0000       2.950641        80.2910 
 235   0.0000       2.970579        80.8336 
 236   0.0000       2.985525        81.2403 
 237   0.0000       2.990160        81.3664 
 238   0.0000       3.052954        83.0751 
 239   0.0000       3.061423        83.3055 
 240   0.0000       3.068312        83.4930 
 241   0.0000       3.086525        83.9886 
 242   0.0000       3.100086        84.3576 
 243   0.0000       3.121508        84.9406 
 244   0.0000       3.133255        85.2602 
 245   0.0000       3.144908        85.5773 
 246   0.0000       3.173876        86.3655 
 247   0.0000       3.176771        86.4443 
 248   0.0000       3.191994        86.8586 
 249   0.0000       3.199928        87.0745 
 250   0.0000       3.228199        87.8438 
 251   0.0000       3.251828        88.4867 
 252   0.0000       3.264880        88.8419 
 253   0.0000       3.277522        89.1859 
 254   0.0000       3.300730        89.8174 
 255   0.0000       3.311329        90.1058 
 256   0.0000       3.318594        90.3035 
 257   0.0000       3.320397        90.3526 
 258   0.0000       3.328421        90.5709 
 259   0.0000       3.340269        90.8933 
 260   0.0000       3.353488        91.2531 
 261   0.0000       3.356112        91.3244 
 262   0.0000       3.358612        91.3925 
 263   0.0000       3.417117        92.9845 
 264   0.0000       3.421913        93.1150 
 265   0.0000       3.423943        93.1702 
 266   0.0000       3.442041        93.6627 
 267   0.0000       3.450359        93.8890 
 268   0.0000       3.498897        95.2098 
 269   0.0000       3.507094        95.4329 
 270   0.0000       3.554660        96.7272 
 271   0.0000       3.563622        96.9711 
 272   0.0000       3.634214        98.8920 
 273   0.0000       3.650089        99.3240 
 274   0.0000       3.650162        99.3260 
 275   0.0000       3.686887       100.3253 
 276   0.0000       3.717090       101.1472 
 277   0.0000       3.729738       101.4913 
 278   0.0000       3.769820       102.5820 
 279   0.0000       3.811385       103.7131 
 280   0.0000       3.826015       104.1112 
 281   0.0000       3.838946       104.4630 
 282   0.0000       3.851673       104.8094 
 283   0.0000       3.852872       104.8420 
 284   0.0000       3.856745       104.9474 
 285   0.0000       3.866829       105.2218 
 286   0.0000       3.898021       106.0705 
 287   0.0000       3.947034       107.4043 
 288   0.0000       3.986821       108.4869 
 289   0.0000       3.994200       108.6877 
 290   0.0000       4.027038       109.5813 
 291   0.0000       4.050970       110.2325 
 292   0.0000       4.061037       110.5064 
 293   0.0000       4.099231       111.5458 
 294   0.0000       4.125169       112.2515 
 295   0.0000       4.129841       112.3787 
 296   0.0000       4.158836       113.1677 
 297   0.0000       4.164310       113.3166 
 298   0.0000       4.185788       113.9011 
 299   0.0000       4.191587       114.0589 
 300   0.0000       4.222109       114.8894 
 301   0.0000       4.229064       115.0787 
 302   0.0000       4.254991       115.7842 
 303   0.0000       4.284447       116.5857 
 304   0.0000       4.373525       119.0097 
 305   0.0000       4.389330       119.4397 
 306   0.0000       4.437515       120.7509 
 307   0.0000       4.478045       121.8538 
 308   0.0000       4.536940       123.4564 
 309   0.0000       4.601069       125.2015 
 310   0.0000       4.621747       125.7641 
 311   0.0000       4.622335       125.7801 
 312   0.0000       4.644876       126.3935 
 313   0.0000       4.659164       126.7823 
 314   0.0000       4.674625       127.2030 
 315   0.0000       4.675966       127.2395 
 316   0.0000       4.714752       128.2949 
 317   0.0000       4.718194       128.3886 
 318   0.0000       4.791175       130.3745 
 319   0.0000       4.820418       131.1702 
 320   0.0000       4.909120       133.5839 
 321   0.0000       4.958749       134.9344 
 322   0.0000       4.976198       135.4092 
 323   0.0000       4.995197       135.9262 
 324   0.0000       5.124889       139.4553 
 325   0.0000       5.143589       139.9642 
 326   0.0000       5.260210       143.1376 
 327   0.0000       5.287355       143.8762 
 328   0.0000       5.338443       145.2664 
 329   0.0000       5.361597       145.8965 
 330   0.0000       5.391861       146.7200 
 331   0.0000       5.594490       152.2338 
 332   0.0000       5.729572       155.9096 
 333   0.0000       5.782199       157.3416 
 334   0.0000       5.822303       158.4329 
 335   0.0000       5.828555       158.6031 
 336   0.0000       5.854783       159.3167 
 337   0.0000       5.910424       160.8308 
 338   0.0000       6.109183       166.2393 
 339   0.0000       6.120073       166.5357 
 340   0.0000       6.152007       167.4046 
 341   0.0000       6.466221       175.9548 
 342   0.0000       6.596459       179.4988 
 343   0.0000       6.647656       180.8919 
 344   0.0000       6.889870       187.4829 
 345   0.0000       6.894657       187.6132 
 346   0.0000       7.247003       197.2010 
 347   0.0000       7.430877       202.2044 
 348   0.0000      21.869703       595.1049 
 349   0.0000      22.327776       607.5697 
 350   0.0000      22.481970       611.7655 
 351   0.0000      22.496632       612.1645 
 352   0.0000      22.603348       615.0684 
 353   0.0000      22.683102       617.2386 
 354   0.0000      23.060324       627.5033 
 355   0.0000      31.801561       865.3645 
 356   0.0000      43.468108      1182.8273 
 357   0.0000      43.530679      1184.5300 

                    ********************************
                    * MULLIKEN POPULATION ANALYSIS *
                    ********************************

-----------------------
MULLIKEN ATOMIC CHARGES
-----------------------
   0 C :    0.169334
   1 C :   -0.180271
   2 C :   -0.094483
   3 C :   -0.120914
   4 C :   -0.097175
   5 C :   -0.180910
   6 C :   -0.357485
   7 H :    0.121771
   8 H :    0.121479
   9 H :    0.110894
  10 H :    0.099447
  11 H :    0.093790
  12 H :    0.098231
  13 H :    0.108196
  14 H :    0.108097
  15 N :    0.754674
  16 O :    0.122582
  17 O :    0.122744
Sum of atomic charges:    1.0000000

--------------------------------
MULLIKEN REDUCED ORBITAL CHARGES
--------------------------------
  0 C s       :     3.174381  s :     3.174381
      pz      :     0.817727  p :     2.522188
      px      :     0.872999
      py      :     0.831462
      dz2     :     0.031122  d :     0.124408
      dxz     :     0.024758
      dyz     :     0.028765
      dx2y2   :     0.019478
      dxy     :     0.020285
      f0      :     0.002100  f :     0.009689
      f+1     :     0.001173
      f-1     :     0.001633
      f+2     :     0.001071
      f-2     :     0.001670
      f+3     :     0.000691
      f-3     :     0.001350
  1 C s       :     3.225422  s :     3.225422
      pz      :     0.910145  p :     2.867973
      px      :     0.981918
      py      :     0.975910
      dz2     :     0.024814  d :     0.079642
      dxz     :     0.020110
      dyz     :     0.018906
      dx2y2   :     0.005460
      dxy     :     0.010353
      f0      :     0.001620  f :     0.007234
      f+1     :     0.001055
      f-1     :     0.001340
      f+2     :     0.000954
      f-2     :     0.001121
      f+3     :     0.000675
      f-3     :     0.000470
  2 C s       :     3.194071  s :     3.194071
      pz      :     0.939245  p :     2.813626
      px      :     0.951392
      py      :     0.922990
      dz2     :     0.017558  d :     0.079525
      dxz     :     0.013931
      dyz     :     0.016521
      dx2y2   :     0.018162
      dxy     :     0.013353
      f0      :     0.001334  f :     0.007260
      f+1     :     0.000988
      f-1     :     0.000906
      f+2     :     0.000606
      f-2     :     0.001328
      f+3     :     0.000648
      f-3     :     0.001451
  3 C s       :     3.209397  s :     3.209397
      pz      :     0.937620  p :     2.828974
      px      :     0.955160
      py      :     0.936194
      dz2     :     0.014467  d :     0.075412
      dxz     :     0.013444
      dyz     :     0.022220
      dx2y2   :     0.015418
      dxy     :     0.009864
      f0      :     0.001338  f :     0.007131
      f+1     :     0.000855
      f-1     :     0.001303
      f+2     :     0.000628
      f-2     :     0.001035
      f+3     :     0.000589
      f-3     :     0.001382
  4 C s       :     3.196218  s :     3.196218
      pz      :     0.904168  p :     2.814124
      px      :     0.957683
      py      :     0.952273
      dz2     :     0.024576  d :     0.079559
      dxz     :     0.020604
      dyz     :     0.018863
      dx2y2   :     0.005774
      dxy     :     0.009742
      f0      :     0.001603  f :     0.007275
      f+1     :     0.001020
      f-1     :     0.001283
      f+2     :     0.001039
      f-2     :     0.001142
      f+3     :     0.000693
      f-3     :     0.000495
  5 C s       :     3.246424  s :     3.246424
      pz      :     0.967270  p :     2.852029
      px      :     0.964411
      py      :     0.920348
      dz2     :     0.018583  d :     0.075291
      dxz     :     0.013094
      dyz     :     0.014172
      dx2y2   :     0.016458
      dxy     :     0.012983
      f0      :     0.001356  f :     0.007166
      f+1     :     0.000953
      f-1     :     0.000886
      f+2     :     0.000597
      f-2     :     0.001348
      f+3     :     0.000651
      f-3     :     0.001375
  6 C s       :     3.314716  s :     3.314716
      pz      :     0.962021  p :     2.990702
      px      :     1.041610
      py      :     0.987070
      dz2     :     0.012328  d :     0.048381
      dxz     :     0.013252
      dyz     :     0.008410
      dx2y2   :     0.004799
      dxy     :     0.009592
      f0      :     0.000596  f :     0.003686
      f+1     :     0.000201
      f-1     :     0.000926
      f+2     :     0.000419
      f-2     :     0.001010
      f+3     :     0.000245
      f-3     :     0.000289
  7 H s       :     0.857146  s :     0.857146
      pz      :     0.005542  p :     0.021083
      px      :     0.010099
      py      :     0.005443
  8 H s       :     0.857463  s :     0.857463
      pz      :     0.009260  p :     0.021058
      px      :     0.005603
      py      :     0.006195
  9 H s       :     0.867698  s :     0.867698
      pz      :     0.004348  p :     0.021408
      px      :     0.007466
      py      :     0.009594
 10 H s       :     0.878522  s :     0.878522
      pz      :     0.003648  p :     0.022031
      px      :     0.007545
      py      :     0.010839
 11 H s       :     0.884186  s :     0.884186
      pz      :     0.011802  p :     0.022024
      px      :     0.005806
      py      :     0.004416
 12 H s       :     0.879643  s :     0.879643
      pz      :     0.009857  p :     0.022126
      px      :     0.004811
      py      :     0.007458
 13 H s       :     0.869754  s :     0.869754
      pz      :     0.003671  p :     0.022051
      px      :     0.007480
      py      :     0.010899
 14 H s       :     0.869892  s :     0.869892
      pz      :     0.011800  p :     0.022011
      px      :     0.005781
      py      :     0.004430
 15 N s       :     3.139485  s :     3.139485
      pz      :     0.842940  p :     2.913249
      px      :     1.039810
      py      :     1.030499
      dz2     :     0.032443  d :     0.174472
      dxz     :     0.068192
      dyz     :     0.052606
      dx2y2   :     0.010067
      dxy     :     0.011164
      f0      :     0.005516  f :     0.018120
      f+1     :     0.003665
      f-1     :     0.004829
      f+2     :     0.001671
      f-2     :     0.002024
      f+3     :     0.000218
      f-3     :     0.000197
 16 O s       :     3.941908  s :     3.941908
      pz      :     1.102753  p :     3.877027
      px      :     1.370430
      py      :     1.403844
      dz2     :     0.021828  d :     0.054761
      dxz     :     0.016518
      dyz     :     0.014283
      dx2y2   :     0.001099
      dxy     :     0.001033
      f0      :     0.001314  f :     0.003722
      f+1     :     0.001085
      f-1     :     0.000944
      f+2     :     0.000189
      f-2     :     0.000180
      f+3     :     0.000005
      f-3     :     0.000005
 17 O s       :     3.941791  s :     3.941791
      pz      :     1.244498  p :     3.876921
      px      :     1.414503
      py      :     1.217920
      dz2     :     0.016630  d :     0.054818
      dxz     :     0.011733
      dyz     :     0.018117
      dx2y2   :     0.004334
      dxy     :     0.004004
      f0      :     0.000917  f :     0.003726
      f+1     :     0.000521
      f-1     :     0.001031
      f+2     :     0.000562
      f-2     :     0.000547
      f+3     :     0.000075
      f-3     :     0.000073


                     *******************************
                     * LOEWDIN POPULATION ANALYSIS *
                     *******************************

----------------------
LOEWDIN ATOMIC CHARGES
----------------------
   0 C :   -0.156882
   1 C :   -0.124674
   2 C :   -0.148991
   3 C :   -0.146145
   4 C :   -0.144704
   5 C :   -0.114966
   6 C :   -0.260823
   7 H :    0.132727
   8 H :    0.132072
   9 H :    0.125600
  10 H :    0.142362
  11 H :    0.138748
  12 H :    0.137461
  13 H :    0.142928
  14 H :    0.145285
  15 N :    0.191317
  16 O :    0.403988
  17 O :    0.404695

-------------------------------
LOEWDIN REDUCED ORBITAL CHARGES
-------------------------------
  0 C s       :     2.726100  s :     2.726100
      pz      :     1.006878  p :     2.865999
      px      :     0.894074
      py      :     0.965046
      dz2     :     0.125485  d :     0.509905
      dxz     :     0.099898
      dyz     :     0.140531
      dx2y2   :     0.072171
      dxy     :     0.071819
      f0      :     0.013235  f :     0.054878
      f+1     :     0.006764
      f-1     :     0.008795
      f+2     :     0.005952
      f-2     :     0.010238
      f+3     :     0.004874
      f-3     :     0.005021
  1 C s       :     2.767491  s :     2.767491
      pz      :     1.041676  p :     2.940620
      px      :     0.929414
      py      :     0.969529
      dz2     :     0.130902  d :     0.375224
      dxz     :     0.077685
      dyz     :     0.093363
      dx2y2   :     0.021315
      dxy     :     0.051959
      f0      :     0.009879  f :     0.041340
      f+1     :     0.005085
      f-1     :     0.008295
      f+2     :     0.006685
      f-2     :     0.007269
      f+3     :     0.003042
      f-3     :     0.001086
  2 C s       :     2.772827  s :     2.772827
      pz      :     0.999828  p :     2.951061
      px      :     0.936193
      py      :     1.015040
      dz2     :     0.094520  d :     0.382957
      dxz     :     0.065219
      dyz     :     0.091980
      dx2y2   :     0.068708
      dxy     :     0.062530
      f0      :     0.008511  f :     0.042146
      f+1     :     0.004496
      f-1     :     0.006719
      f+2     :     0.004596
      f-2     :     0.007946
      f+3     :     0.005102
      f-3     :     0.004775
  3 C s       :     2.777113  s :     2.777113
      pz      :     1.010501  p :     2.957213
      px      :     0.953866
      py      :     0.992845
      dz2     :     0.079604  d :     0.371365
      dxz     :     0.063267
      dyz     :     0.122838
      dx2y2   :     0.056658
      dxy     :     0.048997
      f0      :     0.009219  f :     0.040454
      f+1     :     0.005301
      f-1     :     0.006798
      f+2     :     0.003019
      f-2     :     0.006598
      f+3     :     0.004524
      f-3     :     0.004996
  4 C s       :     2.772390  s :     2.772390
      pz      :     1.060928  p :     2.946397
      px      :     0.919246
      py      :     0.966223
      dz2     :     0.133163  d :     0.383454
      dxz     :     0.082763
      dyz     :     0.094674
      dx2y2   :     0.021462
      dxy     :     0.051393
      f0      :     0.010104  f :     0.042464
      f+1     :     0.005156
      f-1     :     0.008376
      f+2     :     0.007151
      f-2     :     0.007519
      f+3     :     0.003048
      f-3     :     0.001110
  5 C s       :     2.768109  s :     2.768109
      pz      :     1.001369  p :     2.934223
      px      :     0.933997
      py      :     0.998858
      dz2     :     0.095762  d :     0.371566
      dxz     :     0.062708
      dyz     :     0.091402
      dx2y2   :     0.062117
      dxy     :     0.059576
      f0      :     0.008558  f :     0.041068
      f+1     :     0.004330
      f-1     :     0.006623
      f+2     :     0.004453
      f-2     :     0.007730
      f+3     :     0.004946
      f-3     :     0.004427
  6 C s       :     2.823830  s :     2.823830
      pz      :     1.040037  p :     3.153393
      px      :     1.063527
      py      :     1.049829
      dz2     :     0.059788  d :     0.257822
      dxz     :     0.055264
      dyz     :     0.060403
      dx2y2   :     0.022023
      dxy     :     0.060343
      f0      :     0.005233  f :     0.025777
      f+1     :     0.003191
      f-1     :     0.004610
      f+2     :     0.004011
      f-2     :     0.003925
      f+3     :     0.002199
      f-3     :     0.002608
  7 H s       :     0.808907  s :     0.808907
      pz      :     0.014617  p :     0.058366
      px      :     0.028743
      py      :     0.015005
  8 H s       :     0.809483  s :     0.809483
      pz      :     0.023759  p :     0.058445
      px      :     0.016092
      py      :     0.018594
  9 H s       :     0.815656  s :     0.815656
      pz      :     0.012789  p :     0.058744
      px      :     0.020934
      py      :     0.025020
 10 H s       :     0.800155  s :     0.800155
      pz      :     0.010678  p :     0.057482
      px      :     0.019699
      py      :     0.027105
 11 H s       :     0.804288  s :     0.804288
      pz      :     0.028913  p :     0.056964
      px      :     0.015548
      py      :     0.012503
 12 H s       :     0.805023  s :     0.805023
      pz      :     0.024817  p :     0.057516
      px      :     0.013344
      py      :     0.019356
 13 H s       :     0.799957  s :     0.799957
      pz      :     0.010841  p :     0.057115
      px      :     0.019284
      py      :     0.026990
 14 H s       :     0.797212  s :     0.797212
      pz      :     0.029311  p :     0.057503
      px      :     0.015671
      py      :     0.012521
 15 N s       :     2.968668  s :     2.968668
      pz      :     1.129550  p :     3.148857
      px      :     0.996052
      py      :     1.023255
      dz2     :     0.182685  d :     0.623408
      dxz     :     0.193190
      dyz     :     0.192779
      dx2y2   :     0.028678
      dxy     :     0.026075
      f0      :     0.020317  f :     0.067750
      f+1     :     0.010537
      f-1     :     0.019378
      f+2     :     0.007066
      f-2     :     0.008149
      f+3     :     0.001162
      f-3     :     0.001141
 16 O s       :     3.493310  s :     3.493310
      pz      :     1.291761  p :     3.972594
      px      :     1.334710
      py      :     1.346124
      dz2     :     0.054433  d :     0.116604
      dxz     :     0.032767
      dyz     :     0.025571
      dx2y2   :     0.001996
      dxy     :     0.001837
      f0      :     0.005309  f :     0.013503
      f+1     :     0.004047
      f-1     :     0.002959
      f+2     :     0.000607
      f-2     :     0.000549
      f+3     :     0.000017
      f-3     :     0.000015
 17 O s       :     3.492700  s :     3.492700
      pz      :     1.364399  p :     3.972312
      px      :     1.356847
      py      :     1.251067
      dz2     :     0.036709  d :     0.116757
      dxz     :     0.021006
      dyz     :     0.043486
      dx2y2   :     0.008582
      dxy     :     0.006975
      f0      :     0.003032  f :     0.013536
      f+1     :     0.001708
      f-1     :     0.004589
      f+2     :     0.002117
      f-2     :     0.001650
      f+3     :     0.000209
      f-3     :     0.000230


                      *****************************
                      * MAYER POPULATION ANALYSIS *
                      *****************************

  NA   - Mulliken gross atomic population
  ZA   - Total nuclear charge
  QA   - Mulliken gross atomic charge
  VA   - Mayer's total valence
  BVA  - Mayer's bonded valence
  FA   - Mayer's free valence

  ATOM       NA         ZA         QA         VA         BVA        FA
  0 C      5.8307     6.0000     0.1693     3.6585     3.6585     0.0000
  1 C      6.1803     6.0000    -0.1803     3.9610     3.9610     0.0000
  2 C      6.0945     6.0000    -0.0945     3.9108     3.9108    -0.0000
  3 C      6.1209     6.0000    -0.1209     3.9115     3.9115     0.0000
  4 C      6.0972     6.0000    -0.0972     3.9139     3.9139    -0.0000
  5 C      6.1809     6.0000    -0.1809     3.9252     3.9252     0.0000
  6 C      6.3575     6.0000    -0.3575     3.8582     3.8582     0.0000
  7 H      0.8782     1.0000     0.1218     0.9588     0.9588     0.0000
  8 H      0.8785     1.0000     0.1215     0.9609     0.9609     0.0000
  9 H      0.8891     1.0000     0.1109     0.9762     0.9762     0.0000
 10 H      0.9006     1.0000     0.0994     0.9738     0.9738     0.0000
 11 H      0.9062     1.0000     0.0938     0.9694     0.9694     0.0000
 12 H      0.9018     1.0000     0.0982     0.9690     0.9690     0.0000
 13 H      0.8918     1.0000     0.1082     0.9687     0.9687    -0.0000
 14 H      0.8919     1.0000     0.1081     0.9714     0.9714    -0.0000
 15 N      6.2453     7.0000     0.7547     4.0517     4.0517     0.0000
 16 O      7.8774     8.0000     0.1226     2.5073     2.5073     0.0000
 17 O      7.8773     8.0000     0.1227     2.5081     2.5081    -0.0000

  Mayer bond orders larger than 0.100000
B(  0-C ,  1-C ) :   1.3895 B(  0-C ,  5-C ) :   1.3439 B(  0-C ,  6-C ) :   0.9062 
B(  1-C ,  2-C ) :   1.4311 B(  1-C , 10-H ) :   0.9616 B(  2-C ,  3-C ) :   1.4031 
B(  2-C , 11-H ) :   0.9710 B(  3-C ,  4-C ) :   1.3915 B(  3-C , 12-H ) :   0.9667 
B(  4-C ,  5-C ) :   1.4460 B(  4-C , 13-H ) :   0.9674 B(  5-C , 14-H ) :   0.9722 
B(  6-C ,  7-H ) :   0.9631 B(  6-C ,  8-H ) :   0.9687 B(  6-C ,  9-H ) :   0.9908 
B( 15-N , 16-O ) :   2.0255 B( 15-N , 17-O ) :   2.0262 B( 16-O , 17-O ) :   0.4819 


-------
TIMINGS
-------

Total SCF time: 0 days 0 hours 11 min 21 sec 

Total time                  ....     681.835 sec
Sum of individual times     ....     677.890 sec  ( 99.4%)

Fock matrix formation       ....     646.692 sec  ( 94.8%)
  Split-RI-J                ....      60.776 sec  (  9.4% of F)
  Chain of spheres X        ....     478.076 sec  ( 73.9% of F)
  XC integration            ....     107.133 sec  ( 16.6% of F)
    Basis function eval.    ....      31.072 sec  ( 29.0% of XC)
    Density eval.           ....      33.967 sec  ( 31.7% of XC)
    XC-Functional eval.     ....       4.326 sec  (  4.0% of XC)
    XC-Potential eval.      ....      33.863 sec  ( 31.6% of XC)
Diagonalization             ....       0.949 sec  (  0.1%)
Density matrix formation    ....       0.094 sec  (  0.0%)
Population analysis         ....       0.124 sec  (  0.0%)
Initial guess               ....       8.086 sec  (  1.2%)
Orbital Transformation      ....       0.000 sec  (  0.0%)
Orbital Orthonormalization  ....       0.000 sec  (  0.0%)
DIIS solution               ....       0.847 sec  (  0.1%)
SOSCF solution              ....       0.550 sec  (  0.1%)
Grid generation             ....      20.548 sec  (  3.0%)

Maximum memory used throughout the entire SCF-calculation: 165.2 MB


-------------------------------------------------------------------------------
                          DFT DISPERSION CORRECTION                            
                                                                               
                                 DFTD4 V2.5                                    
-------------------------------------------------------------------------------
Gaussians B3LYP functional is recognized, using regular B3LYP params
Active option DFTDOPT                   ...         5   

Starting D4
-------------------------   ----------------
Dispersion correction           -0.021402403
-------------------------   ----------------


-------------------------   --------------------
FINAL SINGLE POINT ENERGY      -476.469646337033
-------------------------   --------------------

------------------------------------------------------------------------------
                         ORCA SCF GRADIENT CALCULATION
------------------------------------------------------------------------------

 ... reading COSX grid (gridx3)
Gradient of the Kohn-Sham DFT energy:
Kohn-Sham wavefunction type      ... RKS
Hartree-Fock exchange scaling    ...    0.200
Number of operators              ...    1
Number of atoms                  ...   18
Basis set dimensions             ...  358
Integral neglect threshold       ... 2.5e-11
Integral primitive cutoff        ... 2.5e-12
SHARK Integral package           ... ON

Nuc. rep. gradient       (SHARK) ... done (  0.0 sec)
HCore & Overlap gradient (SHARK) ... done (  2.3 sec)
RI-J gradient            (SHARK) ... done ( 11.9 sec)
COSX-gradient                    ... done ( 84.6 sec)
Exchange-correlation gradient    ... done
Dispersion correction            ... Starting D4


------------------- 
Dispersion Gradient 
------------------- 
   1  :   -0.000056375    0.000181672    0.000239584
   2  :   -0.000221872    0.000251044   -0.000239231
   3  :   -0.000137871    0.000024592   -0.000484663
   4  :    0.000081246   -0.000266884   -0.000356468
   5  :    0.000262439   -0.000432278   -0.000057596
   6  :    0.000214473   -0.000244910    0.000232969
   7  :   -0.000106900    0.000365355    0.000499510
   8  :    0.000017332    0.000112924    0.000129262
   9  :   -0.000054313    0.000062280    0.000148435
  10  :   -0.000046807    0.000108925    0.000105311
  11  :   -0.000117213    0.000151151   -0.000080562
  12  :   -0.000063238    0.000033887   -0.000164530
  13  :    0.000030918   -0.000101736   -0.000136293
  14  :    0.000097643   -0.000148712    0.000009414
  15  :    0.000100049   -0.000097433    0.000152029
  16  :    0.000001459    0.000004134    0.000000147
  17  :    0.000005879   -0.000012884    0.000037028
  18  :   -0.000006847    0.000008874   -0.000034348

  |G| =    0.000985559

done

------------------
CARTESIAN GRADIENT
------------------

   1   C   :   -0.004400801    0.014452129    0.017893098
   2   C   :   -0.005249973    0.001106706   -0.018351647
   3   C   :   -0.009515029    0.015414123    0.002291066
   4   C   :    0.002728910   -0.005641650   -0.003146133
   5   C   :    0.004132867   -0.001020722    0.013906505
   6   C   :    0.010737639   -0.016773941   -0.001309835
   7   C   :   -0.002837073   -0.003366824   -0.012921934
   8   H   :    0.007197430    0.000711594    0.003112880
   9   H   :   -0.000836474   -0.005149214    0.005810243
  10   H   :   -0.003426152    0.004673320   -0.001363489
  11   H   :   -0.003279798    0.005016192   -0.000940997
  12   H   :   -0.002471969    0.001491821   -0.005637004
  13   H   :    0.001235989   -0.004033290   -0.005583259
  14   H   :    0.003551875   -0.005351823    0.000797655
  15   H   :    0.002407625   -0.001589095    0.005486811
  16   N   :   -0.039735062   -0.095319903   -0.023087349
  17   O   :    0.028432545    0.033121479    0.059617790
  18   O   :    0.011271915    0.062215901   -0.036546105

Difference to translation invariance:
           :   -0.0000555371   -0.0000431977    0.0000282968

Difference to rotation invariance:
           :   -0.0002741738    0.0014311985    0.0005399250

Norm of the cartesian gradient     ...    0.1563597920
RMS gradient                       ...    0.0212778726
MAX gradient                       ...    0.0953199034

-------
TIMINGS
-------

Total SCF gradient time            ...      123.916 sec

One electron gradient       ....       2.269 sec  (  1.8%)
RI-J Coulomb gradient       ....      11.917 sec  (  9.6%)
COSX gradient               ....      84.601 sec  ( 68.3%)
XC gradient                 ....      20.598 sec  ( 16.6%)

Maximum memory used throughout the entire SCFGRAD-calculation: 134.4 MB
------------------------------------------------------------------------------
                         ORCA GEOMETRY RELAXATION STEP
------------------------------------------------------------------------------

Reading the OPT-File                    ....done
Number of atoms                         ....  18
Number of degrees of freedom            ....  54
Current Energy                          ....  -476.469646337 Eh
Current gradient norm                   ....     0.156359792 Eh/bohr
# of structures/gradients available     ....   1
# of structures/gradients to be used    ....   1
First structure used                    ....   0
Maximum allowed component of the step   ....  0.300
Transforming the gradients              ....done
Building the approximate hessian        ....(skipped:first point)done
Eigenvalues of the approximate hessian:
  1.000000  1.000000  1.000000  1.000000  1.000000  1.000000
  1.000000  1.000000  1.000000  1.000000  1.000000  1.000000
  1.000000  1.000000  1.000000  1.000000  1.000000  1.000000
  1.000000  1.000000  1.000000  1.000000  1.000000  1.000000
  1.000000  1.000000  1.000000  1.000000  1.000000  1.000000
[...]
      9       0.028752   0.097876   0.041582   0.000070   0.000030  -0.000007
     10      -0.065646  -0.104863  -0.096316  -0.000130  -0.000086  -0.000025
     11      -0.053026   0.122197  -0.079731  -0.000076  -0.000078   0.000031
     12       0.022469  -0.059210  -0.025043   0.000007   0.000163   0.000047
     13       0.018417   0.104605   0.133570   0.000083  -0.000175   0.000078
     14       0.136770   0.031282   0.241837   0.000209   0.000143  -0.000051
     15      -0.047677   0.038963   0.100629   0.000097  -0.000082   0.000334
     16       0.071531  -0.092990  -0.231775  -0.000183   0.000437   0.000177
     17      -0.007743  -0.082587  -0.191505  -0.000100   0.000553  -0.000308
     18      -0.013579  -0.002024   0.008195  -0.000001  -0.020977  -0.069613
     19       0.027876  -0.002491  -0.021546  -0.000010  -0.017951  -0.045586
     20       0.026801  -0.016602  -0.024379  -0.000012  -0.048897   0.029927
     21      -0.006960  -0.005442  -0.002734   0.000003   0.672891   0.501043
     22      -0.056942   0.083912   0.004388  -0.000103   0.288726   0.206540
     23       0.096665  -0.099377  -0.019334  -0.000039   0.260818   0.222616
     24       0.104594  -0.108728  -0.015253   0.000063  -0.230472   0.304838
     25      -0.002392  -0.000012   0.004442  -0.000043  -0.298870   0.425610
     26       0.066624  -0.071669  -0.016364  -0.000052   0.397390  -0.605624
     27      -0.003752   0.011241   0.005085  -0.000013  -0.189058   0.036711
     28       0.003565   0.064241  -0.016571  -0.000055   0.226015  -0.077962
     29      -0.070365   0.172856  -0.001695  -0.000110  -0.073600   0.025103
     30      -0.027103  -0.070297   0.099482  -0.000006   0.002308  -0.001164
     31      -0.142943  -0.002471  -0.014199  -0.000083  -0.003715   0.001050
     32      -0.473697  -0.288103   0.358836  -0.000126   0.000041   0.000005
     33       0.172114  -0.174304   0.178949   0.000099   0.000059   0.000608
     34      -0.356989   0.268600  -0.302000  -0.000342  -0.000173   0.000412
     35      -0.224206  -0.008926  -0.058295  -0.000271  -0.000888   0.000025
     36      -0.034492  -0.370439   0.001285  -0.000183   0.000161  -0.000534
     37      -0.000171   0.429370  -0.056128   0.000084  -0.000766  -0.000275
     38      -0.137748  -0.379476  -0.139163  -0.000364  -0.000773   0.000153
     39      -0.047710  -0.092869  -0.101413  -0.000044   0.000710  -0.000219
     40      -0.110112   0.085117   0.030401  -0.000031  -0.001203   0.000244
     41      -0.471153  -0.153424  -0.326768  -0.000231  -0.000442   0.000080
     42       0.154156  -0.169300  -0.213277  -0.000061  -0.002192  -0.000690
     43      -0.320858   0.299360   0.364244   0.000090   0.000380  -0.001168
     44      -0.204887   0.092180   0.078568   0.000027  -0.006609   0.002595
     45      -0.000844  -0.000226   0.009221   0.139332   0.000241  -0.000012
     46      -0.001987  -0.000522   0.022237  -0.245250   0.000576  -0.000029
     47      -0.000532  -0.000148   0.005137   0.794024   0.000140  -0.000007
     48       0.000814   0.000214  -0.007740  -0.096027  -0.000156   0.000008
     49       0.000111   0.000036  -0.003303   0.021201  -0.000166   0.000008
     50       0.002731   0.000710  -0.023237  -0.364938  -0.000347   0.000017
     51      -0.000072  -0.000015  -0.000332  -0.025942  -0.000055   0.000003
     52       0.001625   0.000422  -0.016167   0.193524  -0.000338   0.000017
     53      -0.002259  -0.000572   0.018735  -0.330136   0.000223  -0.000011
                 48         49         50         51         52         53    
      0      -0.000312  -0.000875  -0.000766  -0.000178  -0.000898  -0.000170
      1      -0.000188   0.001609   0.000595   0.000840   0.000955   0.000647
      2      -0.001586   0.000667  -0.001561   0.001464  -0.001151   0.000999
      3       0.001807  -0.007361   0.035376  -0.025115   0.016504  -0.011101
      4      -0.002628   0.010628  -0.052202   0.037305  -0.025326   0.017170
      5       0.000119  -0.002149   0.007451  -0.004668   0.000994  -0.000319
      6      -0.000083   0.006306  -0.016391  -0.003559   0.019992  -0.018342
      7       0.000107  -0.003811   0.010698   0.000450  -0.011331   0.011683
      8      -0.000073   0.015289  -0.037737  -0.012963   0.050404  -0.042979
      9      -0.000095   0.004300  -0.003828  -0.010990  -0.001672   0.009414
     10       0.000125  -0.014025   0.013321   0.035994   0.001130  -0.031119
     11      -0.000056  -0.018546   0.018643   0.047832  -0.003775  -0.041709
     12      -0.000001  -0.020402  -0.000829   0.014098   0.031889   0.026933
     13       0.000032   0.029764   0.000711  -0.022031  -0.047911  -0.039730
     14       0.000047  -0.005336  -0.001489  -0.000067   0.004782   0.005923
     15       0.000230   0.026420   0.010923   0.011136   0.007454   0.005423
     16      -0.000304  -0.016698  -0.006506  -0.006642  -0.003272  -0.002288
     17       0.000523   0.062992   0.027059   0.027567   0.021462   0.015861
     18      -0.052661   0.000031   0.001543  -0.000715   0.000560  -0.000294
     19       0.064360  -0.000074  -0.001871   0.000857  -0.000687   0.000300
     20      -0.035085   0.000369   0.000968  -0.000231   0.000385  -0.000187
     21       0.153414  -0.002695  -0.004227   0.000243  -0.001431   0.000830
     22       0.082861  -0.002492  -0.002210  -0.000933  -0.000804  -0.000087
     23       0.055092  -0.001781  -0.001511  -0.000760  -0.000383  -0.000048
     24      -0.106730   0.002772   0.002685   0.000665   0.001022  -0.000007
     25      -0.118442   0.001712   0.003217  -0.000721   0.001170  -0.000706
     26       0.169210  -0.004630  -0.004522  -0.001065  -0.001503   0.000032
     27       0.580021   0.001305  -0.017273   0.009012  -0.005501   0.003440
     28      -0.722752  -0.002160   0.022063  -0.011931   0.006924  -0.004625
     29       0.210640  -0.001019  -0.005117   0.001484  -0.001880   0.000404
     30      -0.018348   0.083894  -0.410076   0.285953  -0.184978   0.120899
     31       0.027909  -0.124144   0.607836  -0.424159   0.275213  -0.180103
     32      -0.001008   0.016640  -0.079139   0.054380  -0.033079   0.021008
     33       0.001465  -0.075176   0.189406   0.053932  -0.233608   0.200074
     34      -0.000914   0.046009  -0.117031  -0.030813   0.142353  -0.123621
     35       0.003760  -0.180811   0.452850   0.135261  -0.563376   0.478197
     36       0.000373  -0.049784   0.048045   0.126229  -0.001273  -0.104572
     37      -0.000978   0.163972  -0.159802  -0.416212   0.010213   0.345151
     38      -0.000927   0.218880  -0.215159  -0.556094   0.020883   0.461622
     39       0.000939   0.243037   0.009813  -0.165919  -0.362058  -0.296794
     40      -0.001267  -0.360820  -0.013953   0.248135   0.539056   0.440863
     41       0.000271   0.047445   0.003457  -0.027888  -0.067033  -0.057560
     42      -0.002066  -0.303680  -0.128527  -0.127541  -0.091898  -0.065223
     43       0.000716   0.189840   0.079949   0.079299   0.055915   0.039509
     44      -0.006729  -0.729667  -0.309763  -0.307561  -0.224689  -0.159969
     45       0.000127   0.000041  -0.000016   0.000065  -0.000010   0.000113
     46       0.000306   0.000098  -0.000038   0.000156  -0.000024   0.000267
     47       0.000073   0.000023  -0.000008   0.000037  -0.000007   0.000067
     48      -0.000082  -0.000026   0.000010  -0.000042   0.000007  -0.000073
     49      -0.000088  -0.000028   0.000011  -0.000045   0.000007  -0.000078
     50      -0.000181  -0.000057   0.000022  -0.000091   0.000015  -0.000160
     51      -0.000030  -0.000009   0.000004  -0.000015   0.000002  -0.000026
     52      -0.000179  -0.000058   0.000022  -0.000091   0.000013  -0.000156
     53       0.000116   0.000038  -0.000015   0.000059  -0.000008   0.000100


-----------
IR SPECTRUM
-----------

 Mode   freq       eps      Int      T**2         TX        TY        TZ
       cm**-1   L/(mol*cm) km/mol    a.u.
----------------------------------------------------------------------------
  9:      2.72   0.000000    0.00  0.000000  ( 0.000000  0.000000  0.000000)
 10:      5.03   0.000145    0.73  0.008980  ( 0.059675 -0.027200  0.068407)
 11:     13.59   0.000023    0.12  0.000527  ( 0.001770 -0.003286 -0.022641)
 12:     33.85   0.000221    1.11  0.002034  (-0.030946 -0.028236  0.016703)
 13:    186.02   0.000282    1.43  0.000474  ( 0.018410  0.010967 -0.003816)
 14:    345.73   0.002272   11.48  0.002050  (-0.010829  0.001967 -0.043922)
 15:    384.96   0.000001    0.00  0.000001  ( 0.000693  0.000094  0.000130)
 16:    450.16   0.000742    3.75  0.000514  (-0.018846 -0.011493 -0.005189)
 17:    517.12   0.409826  2071.09  0.247316  ( 0.085213  0.017358  0.489647)
 18:    557.04   1.524357  7703.47  0.853965  (-0.157455 -0.027285 -0.910180)
 19:    566.79   0.214541  1084.20  0.118122  ( 0.054013  0.016537  0.339015)
 20:    646.68   0.005687   28.74  0.002744  (-0.042755 -0.028070  0.011336)
 21:    754.82   0.008944   45.20  0.003698  (-0.050123 -0.031378  0.014168)
 22:    794.58   0.004276   21.61  0.001679  ( 0.007294 -0.000440  0.040325)
 23:    829.00   0.000034    0.17  0.000013  ( 0.002906  0.001786 -0.001017)
 24:    930.06   0.000191    0.96  0.000064  (-0.002539 -0.000889  0.007537)
 25:    991.19   0.030907  156.19  0.009731  ( 0.013125  0.014305  0.096716)
 26:    991.73   0.001746    8.83  0.000550  (-0.003517 -0.003802 -0.022862)
 27:   1009.03   0.000148    0.75  0.000046  (-0.005214 -0.003383 -0.002655)
 28:   1015.91   0.013920   70.35  0.004276  (-0.014793 -0.000304 -0.063695)
 29:   1031.41   0.001313    6.64  0.000397  (-0.002277  0.004293 -0.019330)
 30:   1034.43   0.002277   11.51  0.000687  (-0.018859 -0.013619 -0.012072)
 31:   1108.09   0.004808   24.30  0.001354  ( 0.015099 -0.012163  0.031276)
 32:   1171.34   0.004605   23.27  0.001227  ( 0.003590  0.006550  0.034220)
 33:   1211.56   0.140700  711.04  0.036240  (-0.031556 -0.015550 -0.187090)
 34:   1246.32   0.098963  500.12  0.024779  (-0.022670 -0.019632 -0.154531)
 35:   1322.61   0.733525  3706.93  0.173072  ( 0.071875  0.028670  0.408759)
 36:   1329.80   1.184617  5986.57  0.277994  (-0.096175 -0.026328 -0.517736)
 37:   1372.66   0.000579    2.92  0.000132  ( 0.006608 -0.007825  0.005162)
 38:   1394.61   0.005456   27.57  0.001221  (-0.000338  0.016468  0.030814)
 39:   1428.98   0.000392    1.98  0.000086  (-0.005860  0.004573 -0.005506)
 40:   1456.41   0.002049   10.35  0.000439  ( 0.014824  0.013682 -0.005664)
 41:   1482.64   0.011564   58.44  0.002434  (-0.014843  0.000773 -0.047043)
 42:   1507.04   0.020870  105.47  0.004322  ( 0.005897 -0.030738 -0.057809)
 43:   1522.75   0.002948   14.90  0.000604  (-0.012980  0.014289 -0.015217)
 44:   1656.62   0.194348  982.16  0.036610  ( 0.030063  0.017441  0.188155)
 45:   2053.04   0.069774  352.61  0.010606  ( 0.017012 -0.030831  0.096777)
 46:   3009.44   0.030864  155.97  0.003200  ( 0.006400  0.008715  0.055529)
 47:   3047.51   0.000145    0.73  0.000015  (-0.003225 -0.001762 -0.001139)
 48:   3131.13   0.011785   59.56  0.001175  (-0.002336  0.013936  0.031224)
 49:   3183.82   0.001834    9.27  0.000180  ( 0.001552  0.002252  0.013127)
 50:   3187.07   0.000296    1.50  0.000029  ( 0.000882 -0.002909 -0.004447)
 51:   3194.75   0.003645   18.42  0.000356  ( 0.001143  0.004569  0.018271)
 52:   3203.86   0.000314    1.59  0.000031  ( 0.003180 -0.004216  0.001648)
 53:   3210.81   0.003883   19.62  0.000377  ( 0.004735 -0.001294  0.018796)

* The epsilon (eps) is given for a Dirac delta lineshape.
** The dipole moment derivative (T) already includes vibrational overlap.

The first frequency considered to be a vibration is 9
The total number of vibrations considered is 45


--------------------------
THERMOCHEMISTRY AT 298.15K
--------------------------

Temperature         ... 298.15 K
Pressure            ... 1.00 atm
Total Mass          ... 138.15 AMU

Throughout the following assumptions are being made:
  (1) The electronic state is orbitally nondegenerate
  (2) There are no thermally accessible electronically excited states
  (3) Hindered rotations indicated by low frequency modes are not
      treated as such but are treated as vibrations and this may
      cause some error
  (4) All equations used are the standard statistical mechanics
      equations for an ideal gas
  (5) All vibrations are strictly harmonic

freq.       2.72  E(vib)   ...       0.59 
freq.       5.03  E(vib)   ...       0.59 
freq.      13.59  E(vib)   ...       0.57 
freq.      33.85  E(vib)   ...       0.55 
freq.     186.02  E(vib)   ...       0.37 
freq.     345.73  E(vib)   ...       0.23 
freq.     384.96  E(vib)   ...       0.20 
freq.     450.16  E(vib)   ...       0.17 
freq.     517.12  E(vib)   ...       0.13 
freq.     557.04  E(vib)   ...       0.12 
freq.     566.79  E(vib)   ...       0.11 
freq.     646.68  E(vib)   ...       0.09 
freq.     754.82  E(vib)   ...       0.06 
freq.     794.58  E(vib)   ...       0.05 
freq.     829.00  E(vib)   ...       0.04 
freq.     930.06  E(vib)   ...       0.03 
freq.     991.19  E(vib)   ...       0.02 
freq.     991.73  E(vib)   ...       0.02 
freq.    1009.03  E(vib)   ...       0.02 
freq.    1015.91  E(vib)   ...       0.02 
freq.    1031.41  E(vib)   ...       0.02 
freq.    1034.43  E(vib)   ...       0.02 
freq.    1108.09  E(vib)   ...       0.02 
freq.    1171.34  E(vib)   ...       0.01 
freq.    1211.56  E(vib)   ...       0.01 
freq.    1246.32  E(vib)   ...       0.01 
freq.    1322.61  E(vib)   ...       0.01 
freq.    1329.80  E(vib)   ...       0.01 
freq.    1372.66  E(vib)   ...       0.01 
freq.    1394.61  E(vib)   ...       0.00 
freq.    1428.98  E(vib)   ...       0.00 
freq.    1456.41  E(vib)   ...       0.00 
freq.    1482.64  E(vib)   ...       0.00 
freq.    1507.04  E(vib)   ...       0.00 
freq.    1522.75  E(vib)   ...       0.00 
freq.    1656.62  E(vib)   ...       0.00 
freq.    2053.04  E(vib)   ...       0.00 
freq.    3009.44  E(vib)   ...       0.00 
freq.    3047.51  E(vib)   ...       0.00 
freq.    3131.13  E(vib)   ...       0.00 
freq.    3183.82  E(vib)   ...       0.00 
freq.    3187.07  E(vib)   ...       0.00 
freq.    3194.75  E(vib)   ...       0.00 
freq.    3203.86  E(vib)   ...       0.00 
freq.    3210.81  E(vib)   ...       0.00 

------------
INNER ENERGY
------------

The inner energy is: U= E(el) + E(ZPE) + E(vib) + E(rot) + E(trans)
    E(el)   - is the total energy from the electronic structure calculation
              = E(kin-el) + E(nuc-el) + E(el-el) + E(nuc-nuc)
    E(ZPE)  - the the zero temperature vibrational energy from the frequency calculation
    E(vib)  - the the finite temperature correction to E(ZPE) due to population
              of excited vibrational states
    E(rot)  - is the rotational thermal energy
    E(trans)- is the translational thermal energy

Summary of contributions to the inner energy U:
Electronic energy                ...   -476.52776022 Eh
Zero point energy                ...      0.13560723 Eh      85.09 kcal/mol
Thermal vibrational correction   ...      0.00654420 Eh       4.11 kcal/mol
Thermal rotational correction    ...      0.00141627 Eh       0.89 kcal/mol
Thermal translational correction ...      0.00141627 Eh       0.89 kcal/mol
-----------------------------------------------------------------------
Total thermal energy                   -476.38277624 Eh


Summary of corrections to the electronic energy:
(perhaps to be used in another calculation)
Total thermal correction                  0.00937675 Eh       5.88 kcal/mol
Non-thermal (ZPE) correction              0.13560723 Eh      85.09 kcal/mol
-----------------------------------------------------------------------
Total correction                          0.14498397 Eh      90.98 kcal/mol


--------
ENTHALPY
--------

The enthalpy is H = U + kB*T
                kB is Boltzmann's constant
Total free energy                 ...   -476.38277624 Eh 
Thermal Enthalpy correction       ...      0.00094421 Eh       0.59 kcal/mol
-----------------------------------------------------------------------
Total Enthalpy                    ...   -476.38183204 Eh


Note: Only C1 symmetry has been detected, increase convergence thresholds 
      if your molecule has a higher symmetry. Symmetry factor of 1.0 is   
      used for the rotational entropy correction. 
 

Note: Rotational entropy computed according to Herzberg 
Infrared and Raman Spectra, Chapter V,1, Van Nostrand Reinhold, 1945 
Point Group:  C1, Symmetry Number:   1  
Rotational constants in cm-1:     0.120907     0.002447     0.002401 

Vibrational entropy computed according to the QRRHO of S. Grimme
Chem.Eur.J. 2012 18 9955


-------
ENTROPY
-------

The entropy contributions are T*S = T*(S(el)+S(vib)+S(rot)+S(trans))
     S(el)   - electronic entropy
     S(vib)  - vibrational entropy
     S(rot)  - rotational entropy
     S(trans)- translational entropy
The entropies will be listed as multiplied by the temperature to get
units of energy

Electronic entropy                ...      0.00000000 Eh      0.00 kcal/mol
Vibrational entropy               ...      0.01425761 Eh      8.95 kcal/mol
Rotational entropy                ...      0.01619435 Eh     10.16 kcal/mol
Translational entropy             ...      0.01932890 Eh     12.13 kcal/mol
-----------------------------------------------------------------------
Final entropy term                ...      0.04978086 Eh     31.24 kcal/mol

In case the symmetry of your molecule has not been determined correctly
or in case you have a reason to use a different symmetry number we print 
out the resulting rotational entropy values for sn=1,12 :
 --------------------------------------------------------
|  sn= 1 | S(rot)=       0.01619435 Eh     10.16 kcal/mol|
|  sn= 2 | S(rot)=       0.01553990 Eh      9.75 kcal/mol|
|  sn= 3 | S(rot)=       0.01515706 Eh      9.51 kcal/mol|
|  sn= 4 | S(rot)=       0.01488544 Eh      9.34 kcal/mol|
|  sn= 5 | S(rot)=       0.01467475 Eh      9.21 kcal/mol|
|  sn= 6 | S(rot)=       0.01450261 Eh      9.10 kcal/mol|
|  sn= 7 | S(rot)=       0.01435706 Eh      9.01 kcal/mol|
|  sn= 8 | S(rot)=       0.01423098 Eh      8.93 kcal/mol|
|  sn= 9 | S(rot)=       0.01411978 Eh      8.86 kcal/mol|
|  sn=10 | S(rot)=       0.01402030 Eh      8.80 kcal/mol|
|  sn=11 | S(rot)=       0.01393031 Eh      8.74 kcal/mol|
|  sn=12 | S(rot)=       0.01384815 Eh      8.69 kcal/mol|
 --------------------------------------------------------


-------------------
GIBBS FREE ENERGY
-------------------

The Gibbs free energy is G = H - T*S

Total enthalpy                    ...   -476.38183204 Eh 
Total entropy correction          ...     -0.04978086 Eh    -31.24 kcal/mol
-----------------------------------------------------------------------
Final Gibbs free energy         ...   -476.43161290 Eh

For completeness - the Gibbs free energy minus the electronic energy
G-E(el)                           ...      0.09614732 Eh     60.33 kcal/mol


Timings for individual modules:

Sum of individual times         ...    24492.899 sec (= 408.215 min)
GTO integral calculation        ...       43.029 sec (=   0.717 min)   0.2 %
SCF iterations                  ...    13920.000 sec (= 232.000 min)  56.8 %
SCF Gradient evaluation         ...     2919.469 sec (=  48.658 min)  11.9 %
Geometry relaxation             ...        5.331 sec (=   0.089 min)   0.0 %
Analytical frequency calculation...     7605.070 sec (= 126.751 min)  31.1 %
                             ****ORCA TERMINATED NORMALLY****
TOTAL RUN TIME: 0 days 6 hours 48 minutes 31 seconds 821 msec
