
                                 *****************
                                 * O   R   C   A *
                                 *****************

                                            #,                                       
                                            ###                                      
                                            ####                                     
                                            #####                                    
                                            ######                                   
                                           ########,                                 
                                     ,,################,,,,,                         
                               ,,#################################,,                 
                          ,,##########################################,,             
                       ,#########################################, ''#####,          
                    ,#############################################,,   '####,        
                  ,##################################################,,,,####,       
                ,###########''''           ''''###############################       
              ,#####''   ,,,,##########,,,,          '''####'''          '####       
            ,##' ,,,,###########################,,,                        '##       
           ' ,,###''''                  '''############,,,                           
         ,,##''                                '''############,,,,        ,,,,,,###''
      ,#''                                            '''#######################'''  
     '                                                          ''''####''''         
             ,#######,   #######,   ,#######,      ##                                
            ,#'     '#,  ##    ##  ,#'     '#,    #''#        ######   ,####,        
            ##       ##  ##   ,#'  ##            #'  '#       #        #'  '#        
            ##       ##  #######   ##           ,######,      #####,   #    #        
            '#,     ,#'  ##    ##  '#,     ,#' ,#      #,         ##   #,  ,#        
             '#######'   ##     ##  '#######'  #'      '#     #####' # '####'        



                  #######################################################
                  #                        -***-                        #
                  #          Department of theory and spectroscopy      #
                  #    Directorship and core code : Frank Neese         #
                  #        Max Planck Institute fuer Kohlenforschung    #
                  #                Kaiser Wilhelm Platz 1               #
                  #                 D-45470 Muelheim/Ruhr               #
                  #                      Germany                        #
                  #                                                     #
                  #                  All rights reserved                #
                  #                        -***-                        #
                  #######################################################



                         Program Version 5.0.4 -  RELEASE  -

 With contributions from (in alphabetic order):
   Daniel Aravena         : Magnetic Suceptibility
   Michael Atanasov       : Ab Initio Ligand Field Theory (pilot matlab implementation)
   Alexander A. Auer      : GIAO ZORA, VPT2 properties, NMR spectrum
   Ute Becker             : Parallelization
   Giovanni Bistoni       : ED, misc. LED, open-shell LED, HFLD
   Martin Brehm           : Molecular dynamics
   Dmytro Bykov           : SCF Hessian
   Vijay G. Chilkuri      : MRCI spin determinant printing, contributions to CSF-ICE
   Dipayan Datta          : RHF DLPNO-CCSD density
   Achintya Kumar Dutta   : EOM-CC, STEOM-CC
   Dmitry Ganyushin       : Spin-Orbit,Spin-Spin,Magnetic field MRCI
   Miquel Garcia          : C-PCM and meta-GGA Hessian, CC/C-PCM, Gaussian charge scheme
   Yang Guo               : DLPNO-NEVPT2, F12-NEVPT2, CIM, IAO-localization
   Andreas Hansen         : Spin unrestricted coupled pair/coupled cluster methods
   Benjamin Helmich-Paris : MC-RPA, TRAH-SCF, COSX integrals
   Lee Huntington         : MR-EOM, pCC
   Robert Izsak           : Overlap fitted RIJCOSX, COSX-SCS-MP3, EOM
   Marcus Kettner         : VPT2
   Christian Kollmar      : KDIIS, OOCD, Brueckner-CCSD(T), CCSD density, CASPT2, CASPT2-K
   Simone Kossmann        : Meta GGA functionals, TD-DFT gradient, OOMP2, MP2 Hessian
   Martin Krupicka        : Initial AUTO-CI
   Lucas Lang             : DCDCAS
   Marvin Lechner         : AUTO-CI (C++ implementation), FIC-MRCC
   Dagmar Lenk            : GEPOL surface, SMD
   Dimitrios Liakos       : Extrapolation schemes; Compound Job, initial MDCI parallelization
   Dimitrios Manganas     : Further ROCIS development; embedding schemes
   Dimitrios Pantazis     : SARC Basis sets
   Anastasios Papadopoulos: AUTO-CI, single reference methods and gradients
   Taras Petrenko         : DFT Hessian,TD-DFT gradient, ASA, ECA, R-Raman, ABS, FL, XAS/XES, NRVS
   Peter Pinski           : DLPNO-MP2, DLPNO-MP2 Gradient
   Christoph Reimann      : Effective Core Potentials
   Marius Retegan         : Local ZFS, SOC
   Christoph Riplinger    : Optimizer, TS searches, QM/MM, DLPNO-CCSD(T), (RO)-DLPNO pert. Triples
   Tobias Risthaus        : Range-separated hybrids, TD-DFT gradient, RPA, STAB
   Michael Roemelt        : Original ROCIS implementation
   Masaaki Saitow         : Open-shell DLPNO-CCSD energy and density
   Barbara Sandhoefer     : DKH picture change effects
   Avijit Sen             : IP-ROCIS
   Kantharuban Sivalingam : CASSCF convergence, NEVPT2, FIC-MRCI
   Bernardo de Souza      : ESD, SOC TD-DFT
   Georgi Stoychev        : AutoAux, RI-MP2 NMR, DLPNO-MP2 response
   Willem Van den Heuvel  : Paramagnetic NMR
   Boris Wezisla          : Elementary symmetry handling
   Frank Wennmohs         : Technical directorship


 We gratefully acknowledge several colleagues who have allowed us to
 interface, adapt or use parts of their codes:
   Stefan Grimme, W. Hujo, H. Kruse, P. Pracht,  : VdW corrections, initial TS optimization,
                  C. Bannwarth, S. Ehlert          DFT functionals, gCP, sTDA/sTD-DF
   Ed Valeev, F. Pavosevic, A. Kumar             : LibInt (2-el integral package), F12 methods
   Garnet Chan, S. Sharma, J. Yang, R. Olivares  : DMRG
   Ulf Ekstrom                                   : XCFun DFT Library
   Mihaly Kallay                                 : mrcc  (arbitrary order and MRCC methods)
   Jiri Pittner, Ondrej Demel                    : Mk-CCSD
   Frank Weinhold                                : gennbo (NPA and NBO analysis)
   Christopher J. Cramer and Donald G. Truhlar   : smd solvation model
   Lars Goerigk                                  : TD-DFT with DH, B97 family of functionals
   V. Asgeirsson, H. Jonsson                     : NEB implementation
   FAccTs GmbH                                   : IRC, NEB, NEB-TS, DLPNO-Multilevel, CI-OPT
                                                   MM, QMMM, 2- and 3-layer-ONIOM, Crystal-QMMM,
                                                   LR-CPCM, SF, NACMEs, symmetry and pop. for TD-DFT,
                                                   nearIR, NL-DFT gradient (VV10), updates on ESD,
                                                   ML-optimized integration grids
   S Lehtola, MJT Oliveira, MAL Marques          : LibXC Library
   Liviu Ungur et al                             : ANISO software


 Your calculation uses the libint2 library for the computation of 2-el integrals
 For citations please refer to: http://libint.valeyev.net

 Your ORCA version has been built with support for libXC version: 5.1.0
 For citations please refer to: https://tddft.org/programs/libxc/

 This ORCA versions uses:
   CBLAS   interface :  Fast vector & matrix operations
   LAPACKE interface :  Fast linear algebra routines
   Shared memory     :  Shared parallel matrices


Your calculation utilizes the atom-pairwise dispersion correction
based on tight binding partial charges (D4)
Cite in your paper:
E.Caldeweyher, C.Bannwarth, S.Grimme, J.Chem.Phys., (2017), 147, 034112.
E.Caldeweyher, S.Ehlert, A.Hansen, H.Neugebauer, S.Grimme, J.Chem.Phys., (2018), in progress.
   

================================================================================

----- Orbital basis set information -----
Your calculation utilizes the basis: def2-TZVP
   F. Weigend and R. Ahlrichs, Phys. Chem. Chem. Phys. 7, 3297 (2005).

----- AuxJ basis set information -----
Your calculation utilizes the auxiliary basis: def2/J
   F. Weigend, Phys. Chem. Chem. Phys. 8, 1057 (2006).

================================================================================
                                        WARNINGS
                       Please study these warnings very carefully!
================================================================================


WARNING: Geometry Optimization
  ===> : Switching off AutoStart
         For restart on a previous wavefunction, please use MOREAD

INFO   : the flag for use of the SHARK integral package has been found!

================================================================================
                                       INPUT FILE
================================================================================
NAME = para_products_optfreq.inp
|  1> !B3LYP DEF2-TZVP OPT FREQ D4
|  2> 
|  3> * xyz 1 1
|  4>    C       -6.37712        0.41827       -0.13072
|  5>    C       -7.25348        0.98257       -1.05650
|  6>    C       -7.21279        0.59311       -2.39418
|  7>    C       -6.29318       -0.36847       -2.83579
|  8>    C       -5.41464       -0.92721       -1.89652
|  9>    C       -5.45626       -0.53689       -0.55888
| 10>    C       -6.41933        0.84615        1.32585
| 11>    H       -6.10719        0.02959        1.98116
| 12>    H       -7.43022        1.14287        1.61529
| 13>    H       -5.75141        1.69450        1.49104
| 14>    H       -7.97535        1.73205       -0.73989
| 15>    H       -7.91030        1.05149       -3.09162
| 16>    H       -4.68423       -1.67496       -2.19455
| 17>    H       -4.76335       -0.98313        0.15095
| 18>    N       -6.25723       -0.75113       -4.16452
| 19>    O       -5.40282       -1.63736       -4.54773
| 20>    O       -7.08305       -0.21032       -4.99304
| 21>    H      -12.11052       -3.76089       -2.55799
| 22> **                         ****END OF INPUT****
================================================================================

                       *****************************
                       * Geometry Optimization Run *
                       *****************************

Geometry optimization settings:
Update method            Update   .... BFGS
Choice of coordinates    CoordSys .... Z-matrix Internals
Initial Hessian          InHess   .... Almoef's Model

Convergence Tolerances:
Energy Change            TolE     ....  5.0000e-06 Eh
Max. Gradient            TolMAXG  ....  3.0000e-04 Eh/bohr
RMS Gradient             TolRMSG  ....  1.0000e-04 Eh/bohr
Max. Displacement        TolMAXD  ....  4.0000e-03 bohr
RMS Displacement         TolRMSD  ....  2.0000e-03 bohr
Strict Convergence                ....  False
------------------------------------------------------------------------------
                        ORCA OPTIMIZATION COORDINATE SETUP
------------------------------------------------------------------------------

The optimization will be done in new redundant internal coordinates
Making redundant internal coordinates   ...  (new redundants) done
Evaluating the initial hessian          ...  (Almloef) done
Evaluating the coordinates              ...  done
Calculating the B-matrix                .... done
Calculating the G-matrix                .... done
Diagonalizing the G-matrix              .... done
The first mode is                       ....  258
The number of degrees of freedom        ....   48

    -----------------------------------------------------------------
                    Redundant Internal Coordinates


    -----------------------------------------------------------------
         Definition                    Initial Value    Approx d2E/dq
    -----------------------------------------------------------------
      1. B(C   1,C   0)                  1.3941         0.615460   
      2. B(C   2,C   1)                  1.3938         0.616099   
      3. B(C   3,C   2)                  1.4019         0.598060   
      4. B(C   4,C   3)                  1.4022         0.597345   
      5. B(C   5,C   4)                  1.3940         0.615580   
      6. B(C   5,C   0)                  1.3941         0.615359   
      7. B(C   6,C   0)                  1.5187         0.389404   
      8. B(H   7,C   6)                  1.0925         0.356762   
      9. B(H   8,C   6)                  1.0926         0.356712   
     10. B(H   9,C   6)                  1.0923         0.357080   
     11. B(H  10,C   1)                  1.0877         0.363176   
     12. B(H  11,C   2)                  1.0877         0.363178   
     13. B(H  12,C   4)                  1.0869         0.364163   
     14. B(H  13,C   5)                  1.0877         0.363142   
     15. B(N  14,C   3)                  1.3832         0.573751   
     16. B(O  15,N  14)                  1.2893         0.725584   
     17. B(O  16,N  14)                  1.2888         0.727003   
     18. B(H  17,O  16)                  6.6190         0.000000   
     19. B(H  17,O  15)                  7.3117         0.000000   
     20. B(H  17,N  14)                  6.7750         0.000000   
     21. B(H  17,H  11)                  6.4098         0.000000   
     22. B(H  17,H  10)                  7.1118         0.000000   
     23. B(H  17,C   4)                  7.3008         0.000000   
     24. B(H  17,C   3)                  6.7400         0.000000   
     25. B(H  17,C   2)                  6.5553         0.000000   
     26. B(H  17,C   1)                  6.9531         0.000000   
     27. A(C   1,C   0,C   5)          119.2483         0.432907   
     28. A(C   5,C   0,C   6)          120.3934         0.399060   
     29. A(C   1,C   0,C   6)          120.3572         0.399071   
     30. A(C   2,C   1,H  17)           67.8225         0.091012   
     31. A(C   2,C   1,H  10)          119.4244         0.353040   
     32. A(C   0,C   1,H  17)          107.8412         0.091012   
     33. A(C   0,C   1,C   2)          120.3892         0.433001   
     34. A(H  10,C   1,H  17)           93.9758         0.090544   
     35. A(C   0,C   1,H  10)          120.1864         0.352978   
     36. A(C   3,C   2,H  17)           91.5273         0.091782   
     37. A(H  11,C   2,H  17)           77.5704         0.091149   
     38. A(C   3,C   2,H  11)          120.5131         0.351270   
     39. A(C   1,C   2,C   3)          120.8723         0.430775   
     40. A(C   1,C   2,H  11)          118.6145         0.353040   
     41. A(C   1,C   2,H  17)          100.8221         0.091801   
     42. A(C   4,C   3,N  14)          121.1274         0.422453   
     43. A(C   2,C   3,H  17)           76.4719         0.091386   
     44. A(C   2,C   3,C   4)          118.2483         0.428392   
     45. A(C   2,C   3,N  14)          120.6243         0.422543   
     46. A(C   4,C   3,H  17)          108.2158         0.091385   
     47. A(N  14,C   3,H  17)           85.5713         0.091344   
     48. A(H  12,C   4,H  17)          108.9323         0.090157   
     49. A(C   3,C   4,C   5)          120.8282         0.430617   
     50. A(C   5,C   4,H  12)          118.4098         0.353152   
     51. A(C   3,C   4,H  17)           61.2723         0.090496   
     52. A(C   5,C   4,H  17)           99.6848         0.090507   
     53. A(C   3,C   4,H  12)          120.7620         0.351360   
     54. A(C   0,C   5,C   4)          120.4134         0.432922   
     55. A(C   4,C   5,H  13)          119.4918         0.352984   
     56. A(C   0,C   5,H  13)          120.0948         0.352963   
     57. A(H   8,C   6,H   9)          108.3474         0.290024   
     58. A(H   7,C   6,H   9)          108.3650         0.290031   
     59. A(C   0,C   6,H   9)          110.2959         0.326087   
     60. A(H   7,C   6,H   8)          107.9642         0.289984   
     61. A(C   0,C   6,H   8)          110.8736         0.326032   
     62. A(C   0,C   6,H   7)          110.9010         0.326039   
     63. A(C   1,H  10,H  17)           77.2482         0.089744   
     64. A(C   2,H  11,H  17)           92.8909         0.090334   
     65. A(O  15,N  14,H  17)          109.7342         0.091295   
     66. A(C   3,N  14,H  17)           82.6839         0.091195   
     67. A(O  15,N  14,O  16)          121.4676         0.447519   
     68. A(C   3,N  14,O  16)          119.0006         0.431842   
     69. A(C   3,N  14,O  15)          119.5318         0.431691   
     70. A(O  16,N  14,H  17)           77.5994         0.091296   
     71. A(N  14,O  15,H  17)           60.7120         0.090469   
     72. A(N  14,O  16,H  17)           91.4383         0.091614   
     73. A(C   3,H  17,N  14)           11.7448         0.089016   
     74. A(C   2,H  17,N  14)           20.8306         0.089018   
     75. A(C   1,H  17,N  14)           31.1994         0.089013   
     76. A(H  10,H  17,H  11)           20.0129         0.089005   
     77. A(C   4,H  17,H  11)           27.7677         0.089008   
     78. A(C   3,H  17,H  11)           18.7549         0.089012   
     79. A(C   2,H  17,H  11)            9.5387         0.089014   
     80. A(C   1,H  17,H  11)           17.8330         0.089010   
     81. A(C   4,H  17,H  10)           31.1055         0.089004   
     82. A(C   3,H  17,H  10)           28.3481         0.089007   
     83. A(C   2,H  17,H  10)           17.4801         0.089008   
     84. A(C   1,H  17,H  10)            8.7761         0.089006   
     85. A(C   3,H  17,C   4)           10.5119         0.089011   
     86. A(C   2,H  17,C   4)           19.0399         0.089012   
     87. A(C   1,H  17,C   4)           22.3299         0.089009   
     88. A(C   4,H  17,N  14)           19.3852         0.089010   
     89. A(O  15,H  17,O  16)           17.6922         0.089011   
     90. A(N  14,H  17,O  16)           10.9623         0.089017   
     91. A(H  11,H  17,O  16)           21.3963         0.089013   
     92. A(C   2,H  17,C   3)           12.0008         0.089020   
     93. A(C   2,H  17,O  16)           23.8533         0.089021   
     94. A(C   1,H  17,C   3)           20.3816         0.089014   
     95. A(C   1,H  17,O  16)           35.2062         0.089015   
     96. A(N  14,H  17,O  15)            9.5539         0.089009   
     97. A(H  11,H  17,O  15)           32.6641         0.089007   
     98. A(H  10,H  17,O  15)           46.5149         0.089004   
     99. A(C   4,H  17,O  15)           21.6523         0.089006   
    100. A(C   3,H  17,O  15)           18.3405         0.089010   
    101. A(C   2,H  17,O  15)           29.3646         0.089012   
    102. A(C   3,H  17,O  16)           19.8249         0.089018   
    103. A(C   4,H  17,O  16)           29.3687         0.089011   
    104. A(H  10,H  17,O  16)           40.3673         0.089007   
    105. A(C   1,H  17,C   2)           11.3554         0.089016   
    106. A(C   1,H  17,O  15)           38.7211         0.089008   
    107. A(H  11,H  17,N  14)           23.1606         0.089011   
    108. A(H  10,H  17,N  14)           38.2931         0.089006   
    109. D(C   2,C   1,C   0,C   6)    179.8189         0.028456   
    110. D(C   2,C   1,C   0,C   5)      0.2173         0.028456   
    111. D(H  17,C   1,C   0,C   6)   -105.9023         0.028456   
    112. D(H  10,C   1,C   0,C   6)     -0.1495         0.028456   
    113. D(H  10,C   1,C   0,C   5)   -179.7511         0.028456   
    114. D(H  17,C   1,C   0,C   5)     74.4961         0.028456   
    115. D(H  17,C   2,C   1,H  10)    -81.7231         0.030655   
    116. D(H  11,C   2,C   1,H  17)     81.6431         0.030655   
    117. D(H  17,C   2,C   1,C   0)     98.3082         0.030655   
    118. D(H  11,C   2,C   1,C   0)    179.9513         0.030655   
    119. D(C   3,C   2,C   1,H  10)    179.8876         0.030655   
    120. D(C   3,C   2,C   1,H  17)    -98.3892         0.030655   
    121. D(H  11,C   2,C   1,H  10)     -0.0801         0.030655   
    122. D(C   3,C   2,C   1,C   0)     -0.0810         0.030655   
    123. D(N  14,C   3,C   2,H  11)     -0.0299         0.028774   
    124. D(N  14,C   3,C   2,C   1)   -179.9970         0.028774   
    125. D(C   4,C   3,C   2,H  11)    179.9114         0.028774   
    126. D(H  17,C   3,C   2,C   1)    103.5783         0.028774   
    127. D(C   4,C   3,C   2,C   1)     -0.0557         0.028774   
    128. D(H  17,C   3,C   2,H  11)    -76.4547         0.028774   
    129. D(C   4,C   3,C   2,H  17)   -103.6339         0.028774   
    130. D(N  14,C   3,C   2,H  17)     76.4248         0.028774   
    131. D(H  17,C   4,C   3,C   2)     84.1028         0.028701   
    132. D(C   5,C   4,C   3,H  17)    -84.0477         0.028701   
    133. D(H  12,C   4,C   3,N  14)      0.0321         0.028701   
    134. D(H  12,C   4,C   3,H  17)     95.9883         0.028701   
    135. D(H  17,C   4,C   3,N  14)    -95.9562         0.028701   
    136. D(C   5,C   4,C   3,C   2)      0.0551         0.028701   
    137. D(C   5,C   4,C   3,N  14)    179.9961         0.028701   
    138. D(H  12,C   4,C   3,C   2)   -179.9089         0.028701   
    139. D(H  13,C   5,C   0,C   6)      0.1490         0.026179   
    140. D(H  13,C   5,C   0,C   1)    179.7504         0.026179   
    141. D(C   4,C   5,C   0,C   1)     -0.2179         0.026179   
    142. D(H  13,C   5,C   4,H  17)    117.8873         0.028467   
    143. D(C   0,C   5,C   4,C   3)      0.0822         0.028467   
    144. D(C   0,C   5,C   4,H  17)    -62.1442         0.028467   
    145. D(C   0,C   5,C   4,H  12)   -179.9530         0.028467   
    146. D(H  13,C   5,C   4,H  12)      0.0785         0.028467   
    147. D(H  13,C   5,C   4,C   3)   -179.8863         0.028467   
    148. D(C   4,C   5,C   0,C   6)   -179.8194         0.026179   
    149. D(H   7,C   6,C   0,C   5)    -30.1131         0.011283   
    150. D(H   8,C   6,C   0,C   5)   -150.0444         0.011283   
    151. D(H   7,C   6,C   0,C   1)    150.2899         0.011283   
    152. D(H   8,C   6,C   0,C   1)     30.3586         0.011283   
    153. D(H   9,C   6,C   0,C   1)    -89.6559         0.011283   
    154. D(H   9,C   6,C   0,C   5)     89.9411         0.011283   
    155. D(H  17,H  10,C   1,C   2)     66.7199         0.124012   
    156. D(H  17,H  10,C   1,C   0)   -113.3114         0.124012   
    157. D(H  17,H  11,C   2,C   3)     84.3635         0.124014   
    158. D(H  17,H  11,C   2,C   1)    -95.6687         0.124014   
    159. D(O  16,N  14,C   3,H  17)     71.4147         0.030798   
    160. D(O  15,N  14,C   3,C   4)      0.0587         0.030798   
    161. D(O  15,N  14,C   3,C   2)    179.9983         0.030798   
    162. D(O  16,N  14,C   3,C   4)   -179.9527         0.030798   
    163. D(O  16,N  14,C   3,C   2)     -0.0131         0.030798   
    164. D(O  15,N  14,C   3,H  17)   -108.5738         0.030798   
    165. D(H  17,N  14,C   3,C   4)    108.6326         0.030798   
    166. D(H  17,N  14,C   3,C   2)    -71.4279         0.030798   
    167. D(H  17,O  15,N  14,O  16)    -87.2525         0.051862   
    168. D(H  17,O  15,N  14,C   3)     92.7358         0.051862   
    169. D(H  17,O  16,N  14,C   3)    -74.2787         0.052089   
    170. D(H  17,O  16,N  14,O  15)    105.7097         0.052089   
    171. D(C   2,H  17,C   1,C   0)   -116.2752         0.001500   
    172. D(O  16,H  17,C   3,C   4)   -149.7764         0.001500   
    173. D(O  16,H  17,C   3,C   2)     94.5462         0.001500   
    174. D(O  15,H  17,C   3,C   4)    -93.8283         0.001500   
    175. D(O  15,H  17,C   3,C   2)    150.4943         0.001500   
    176. D(N  14,H  17,C   3,C   4)   -121.3563         0.001500   
    177. D(H  11,H  17,C   3,N  14)    -96.7324         0.001500   
    178. D(H  11,H  17,C   3,C   4)    141.9114         0.001500   
    179. D(H  11,H  17,C   3,C   2)     26.2340         0.001500   
    180. D(H  10,H  17,C   3,N  14)   -142.6197         0.001500   
    181. D(H  10,H  17,C   3,C   4)     96.0240         0.001500   
    182. D(H  10,H  17,C   3,C   2)    -19.6534         0.001500   
    183. D(C   4,H  17,C   3,N  14)    121.3563         0.001500   
    184. D(C   2,H  17,C   3,N  14)   -122.9664         0.001500   
    185. D(C   2,H  17,C   3,C   4)    115.6774         0.001500   
    186. D(C   1,H  17,C   3,N  14)   -151.6663         0.001500   
    187. D(C   1,H  17,C   3,C   2)    -28.6999         0.001500   
    188. D(O  16,H  17,C   2,H  11)     64.2246         0.001500   
    189. D(O  16,H  17,C   2,C   3)    -56.7214         0.001500   
    190. D(O  15,H  17,C   2,H  11)    102.5224         0.001500   
    191. D(O  15,H  17,C   2,C   3)    -18.4236         0.001500   
    192. D(O  15,H  17,C   2,C   1)   -140.2739         0.001500   
    193. D(N  14,H  17,C   2,C   3)    -28.7016         0.001500   
    194. D(C   3,H  17,O  16,N  14)     30.6269         0.001500   
    195. D(N  14,H  17,C   2,C   1)   -150.5518         0.001500   
    196. D(C   2,H  17,O  16,N  14)     61.4603         0.001500   
    197. D(C   1,H  17,O  16,N  14)     60.9726         0.001500   
    198. D(H  11,H  17,C   2,C   3)   -120.9460         0.001500   
    199. D(H  11,H  17,C   2,C   1)    117.2038         0.001500   
    200. D(C   4,H  17,O  15,N  14)    -64.0897         0.001500   
    201. D(H  10,H  17,C   2,H  11)    -91.1720         0.001500   
    202. D(H  10,H  17,C   2,C   3)    147.8820         0.001500   
    203. D(C   1,H  17,O  15,N  14)    -34.0803         0.001500   
    204. D(C   4,H  17,O  16,N  14)     19.8342         0.001500   
    205. D(H  10,H  17,O  16,N  14)     72.5930         0.001500   
    206. D(N  14,H  17,C   2,H  11)     92.2444         0.001500   
    207. D(O  16,H  17,N  14,O  15)   -119.2723         0.001500   
    208. D(H  10,H  17,C   2,C   1)     26.0317         0.001500   
    209. D(C   4,H  17,C   2,H  11)    151.2121         0.001500   
    210. D(O  16,H  17,C   2,C   1)   -178.5716         0.001500   
    211. D(H  11,H  17,N  14,O  16)    -67.6422         0.001500   
    212. D(C   4,H  17,C   2,C   3)     30.2661         0.001500   
    213. D(C   4,H  17,C   2,C   1)    -91.5842         0.001500   
    214. D(C   1,H  17,C   3,C   4)     86.9774         0.001500   
    215. D(H  10,H  17,N  14,O  16)    -94.1956         0.001500   
    216. D(H  10,H  17,N  14,O  15)    146.5321         0.001500   
    217. D(C   3,H  17,C   2,H  11)    120.9460         0.001500   
    218. D(C   4,H  17,C   3,C   2)   -115.6774         0.001500   
    219. D(C   3,H  17,C   2,C   1)   -121.8502         0.001500   
    220. D(C   4,H  17,N  14,C   3)    -27.9937         0.001500   
    221. D(C   1,H  17,C   2,H  11)   -117.2038         0.001500   
    222. D(C   1,H  17,C   2,C   3)    121.8502         0.001500   
    223. D(C   2,H  17,N  14,O  16)    -92.5404         0.001500   
    224. D(C   2,H  17,N  14,O  15)    148.1874         0.001500   
    225. D(O  16,H  17,C   1,H  10)    121.2318         0.001500   
    226. D(N  14,H  17,C   3,C   2)    122.9664         0.001500   
    227. D(O  16,H  17,C   1,C   2)      1.0019         0.001500   
    228. D(C   1,H  17,N  14,C   3)     18.6076         0.001500   
    229. D(O  16,H  17,C   1,C   0)   -115.2734         0.001500   
    230. D(O  15,H  17,C   3,N  14)     27.5279         0.001500   
    231. D(O  15,H  17,H  11,C   2)    -62.4927         0.001500   
    232. D(O  15,H  17,C   1,H  10)    150.2973         0.001500   
    233. D(O  16,H  17,C   3,N  14)    -28.4201         0.001500   
    234. D(C   1,H  17,C   4,C   3)    -66.2594         0.001500   
    235. D(N  14,H  17,H  11,C   2)    -64.6144         0.001500   
    236. D(H  10,H  17,H  11,C   2)     61.3435         0.001500   
    237. D(O  15,H  17,C   1,C   2)     30.0673         0.001500   
    238. D(O  15,H  17,C   1,C   0)    -86.2079         0.001500   
    239. D(O  16,H  17,H  10,C   1)    -49.5635         0.001500   
    240. D(N  14,H  17,C   1,H  10)    139.9543         0.001500   
    241. D(N  14,H  17,C   1,C   2)     19.7244         0.001500   
    242. D(H  11,H  17,H  10,C   1)    -63.4509         0.001500   
    243. D(C   4,H  17,H  10,C   1)     -0.4734         0.001500   
    244. D(N  14,H  17,C   1,C   0)    -96.5509         0.001500   
    245. D(H  11,H  17,C   1,H  10)     91.4621         0.001500   
    246. D(O  16,H  17,C   4,C   5)    140.3252         0.001500   
    247. D(H  11,H  17,C   1,C   2)    -28.7678         0.001500   
    248. D(O  15,H  17,C   4,H  12)    -57.0695         0.001500   
    249. D(H  11,H  17,C   1,C   0)   -145.0431         0.001500   
    250. D(O  15,H  17,C   4,C   5)    178.2643         0.001500   
    251. D(O  15,H  17,C   4,C   3)     58.3103         0.001500   
    252. D(H  10,H  17,C   1,C   2)   -120.2300         0.001500   
    253. D(N  14,H  17,C   4,H  12)    -83.7994         0.001500   
    254. D(O  16,H  17,C   4,C   3)     20.3712         0.001500   
    255. D(N  14,H  17,C   4,C   5)    151.5344         0.001500   
    256. D(O  16,H  17,C   4,H  12)    -95.0086         0.001500   
    257. D(C   2,H  17,H  10,C   1)    -34.4965         0.001500   
    258. D(C   3,H  17,H  10,C   1)    -21.0338         0.001500   
    259. D(H  10,H  17,C   1,C   0)    123.4948         0.001500   
    260. D(N  14,H  17,C   4,C   3)     31.5804         0.001500   
    261. D(N  14,H  17,H  10,C   1)    -32.5368         0.001500   
    262. D(O  15,H  17,H  10,C   1)    -25.2895         0.001500   
    263. D(H  11,H  17,C   4,H  12)   -140.5762         0.001500   
    264. D(C   1,H  17,H  11,C   2)     34.8770         0.001500   
    265. D(C   3,H  17,H  11,C   2)    -33.6858         0.001500   
    266. D(C   4,H  17,H  11,C   2)    -19.7067         0.001500   
    267. D(C   4,H  17,C   1,H  10)    179.3562         0.001500   
    268. D(H  11,H  17,C   4,C   5)     94.7576         0.001500   
    269. D(H  11,H  17,C   4,C   3)    -25.1964         0.001500   
    270. D(O  16,H  17,H  11,C   2)    -93.4352         0.001500   
    271. D(C   4,H  17,C   1,C   2)     59.1263         0.001500   
    272. D(C   1,H  17,N  14,O  15)    137.4174         0.001500   
    273. D(C   1,H  17,N  14,O  16)   -103.3103         0.001500   
    274. D(C   2,H  17,N  14,C   3)     29.3776         0.001500   
    275. D(H  10,H  17,C   4,H  12)    178.5509         0.001500   
    276. D(H  10,H  17,C   4,C   5)     53.8847         0.001500   
    277. D(C   3,H  17,N  14,O  15)    118.8098         0.001500   
    278. D(C   3,H  17,N  14,O  16)   -121.9179         0.001500   
    279. D(C   4,H  17,C   1,C   0)    -57.1490         0.001500   
    280. D(C   4,H  17,N  14,O  15)     90.8161         0.001500   
    281. D(C   4,H  17,N  14,O  16)   -149.9117         0.001500   
    282. D(H  10,H  17,N  14,C   3)     27.7223         0.001500   
    283. D(H  10,H  17,C   4,C   3)    -66.0693         0.001500   
    284. D(C   3,H  17,C   4,H  12)   -115.3798         0.001500   
    285. D(H  11,H  17,N  14,C   3)     54.2757         0.001500   
    286. D(H  11,H  17,N  14,O  15)    173.0855         0.001500   
    287. D(C   3,H  17,C   1,H  10)    150.7026         0.001500   
    288. D(O  15,H  17,N  14,C   3)   -118.8098         0.001500   
    289. D(O  15,H  17,N  14,O  16)    119.2723         0.001500   
    290. D(O  16,H  17,N  14,C   3)    121.9179         0.001500   
    291. D(C   3,H  17,C   4,C   5)    119.9540         0.001500   
    292. D(C   2,H  17,C   4,H  12)   -150.4391         0.001500   
    293. D(C   2,H  17,O  15,N  14)    -22.4748         0.001500   
    294. D(C   3,H  17,O  15,N  14)    -34.5289         0.001500   
    295. D(C   3,H  17,C   1,C   2)     30.4726         0.001500   
    296. D(H  10,H  17,O  15,N  14)    -28.0994         0.001500   
    297. D(H  11,H  17,O  15,N  14)     -5.0331         0.001500   
    298. D(O  16,H  17,O  15,N  14)     33.0815         0.001500   
    299. D(C   2,H  17,C   4,C   5)     84.8947         0.001500   
    300. D(C   2,H  17,C   4,C   3)    -35.0593         0.001500   
    301. D(C   3,H  17,C   1,C   0)    -85.8026         0.001500   
    302. D(C   1,H  17,C   4,H  12)    178.3608         0.001500   
    303. D(C   1,H  17,C   4,C   5)     53.6946         0.001500   
    304. D(H  11,H  17,O  16,N  14)     85.6051         0.001500   
    305. D(O  15,H  17,O  16,N  14)    -28.4509         0.001500   
    306. D(C   2,H  17,C   1,H  10)    120.2300         0.001500   
    -----------------------------------------------------------------

Number of atoms                         .... 18
Number of degrees of freedom            .... 306

         *************************************************************
         *                GEOMETRY OPTIMIZATION CYCLE   1            *
         *************************************************************
---------------------------------
CARTESIAN COORDINATES (ANGSTROEM)
---------------------------------
  C     -6.377120    0.418270   -0.130720
  C     -7.253480    0.982570   -1.056500
  C     -7.212790    0.593110   -2.394180
  C     -6.293180   -0.368470   -2.835790
  C     -5.414640   -0.927210   -1.896520
  C     -5.456260   -0.536890   -0.558880
  C     -6.419330    0.846150    1.325850
  H     -6.107190    0.029590    1.981160
  H     -7.430220    1.142870    1.615290
  H     -5.751410    1.694500    1.491040
  H     -7.975350    1.732050   -0.739890
  H     -7.910300    1.051490   -3.091620
  H     -4.684230   -1.674960   -2.194550
  H     -4.763350   -0.983130    0.150950
  N     -6.257230   -0.751130   -4.164520
  O     -5.402820   -1.637360   -4.547730
  O     -7.083050   -0.210320   -4.993040
  H    -12.110520   -3.760890   -2.557990

----------------------------
CARTESIAN COORDINATES (A.U.)
----------------------------
  NO LB      ZA    FRAG     MASS         X           Y           Z
   0 C     6.0000    0    12.011  -12.051010    0.790416   -0.247025
   1 C     6.0000    0    12.011  -13.707091    1.856788   -1.996496
   2 C     6.0000    0    12.011  -13.630198    1.120815   -4.524345
   3 C     6.0000    0    12.011  -11.892387   -0.696307   -5.358866
   4 C     6.0000    0    12.011  -10.232187   -1.752173   -3.583903
   5 C     6.0000    0    12.011  -10.310837   -1.014575   -1.056130
   6 C     6.0000    0    12.011  -12.130776    1.598992    2.505493
   7 H     1.0000    0     1.008  -11.540917    0.055917    3.743850
   8 H     1.0000    0     1.008  -14.041081    2.159711    3.052456
   9 H     1.0000    0     1.008  -10.868590    3.202141    2.817657
  10 H     1.0000    0     1.008  -15.071227    3.273100   -1.398189
  11 H     1.0000    0     1.008  -14.948301    1.987028   -5.842315
  12 H     1.0000    0     1.008   -8.851912   -3.165216   -4.147098
  13 H     1.0000    0     1.008   -9.001427   -1.857846    0.285254
  14 N     7.0000    0    14.007  -11.824451   -1.419430   -7.869802
  15 O     8.0000    0    15.999  -10.209850   -3.094162   -8.593964
  16 O     8.0000    0    15.999  -13.385025   -0.397447   -9.435478
  17 H     1.0000    0     1.008  -22.885566   -7.107052   -4.833901

--------------------------------
INTERNAL COORDINATES (ANGSTROEM)
--------------------------------
 C      0   0   0     0.000000000000     0.00000000     0.00000000
 C      1   0   0     1.394098256222     0.00000000     0.00000000
 C      2   1   0     1.393815823594   120.38918441     0.00000000
 C      3   2   1     1.401905146791   120.87233716   359.91899038
 C      4   3   2     1.402230741390   118.24825163   359.94430988
 C      5   4   3     1.394045442731   120.82816051     0.05509432
 C      1   2   3     1.518703112330   120.35715176   179.81889368
 H      7   1   2     1.092535038019   110.90100186   150.28991669
 H      7   1   2     1.092573505124   110.87362392    30.35856545
 H      7   1   2     1.092292353264   110.29593122   270.34412290
 H      2   1   3     1.087684908142   120.18641599   180.03162591
 H      3   2   1     1.087683307815   118.61454468   179.95133362
 H      5   4   3     1.086945588105   120.76202970   180.09111526
 H      6   5   4     1.087709995633   119.49181211   180.11368033
 N      4   3   2     1.383200813693   120.62431092   180.00303520
 O     15   4   3     1.289290489029   119.53178911   179.99828366
 O     15   4   3     1.288758906429   119.00063101     0.00000000
 H     12   3   2     6.409805791886    92.89091537   264.33130845

---------------------------
INTERNAL COORDINATES (A.U.)
---------------------------
 C      0   0   0     0.000000000000     0.00000000     0.00000000
 C      1   0   0     2.634463908036     0.00000000     0.00000000
 C      2   1   0     2.633930187718   120.38918441     0.00000000
 C      3   2   1     2.649216793170   120.87233716   359.91899038
 C      4   3   2     2.649832077793   118.24825163   359.94430988
 C      5   4   3     2.634364105003   120.82816051     0.05509432
 C      1   2   3     2.869932961037   120.35715176   179.81889368
 H      7   1   2     2.064592013570   110.90100186   150.28991669
 H      7   1   2     2.064664705864   110.87362392    30.35856545
 H      7   1   2     2.064133405846   110.29593122   270.34412290
 H      2   1   3     2.055426596388   120.18641599   180.03162591
 H      3   2   1     2.055423572208   118.61454468   179.95133362
 H      5   4   3     2.054029483992   120.76202970   180.09111526
 H      6   5   4     2.055474004875   119.49181211   180.11368033
 N      4   3   2     2.613870726096   120.62431092   180.00303520
 O     15   4   3     2.436405931334   119.53178911   179.99828366
 O     15   4   3     2.435401385803   119.00063101     0.00000000
 H     12   3   2    12.112777518287    92.89091537   264.33130845

---------------------
BASIS SET INFORMATION
---------------------
There are 4 groups of distinct atoms

 Group   1 Type C   : 11s6p2d1f contracted to 5s3p2d1f pattern {62111/411/11/1}
 Group   2 Type H   : 5s1p contracted to 3s1p pattern {311/1}
 Group   3 Type N   : 11s6p2d1f contracted to 5s3p2d1f pattern {62111/411/11/1}
 Group   4 Type O   : 11s6p2d1f contracted to 5s3p2d1f pattern {62111/411/11/1}

Atom   0C    basis set group =>   1
Atom   1C    basis set group =>   1
Atom   2C    basis set group =>   1
Atom   3C    basis set group =>   1
Atom   4C    basis set group =>   1
Atom   5C    basis set group =>   1
Atom   6C    basis set group =>   1
Atom   7H    basis set group =>   2
Atom   8H    basis set group =>   2
Atom   9H    basis set group =>   2
Atom  10H    basis set group =>   2
Atom  11H    basis set group =>   2
Atom  12H    basis set group =>   2
Atom  13H    basis set group =>   2
Atom  14N    basis set group =>   3
Atom  15O    basis set group =>   4
Atom  16O    basis set group =>   4
Atom  17H    basis set group =>   2
---------------------------------
AUXILIARY/J BASIS SET INFORMATION
---------------------------------
There are 4 groups of distinct atoms

 Group   1 Type C   : 12s5p4d2f1g contracted to 6s4p3d1f1g pattern {711111/2111/211/2/1}
 Group   2 Type H   : 5s2p1d contracted to 3s1p1d pattern {311/2/1}
 Group   3 Type N   : 12s5p4d2f1g contracted to 6s4p3d1f1g pattern {711111/2111/211/2/1}
 Group   4 Type O   : 12s5p4d2f1g contracted to 6s4p3d1f1g pattern {711111/2111/211/2/1}

Atom   0C    basis set group =>   1
Atom   1C    basis set group =>   1
Atom   2C    basis set group =>   1
Atom   3C    basis set group =>   1
Atom   4C    basis set group =>   1
Atom   5C    basis set group =>   1
Atom   6C    basis set group =>   1
Atom   7H    basis set group =>   2
Atom   8H    basis set group =>   2
Atom   9H    basis set group =>   2
Atom  10H    basis set group =>   2
Atom  11H    basis set group =>   2
Atom  12H    basis set group =>   2
Atom  13H    basis set group =>   2
Atom  14N    basis set group =>   3
Atom  15O    basis set group =>   4
Atom  16O    basis set group =>   4
Atom  17H    basis set group =>   2
------------------------------------------------------------------------------
                           ORCA GTO INTEGRAL CALCULATION
                           -- RI-GTO INTEGRALS CHOSEN --
------------------------------------------------------------------------------
------------------------------------------------------------------------------
                   ___                                                        
                  /   \      - P O W E R E D   B Y -                         
                 /     \                                                     
                 |  |  |   _    _      __       _____    __    __             
                 |  |  |  | |  | |    /  \     |  _  \  |  |  /  |          
                  \  \/   | |  | |   /    \    | | | |  |  | /  /          
                 / \  \   | |__| |  /  /\  \   | |_| |  |  |/  /          
                |  |  |   |  __  | /  /__\  \  |    /   |      \           
                |  |  |   | |  | | |   __   |  |    \   |  |\   \          
                \     /   | |  | | |  |  |  |  | |\  \  |  | \   \       
                 \___/    |_|  |_| |__|  |__|  |_| \__\ |__|  \__/        
                                                                              
                      - O R C A' S   B I G   F R I E N D -                    
                                      &                                       
                       - I N T E G R A L  F E E D E R -                       
                                                                              
 v1 FN, 2020, v2 2021                                                         
------------------------------------------------------------------------------


Reading SHARK input file para_products_optfreq.SHARKINP.tmp ... ok
----------------------
SHARK INTEGRAL PACKAGE
----------------------

Number of atoms                             ...     18
Number of basis functions                   ...    358
Number of shells                            ...    142
Maximum angular momentum                    ...      3
Integral batch strategy                     ... SHARK/LIBINT Hybrid
RI-J (if used) integral strategy            ... SPLIT-RIJ (Revised 2003 algorithm where possible)
Printlevel                                  ...      1
Contraction scheme used                     ... SEGMENTED contraction
Coulomb Range Separation                    ... NOT USED
Exchange Range Separation                   ... NOT USED
Finite Nucleus Model                        ... NOT USED
Auxiliary Coulomb fitting basis             ... AVAILABLE
   # of basis functions in Aux-J            ...    578
   # of shells in Aux-J                     ...    190
   Maximum angular momentum in Aux-J        ...      4
Auxiliary J/K fitting basis                 ... NOT available
Auxiliary Correlation fitting basis         ... NOT available
Auxiliary 'external' fitting basis          ... NOT available
Integral threshold                          ...     2.500000e-11
Primitive cut-off                           ...     2.500000e-12
Primitive pair pre-selection threshold      ...     2.500000e-12

Calculating pre-screening integrals         ... done (  0.5 sec) Dimension = 142
Organizing shell pair data                  ... done (  0.6 sec)
Shell pair information
Total number of shell pairs                 ...     10153
Shell pairs after pre-screening             ...      8579
Total number of primitive shell pairs       ...     31120
Primitive shell pairs kept                  ...     19303
          la=0 lb=0:   2222 shell pairs
          la=1 lb=0:   2412 shell pairs
          la=1 lb=1:    660 shell pairs
          la=2 lb=0:   1252 shell pairs
          la=2 lb=1:    674 shell pairs
          la=2 lb=2:    190 shell pairs
          la=3 lb=0:    605 shell pairs
          la=3 lb=1:    337 shell pairs
          la=3 lb=2:    179 shell pairs
          la=3 lb=3:     48 shell pairs

Calculating one electron integrals          ... done (  0.5 sec)
Calculating RI/J V-Matrix + Cholesky decomp.... done (  0.1 sec)
Calculating Nuclear repulsion               ... done (  0.0 sec) ENN=    495.386250452601 Eh

SHARK setup successfully completed in   3.3 seconds

Maximum memory used throughout the entire GTOINT-calculation: 127.7 MB
-------------------------------------------------------------------------------
                                 ORCA SCF
-------------------------------------------------------------------------------

------------
SCF SETTINGS
------------
Hamiltonian:
 Density Functional     Method          .... DFT(GTOs)
 Exchange Functional    Exchange        .... B88
   X-Alpha parameter    XAlpha          ....  0.666667
   Becke's b parameter  XBeta           ....  0.004200
 Correlation Functional Correlation     .... LYP
 LDA part of GGA corr.  LDAOpt          .... VWN-5
 Gradients option       PostSCFGGA      .... off
 Hybrid DFT is turned on
   Fraction HF Exchange ScalHFX         ....  0.200000
   Scaling of DF-GGA-X  ScalDFX         ....  0.720000
   Scaling of DF-GGA-C  ScalDFC         ....  0.810000
   Scaling of DF-LDA-C  ScalLDAC        ....  1.000000
   Perturbative correction              ....  0.000000
   Density functional embedding theory  .... OFF
   NL short-range parameter             ....  4.800000
 RI-approximation to the Coulomb term is turned on
   Number of AuxJ basis functions       .... 578
   RIJ-COSX (HFX calculated with COS-X)).... on


General Settings:
 Integral files         IntName         .... para_products_optfreq
 Hartree-Fock type      HFTyp           .... RHF
 Total Charge           Charge          ....    1
 Multiplicity           Mult            ....    1
 Number of Electrons    NEL             ....   72
 Basis Dimension        Dim             ....  358
 Nuclear Repulsion      ENuc            ....    495.3862504526 Eh

Convergence Acceleration:
 DIIS                   CNVDIIS         .... on
   Start iteration      DIISMaxIt       ....    12
   Startup error        DIISStart       ....  0.200000
   # of expansion vecs  DIISMaxEq       ....     5
   Bias factor          DIISBfac        ....   1.050
   Max. coefficient     DIISMaxC        ....  10.000
 Trust-Rad. Augm. Hess. CNVTRAH         .... auto
   Auto Start mean grad. ratio tolernc. ....  1.125000
   Auto Start start iteration           ....    20
   Auto Start num. interpolation iter.  ....    10
   Max. Number of Micro iterations      ....    16
   Max. Number of Macro iterations      .... Maxiter - #DIIS iter
   Number of Davidson start vectors     ....     2
   Converg. threshold I  (grad. norm)   ....   1.000e-05
   Converg. threshold II (energy diff.) ....   1.000e-08
   Grad. Scal. Fac. for Micro threshold ....   0.100
   Minimum threshold for Micro iter.    ....   0.010
   NR start threshold (gradient norm)   ....   0.001
   Initial trust radius                 ....   0.400
   Minimum AH scaling param. (alpha)    ....   1.000
   Maximum AH scaling param. (alpha)    .... 1000.000
   Orbital update algorithm             .... Taylor
   White noise on init. David. guess    .... on
   Maximum white noise                  ....   0.010
   Quad. conv. algorithm                .... NR
 SOSCF                  CNVSOSCF        .... on
   Start iteration      SOSCFMaxIt      ....   150
   Startup grad/error   SOSCFStart      ....  0.003300
 Level Shifting         CNVShift        .... on
   Level shift para.    LevelShift      ....    0.2500
   Turn off err/grad.   ShiftErr        ....    0.0010
 Zerner damping         CNVZerner       .... off
 Static damping         CNVDamp         .... on
   Fraction old density DampFac         ....    0.7000
   Max. Damping (<1)    DampMax         ....    0.9800
   Min. Damping (>=0)   DampMin         ....    0.0000
   Turn off err/grad.   DampErr         ....    0.1000
 Fernandez-Rico         CNVRico         .... off

SCF Procedure:
 Maximum # iterations   MaxIter         ....   125
 SCF integral mode      SCFMode         .... Direct
   Integral package                     .... SHARK and LIBINT hybrid scheme
 Reset frequency        DirectResetFreq ....    20
 Integral Threshold     Thresh          ....  2.500e-11 Eh
 Primitive CutOff       TCut            ....  2.500e-12 Eh

Convergence Tolerance:
 Convergence Check Mode ConvCheckMode   .... Total+1el-Energy
 Convergence forced     ConvForced      .... 0
 Energy Change          TolE            ....  1.000e-08 Eh
 1-El. energy change                    ....  1.000e-05 Eh
 Orbital Gradient       TolG            ....  1.000e-05
 Orbital Rotation angle TolX            ....  1.000e-05
 DIIS Error             TolErr          ....  5.000e-07


Diagonalization of the overlap matrix:
Smallest eigenvalue                        ... 8.219e-06
Time for diagonalization                   ...    0.063 sec
Threshold for overlap eigenvalues          ... 1.000e-08
Number of eigenvalues below threshold      ... 0
Time for construction of square roots      ...    0.038 sec
Total time needed                          ...    0.102 sec

Time for model grid setup =    1.811 sec

------------------------------
INITIAL GUESS: MODEL POTENTIAL
------------------------------
Loading Hartree-Fock densities                     ... done
Calculating cut-offs                               ... done
Initializing the effective Hamiltonian             ... done
Setting up the integral package (SHARK)            ... done
Starting the Coulomb interaction                   ... done (   3.0 sec)
Reading the grid                                   ... done
Mapping shells                                     ... done
Starting the XC term evaluation                    ... done (   2.7 sec)
  promolecular density results
     # of electrons  =     72.995669816
     EX              =    -61.245578916
     EC              =     -2.478547725
     EX+EC           =    -63.724126641
Transforming the Hamiltonian                       ... done (   0.0 sec)
Diagonalizing the Hamiltonian                      ... done (   0.1 sec)
Back transforming the eigenvectors                 ... done (   0.0 sec)
Now organizing SCF variables                       ... done
                      ------------------
                      INITIAL GUESS DONE (   7.7 sec)
                      ------------------
-------------------
DFT GRID GENERATION
-------------------

General Integration Accuracy     IntAcc      ... 4.388
Radial Grid Type                 RadialGrid  ... OptM3 with GC (2021)
Angular Grid (max. ang.)         AngularGrid ... 4 (Lebedev-302)
Angular grid pruning method      GridPruning ... 4 (adaptive)
Weight generation scheme         WeightScheme... Becke
Basis function cutoff            BFCut       ... 1.0000e-11
Integration weight cutoff        WCut        ... 1.0000e-14
Angular grids for H and He will be reduced by one unit
Partially contracted basis set               ... off
Rotationally invariant grid construction     ... off

Total number of grid points                  ...    86181
Total number of batches                      ...     1356
Average number of points per batch           ...       63
Average number of grid points per atom       ...     4788
Time for grid setup =    6.164 sec

--------------------
COSX GRID GENERATION
--------------------

GRIDX 1
-------
General Integration Accuracy     IntAcc      ... 3.816
Radial Grid Type                 RadialGrid  ... OptM3 with GC (2021)
Angular Grid (max. ang.)         AngularGrid ... 1 (Lebedev-50)
Angular grid pruning method      GridPruning ... 4 (adaptive)
Weight generation scheme         WeightScheme... Becke
Basis function cutoff            BFCut       ... 1.0000e-11
Integration weight cutoff        WCut        ... 1.0000e-14
Angular grids for H and He will be reduced by one unit
Partially contracted basis set               ... on
Rotationally invariant grid construction     ... off

Total number of grid points                  ...    11010
Total number of batches                      ...      178
Average number of points per batch           ...       61
Average number of grid points per atom       ...      612
UseSFitting                                  ... on

GRIDX 2
-------
General Integration Accuracy     IntAcc      ... 4.020
Radial Grid Type                 RadialGrid  ... OptM3 with GC (2021)
Angular Grid (max. ang.)         AngularGrid ... 2 (Lebedev-110)
Angular grid pruning method      GridPruning ... 4 (adaptive)
Weight generation scheme         WeightScheme... Becke
Basis function cutoff            BFCut       ... 1.0000e-11
Integration weight cutoff        WCut        ... 1.0000e-14
Angular grids for H and He will be reduced by one unit
Partially contracted basis set               ... on
Rotationally invariant grid construction     ... off

Total number of grid points                  ...    24220
Total number of batches                      ...      387
Average number of points per batch           ...       62
Average number of grid points per atom       ...     1346
UseSFitting                                  ... on

GRIDX 3
-------
General Integration Accuracy     IntAcc      ... 4.338
Radial Grid Type                 RadialGrid  ... OptM3 with GC (2021)
Angular Grid (max. ang.)         AngularGrid ... 3 (Lebedev-194)
Angular grid pruning method      GridPruning ... 4 (adaptive)
Weight generation scheme         WeightScheme... Becke
Basis function cutoff            BFCut       ... 1.0000e-11
Integration weight cutoff        WCut        ... 1.0000e-14
Angular grids for H and He will be reduced by one unit
Partially contracted basis set               ... on
Rotationally invariant grid construction     ... off

Total number of grid points                  ...    53173
Total number of batches                      ...      840
Average number of points per batch           ...       63
Average number of grid points per atom       ...     2954
UseSFitting                                  ... on

Time for X-Grid setup             =    7.549 sec

--------------
SCF ITERATIONS
--------------
ITER       Energy         Delta-E        Max-DP      RMS-DP      [F,P]     Damp
               ***  Starting incremental Fock matrix formation  ***
  0   -475.6785906279   0.000000000000 0.16308389  0.00147015  0.2251137 0.7000
  1   -475.9037713229  -0.225180694974 0.09821891  0.00095419  0.0960631 0.7000
                               ***Turning on DIIS***
  2   -475.8709869693   0.032784353632 0.26130208  0.00258876  0.0676353 0.0000
  3   -475.7066160019   0.164370967396 0.01183190  0.00025913  0.2795276 0.7000
  4   -475.7573422961  -0.050726294248 0.01070649  0.00027815  0.2468275 0.7000
  5   -475.8044905215  -0.047148225387 0.00854680  0.00024997  0.2146465 0.7000
  6   -475.8420267575  -0.037536235948 0.00750567  0.00021953  0.1870175 0.7000
  7   -475.8713879576  -0.029361200179 0.16149609  0.00113380  0.1635002 0.7000
  8   -476.0443353758  -0.172947418180 0.32649125  0.00233842  0.0214640 0.0000
  9   -475.2387621725   0.805573203366 0.01243098  0.00014132  0.3549643 0.7000
 10   -475.2587324520  -0.019970279531 0.01779190  0.00017728  0.3447645 0.7000
 11   -475.2899334360  -0.031200984028 0.02019811  0.00018876  0.3288031 0.7000
 12   -475.3367734580  -0.046840022032 0.02059957  0.00020677  0.3069624 0.7000
 13   -475.4038221772  -0.067048719151 0.12432299  0.00139314  0.2798221 0.7000
 14   -475.8540768044  -0.450254627254 0.08768785  0.00077035  0.1001055 0.7000
 15   -475.9409139441  -0.086837139662 0.06145589  0.00050467  0.1058277 0.7000
 16   -475.9419882349  -0.001074290837 0.04303462  0.00038930  0.1403474 0.7000
 17   -475.9303239224   0.011664312594 0.03012909  0.00030859  0.1553974 0.7000
 18   -475.9211102629   0.009213659492 0.02109278  0.00023349  0.1616217 0.7000
 19   -475.9152865659   0.005823696995 0.01476293  0.00026961  0.1613116 0.7000
               *** Restarting incremental Fock matrix formation ***
                                   *** Resetting DIIS ***

 WARNING: the maximum gradient error descreased on average only by a factor   1.1
          during the last 20 iterations

                      *** Initiating the TRAH-SCF procedure ***


TRAH GRIDX
----------

General Integration Accuracy     IntAcc      ... 3.067
Radial Grid Type                 RadialGrid  ... OptM3 with GC (2021)
Angular Grid (max. ang.)         AngularGrid ... 1 (Lebedev-50)
Angular grid pruning method      GridPruning ... 4 (adaptive)
Weight generation scheme         WeightScheme... Becke
Basis function cutoff            BFCut       ... 1.0000e-11
Integration weight cutoff        WCut        ... 1.0000e-14
Angular grids for H and He will be reduced by one unit
Partially contracted basis set               ... on
Rotationally invariant grid construction     ... off

Total number of grid points                  ...     5818
Total number of batches                      ...      103
Average number of points per batch           ...       56
Average number of grid points per atom       ...      323


TRAH GRID
---------

General Integration Accuracy     IntAcc      ... 3.467
Radial Grid Type                 RadialGrid  ... OptM3 with GC (2021)
Angular Grid (max. ang.)         AngularGrid ... 1 (Lebedev-50)
Angular grid pruning method      GridPruning ... 4 (adaptive)
Weight generation scheme         WeightScheme... Becke
Basis function cutoff            BFCut       ... 1.0000e-11
Integration weight cutoff        WCut        ... 1.0000e-14
Angular grids for H and He will be reduced by one unit
Partially contracted basis set               ... off
Rotationally invariant grid construction     ... off

Total number of grid points                  ...    12692
Total number of batches                      ...      207
Average number of points per batch           ...       61
Average number of grid points per atom       ...      705

 --------------------------------------------------------------------------------------------
   Iter.        energy            ||Error||_2        Shift      TRadius  Mac/Mic        Rej.
 --------------------------------------------------------------------------------------------
WARNING: 15 diagonal Hessian elements are negative!
    0       -475.936047069501     6.803399e-01                     0.400 (TRAH MAcro)   No
WARNING : negative HOMO - LUMO gap : -0.329090
    0     dE    -2.320503e-02     7.579674e-01    -4.6197e-02      0.068 (TRAH MIcro)
    0     dE    -4.336171e-02     2.493337e-01    -8.3847e-02      0.185 (TRAH MIcro)
    0     dE    -4.736502e-02     1.417095e-01    -9.0865e-02      0.206 (TRAH MIcro)
    0     dE    -6.730182e-02     6.756087e-01    -6.7737e-01      0.290 (TRAH MIcro)
    0     dE    -4.591457e-02     2.533953e-01    -1.4432e+00      0.148 (TRAH MIcro)
    0     dE    -5.087443e-02     3.870012e-02    -1.4864e+00      0.164 (TRAH MIcro)
    0     dE    -5.124918e-02     1.185742e-02    -1.4883e+00      0.165 (TRAH MIcro)
    0     dE    -5.153324e-02     7.289937e-03    -1.4886e+00      0.166 (TRAH MIcro)
WARNING: 16 diagonal Hessian elements are negative!
    1       -475.984904072403     1.997154e-01                     0.480 (TRAH MAcro)   No
WARNING : negative HOMO - LUMO gap : -0.255816
    1     dE    -2.411957e-02     1.119761e+00    -4.5803e-02      0.231 (TRAH MIcro)
    1     dE    -1.203998e-01     3.720220e-01    -1.3956e+00      0.362 (TRAH MIcro)
    1     dE    -1.362743e-01     1.025342e-01    -1.4414e+00      0.384 (TRAH MIcro)
    1     dE    -1.393536e-01     3.040629e-02    -1.4472e+00      0.389 (TRAH MIcro)
    1     dE    -1.396256e-01     1.148898e-02    -1.4477e+00      0.389 (TRAH MIcro)
    1     dE    -1.397339e-01     3.572735e-03    -1.4478e+00      0.389 (TRAH MIcro)
WARNING: 2 diagonal Hessian elements are negative!
    2       -476.057647732094     3.450689e-01                     0.480 (TRAH MAcro)   No
WARNING : negative HOMO - LUMO gap : -0.075576
    2     dE    -4.837149e-03     3.870502e-01    -9.6667e-03      0.028 (TRAH MIcro)
    2     dE    -6.223907e-03     4.539851e-01    -1.2399e-02      0.063 (TRAH MIcro)
    2     dE    -1.242494e-02     1.747094e-01    -2.3475e-02      0.242 (TRAH MIcro)
    2     dE    -1.589364e-02     1.249892e-01    -2.8110e-02      0.362 (TRAH MIcro)
    2     dE    -1.947546e-02     1.000948e-01    -4.6376e-02      0.480 (TRAH MIcro)
    2     dE    -1.924441e-02     1.767204e-02    -5.8218e-02      0.458 (TRAH MIcro)
    2     dE    -1.928890e-02     8.706917e-03    -5.8297e-02      0.458 (TRAH MIcro)
 ---------------------------------
          TRAH Step control 
 ---------------------------------
  predicted energy change = -0.019289
  actual energy  change   = 0.024447
  energy change ratio     = -1.267397
  old trust radius        = 0.480000
  new trust radius        = 0.336000
  reject step?            =  1
    3       -476.057647732094     1.997154e-01                     0.336 (TRAH MAcro)  Yes
WARNING: 2 diagonal Hessian elements are negative!
    4       -476.057647732095     3.450689e-01                     0.336 (TRAH MAcro)   No
WARNING : negative HOMO - LUMO gap : -0.075576
    4     dE    -4.836580e-03     3.874211e-01    -9.6656e-03      0.028 (TRAH MIcro)
    4     dE    -6.223296e-03     4.543724e-01    -1.2398e-02      0.063 (TRAH MIcro)
    4     dE    -1.242449e-02     1.746985e-01    -2.3474e-02      0.242 (TRAH MIcro)
    4     dE    -1.559576e-02     9.666241e-02    -3.8735e-02      0.336 (TRAH MIcro)
    4     dE    -1.621088e-02     3.175249e-02    -6.8136e-02      0.336 (TRAH MIcro)
    4     dE    -1.631614e-02     1.819011e-02    -6.8307e-02      0.336 (TRAH MIcro)
    4     dE    -1.634170e-02     7.734459e-03    -6.5088e-02      0.336 (TRAH MIcro)
    5       -476.057964773179     2.072894e-01                     0.235 (TRAH MAcro)   No
    5     dE    -4.310900e-03     3.009899e-01    -8.6069e-03      0.042 (TRAH MIcro)
    5     dE    -6.162920e-03     1.926475e-01    -1.2271e-02      0.067 (TRAH MIcro)
    5     dE    -8.337146e-03     7.071582e-02    -1.6517e-02      0.097 (TRAH MIcro)
    5     dE    -8.655365e-03     3.562284e-02    -1.7125e-02      0.104 (TRAH MIcro)
    5     dE    -8.827422e-03     1.409516e-02    -1.7434e-02      0.113 (TRAH MIcro)
    5     dE    -8.841922e-03     6.338785e-03    -1.7457e-02      0.114 (TRAH MIcro)
WARNING: 2 diagonal Hessian elements are negative!
    6       -476.067882849136     3.605306e-02                     0.282 (TRAH MAcro)   No
WARNING : negative HOMO - LUMO gap : -0.018459
    6     dE    -1.866142e-04     8.603960e-02    -3.7319e-04      0.010 (TRAH MIcro)
    6     dE    -2.968773e-04     6.925001e-02    -5.9355e-04      0.018 (TRAH MIcro)
    6     dE    -1.068036e-03     4.473567e-02    -2.1233e-03      0.078 (TRAH MIcro)
    6     dE    -1.225999e-03     2.464294e-02    -2.4300e-03      0.095 (TRAH MIcro)
    6     dE    -1.262203e-03     1.820517e-02    -2.4994e-03      0.100 (TRAH MIcro)
    6     dE    -1.290506e-03     1.990652e-02    -2.5535e-03      0.104 (TRAH MIcro)
    6     dE    -3.135097e-03     2.974820e-01    -3.5318e-02      0.282 (TRAH MIcro)
    6     dE    -2.686902e-03     5.054199e-02    -1.5665e-01      0.146 (TRAH MIcro)
    6     dE    -4.469950e-03     2.105544e-02    -1.6867e-01      0.200 (TRAH MIcro)
    6     dE    -4.665757e-03     8.780213e-03    -1.6979e-01      0.205 (TRAH MIcro)
    6     dE    -4.687313e-03     2.683449e-03    -1.6994e-01      0.206 (TRAH MIcro)
    7       -476.071922256598     7.622986e-02                     0.339 (TRAH MAcro)   No
WARNING : small    HOMO - LUMO gap : 0.003402
    7     dE    -5.479982e-04     1.073785e-01    -1.0958e-03      0.014 (TRAH MIcro)
    7     dE    -7.073295e-03     2.984288e-01    -2.9954e-02      0.339 (TRAH MIcro)
    7     dE    -8.330313e-03     2.550519e-01    -5.5250e-02      0.339 (TRAH MIcro)
    7     dE    -1.042129e-02     5.358560e-02    -9.7628e-02      0.314 (TRAH MIcro)
    7     dE    -1.071288e-02     1.852144e-02    -9.8999e-02      0.319 (TRAH MIcro)
    7     dE    -1.075074e-02     1.093999e-02    -9.9143e-02      0.319 (TRAH MIcro)
    7     dE    -1.076975e-02     6.299068e-03    -9.9195e-02      0.320 (TRAH MIcro)
    8       -476.077302014132     1.614727e-01                     0.339 (TRAH MAcro)   No
    8     dE    -2.549259e-03     2.423968e-01    -5.0933e-03      0.032 (TRAH MIcro)
    8     dE    -3.769096e-03     1.031064e-01    -7.5158e-03      0.055 (TRAH MIcro)
    8     dE    -4.292887e-03     3.149304e-02    -8.5487e-03      0.066 (TRAH MIcro)
    8     dE    -4.705721e-03     1.467396e-02    -9.3281e-03      0.095 (TRAH MIcro)
    8     dE    -4.717324e-03     7.988223e-03    -9.3486e-03      0.096 (TRAH MIcro)
    9       -476.082356572422     2.063351e-02                     0.406 (TRAH MAcro)   No
WARNING : small    HOMO - LUMO gap : 0.015047
    9     dE    -2.720478e-05     3.479829e-02    -5.4409e-05      0.003 (TRAH MIcro)
    9     dE    -1.066872e-04     2.920976e-02    -2.1333e-04      0.014 (TRAH MIcro)
    9     dE    -2.965210e-04     4.868509e-02    -5.9130e-04      0.054 (TRAH MIcro)
    9     dE    -7.599917e-04     6.102121e-02    -1.4781e-03      0.168 (TRAH MIcro)
    9     dE    -1.076799e-03     4.054997e-02    -2.0280e-03      0.249 (TRAH MIcro)
    9     dE    -1.369413e-03     3.590348e-02    -2.4723e-03      0.328 (TRAH MIcro)
    9     dE    -1.769337e-03     2.693973e-02    -5.4619e-03      0.406 (TRAH MIcro)
    9     dE    -1.817549e-03     1.118056e-02    -6.3855e-03      0.406 (TRAH MIcro)
    9     dE    -1.827271e-03     5.026123e-03    -6.5670e-03      0.406 (TRAH MIcro)
    9     dE    -1.829060e-03     2.021533e-03    -6.6210e-03      0.406 (TRAH MIcro)
 ---------------------------------
          TRAH Step control 
 ---------------------------------
  predicted energy change = -0.001829
  actual energy  change   = 0.011544
  energy change ratio     = -6.311470
  old trust radius        = 0.406426
  new trust radius        = 0.284498
  reject step?            =  1
   10       -476.082356572422     1.614727e-01                     0.284 (TRAH MAcro)  Yes
   11       -476.082356572421     2.063351e-02                     0.284 (TRAH MAcro)   No
WARNING : small    HOMO - LUMO gap : 0.015047
   11     dE    -2.717383e-05     3.479982e-02    -5.4347e-05      0.003 (TRAH MIcro)
   11     dE    -1.062125e-04     2.886407e-02    -2.1238e-04      0.014 (TRAH MIcro)
   11     dE    -2.967777e-04     4.872232e-02    -5.9181e-04      0.054 (TRAH MIcro)
   11     dE    -7.605019e-04     6.097211e-02    -1.4790e-03      0.168 (TRAH MIcro)
   11     dE    -1.077035e-03     4.056199e-02    -2.0284e-03      0.249 (TRAH MIcro)
   11     dE    -1.315899e-03     2.842178e-02    -5.7716e-03      0.284 (TRAH MIcro)
   11     dE    -1.438211e-03     1.445867e-02    -1.1263e-02      0.284 (TRAH MIcro)
   11     dE    -1.452330e-03     6.020460e-03    -1.1953e-02      0.284 (TRAH MIcro)
   11     dE    -1.455179e-03     2.689716e-03    -1.2084e-02      0.284 (TRAH MIcro)
   11     dE    -1.455694e-03     1.058858e-03    -1.2131e-02      0.284 (TRAH MIcro)
 ---------------------------------
          TRAH Step control 
 ---------------------------------
  predicted energy change = -0.001456
  actual energy  change   = 0.001812
  energy change ratio     = -1.244951
  old trust radius        = 0.284498
  new trust radius        = 0.199149
  reject step?            =  1
   12       -476.082356572421     1.614727e-01                     0.199 (TRAH MAcro)  Yes
   13       -476.082356572421     2.063351e-02                     0.199 (TRAH MAcro)   No
WARNING : small    HOMO - LUMO gap : 0.015047
   13     dE    -2.716271e-05     3.483791e-02    -5.4325e-05      0.003 (TRAH MIcro)
   13     dE    -1.063379e-04     2.950878e-02    -2.1263e-04      0.014 (TRAH MIcro)
   13     dE    -2.967895e-04     4.869126e-02    -5.9183e-04      0.054 (TRAH MIcro)
   13     dE    -7.601657e-04     6.099914e-02    -1.4784e-03      0.168 (TRAH MIcro)
   13     dE    -1.016041e-03     3.172422e-02    -9.7496e-03      0.199 (TRAH MIcro)
   13     dE    -1.095481e-03     1.473883e-02    -1.5156e-02      0.199 (TRAH MIcro)
   13     dE    -1.131431e-03     7.846094e-03    -1.9473e-02      0.199 (TRAH MIcro)
   13     dE    -1.135613e-03     3.445906e-03    -2.0107e-02      0.199 (TRAH MIcro)
   13     dE    -1.136530e-03     1.496474e-03    -2.0222e-02      0.199 (TRAH MIcro)
   14       -476.082765099338     6.706240e-02                     0.199 (TRAH MAcro)   No
   14     dE    -4.691597e-04     9.371397e-02    -9.3813e-04      0.014 (TRAH MIcro)
   14     dE    -7.157431e-04     3.341238e-02    -1.4306e-03      0.025 (TRAH MIcro)
   14     dE    -7.879867e-04     1.232168e-02    -1.5745e-03      0.030 (TRAH MIcro)
   14     dE    -8.114580e-04     1.290867e-02    -1.6207e-03      0.037 (TRAH MIcro)
   14     dE    -8.292936e-04     5.639781e-03    -1.6552e-03      0.046 (TRAH MIcro)
   15       -476.083651006144     7.335391e-03                     0.239 (TRAH MAcro)   No
WARNING : small    HOMO - LUMO gap : 0.015199
   15     dE    -8.810237e-07     1.255876e-02    -1.7620e-06      0.000 (TRAH MIcro)
   15     dE    -8.382795e-06     9.945605e-03    -1.6765e-05      0.004 (TRAH MIcro)
   15     dE    -6.361238e-05     2.631273e-02    -1.2703e-04      0.039 (TRAH MIcro)
   15     dE    -1.520858e-04     2.993252e-02    -3.0123e-04      0.099 (TRAH MIcro)
   15     dE    -1.954771e-04     1.296962e-02    -3.8458e-04      0.129 (TRAH MIcro)
   15     dE    -2.017978e-04     5.331606e-03    -3.9646e-04      0.134 (TRAH MIcro)
   15     dE    -2.053166e-04     4.308014e-03    -4.0301e-04      0.138 (TRAH MIcro)
   15     dE    -2.070815e-04     2.627926e-03    -4.0630e-04      0.139 (TRAH MIcro)
   15     dE    -2.078243e-04     1.424537e-03    -4.0765e-04      0.140 (TRAH MIcro)
   15     dE    -2.079551e-04     5.943367e-04    -4.0788e-04      0.140 (TRAH MIcro)
   16       -476.083669912550     3.522727e-02                     0.167 (TRAH MAcro)   No
WARNING : small    HOMO - LUMO gap : 0.018989
   16     dE    -1.258782e-04     4.663183e-02    -2.5174e-04      0.007 (TRAH MIcro)
   16     dE    -1.907228e-04     1.722005e-02    -3.8138e-04      0.013 (TRAH MIcro)
   16     dE    -2.045961e-04     4.884137e-03    -4.0911e-04      0.014 (TRAH MIcro)
   16     dE    -2.057814e-04     2.264915e-03    -4.1148e-04      0.014 (TRAH MIcro)
   17       -476.083877752278     2.332625e-03                     0.201 (TRAH MAcro)   No
WARNING : small    HOMO - LUMO gap : 0.014937
   17     dE    -1.206725e-07     3.681821e-03    -2.4135e-07      0.000 (TRAH MIcro)
   17     dE    -3.051224e-07     2.799824e-03    -6.1024e-07      0.001 (TRAH MIcro)
   17     dE    -9.933111e-07     2.579232e-03    -1.9866e-06      0.003 (TRAH MIcro)
   17     dE    -2.277088e-06     3.466126e-03    -4.5539e-06      0.008 (TRAH MIcro)
   17     dE    -2.784457e-06     2.550365e-03    -5.5682e-06      0.011 (TRAH MIcro)
   17     dE    -3.035844e-06     1.138132e-03    -6.0707e-06      0.013 (TRAH MIcro)
   17     dE    -3.225615e-06     1.216216e-03    -6.4499e-06      0.015 (TRAH MIcro)
   17     dE    -3.324608e-06     4.817466e-04    -6.6476e-06      0.015 (TRAH MIcro)
   17     dE    -3.361130e-06     3.306409e-04    -6.7206e-06      0.016 (TRAH MIcro)
   17     dE    -3.370026e-06     1.350492e-04    -6.7383e-06      0.016 (TRAH MIcro)
   18       -476.083881178788     4.627296e-04                           (NR   MAcro)
WARNING : small    HOMO - LUMO gap : 0.014922
   18     dE    -3.031035e-08     2.712485e-04                           (NR   MIcro)
   18     dE    -3.539339e-08     8.949134e-05                           (NR   MIcro)
   18     dE    -3.659646e-08     9.200488e-05                           (NR   MIcro)
   18     dE    -3.813332e-08     9.056596e-05                           (NR   MIcro)
   18     dE    -3.888425e-08     5.876665e-05                           (NR   MIcro)
   18     dE    -3.936236e-08     6.260607e-05                           (NR   MIcro)
   18     dE    -3.979437e-08     3.650451e-05                           (NR   MIcro)
   18     dE    -3.992327e-08     2.191874e-05                           (NR   MIcro)
   18     dE    -3.997484e-08     1.074266e-05                           (NR   MIcro)
   18     dE    -3.998970e-08     5.721277e-06                           (NR   MIcro)
   18     dE    -3.999194e-08     2.502543e-06                           (NR   MIcro)
   18     dE    -3.999250e-08     9.702731e-07                           (NR   MIcro)
   19       -476.083881219425     1.796292e-06                           (NR   MAcro)
WARNING : small    HOMO - LUMO gap : 0.014864
   19     dE    -1.699074e-13     1.526772e-06                           (NR   MIcro)
   19     dE    -1.073635e-12     2.788686e-06                           (NR   MIcro)
   19     dE    -2.345011e-12     3.022841e-06                           (NR   MIcro)
   19     dE    -3.023352e-12     2.345042e-06                           (NR   MIcro)
   19     dE    -3.385941e-12     1.356594e-06                           (NR   MIcro)
   19     dE    -3.519541e-12     7.868011e-07                           (NR   MIcro)
   20       -476.083881219435     7.810498e-07                           (NR   MAcro)
WARNING : small    HOMO - LUMO gap : 0.014864

               *****************************************************
               *                     SUCCESS                       *
               *           SCF CONVERGED AFTER 171 CYCLES          *
               *****************************************************

Old exchange energy                            =    -12.292262422 Eh
New exchange energy                            =    -12.292244115 Eh
Exchange energy change after final integration =      0.000018307 Eh
Total energy after final integration           =   -476.083862912 Eh
Final COS-X integration done in                =   141.522 sec

----------------
TOTAL SCF ENERGY
----------------

Total Energy       :         -476.08386291 Eh          -12954.90052 eV

Components:
Nuclear Repulsion  :          495.38625045 Eh           13480.14519 eV
Electronic Energy  :         -971.47011336 Eh          -26435.04572 eV
One Electron Energy:        -1617.13426857 Eh          -44004.46059 eV
Two Electron Energy:          645.66415520 Eh           17569.41487 eV
Max COSX asymmetry :            0.00000147 Eh               0.00004 eV

Virial components:
Potential Energy   :         -949.91709479 Eh          -25848.55826 eV
Kinetic Energy     :          473.83323187 Eh           12893.65774 eV
Virial Ratio       :            2.00474984


DFT components:
N(Alpha)           :       35.999974076922 electrons
N(Beta)            :       35.999974076922 electrons
N(Total)           :       71.999948153843 electrons
E(X)               :      -49.068643325038 Eh       
E(C)               :       -2.893235673246 Eh       
E(XC)              :      -51.961878998284 Eh       
DFET-embed. en.    :        0.000000000000 Eh       

---------------
SCF CONVERGENCE
---------------

  Last Energy change         ...   -9.5497e-12  Tolerance :   1.0000e-08
  Last Orbital Gradient      ...    7.8105e-07  Tolerance :   1.0000e-05
  Last Orbital Rotation      ...    1.8018e-05

             **** THE GBW FILE WAS UPDATED (para_products_optfreq.gbw) ****
             **** DENSITY para_products_optfreq.scfp WAS UPDATED ****
             **** ENERGY FILE WAS UPDATED (para_products_optfreq.en.tmp) ****
             **** THE GBW FILE WAS UPDATED (para_products_optfreq.gbw) ****
             **** DENSITY para_products_optfreq.scfp WAS UPDATED ****
----------------
ORBITAL ENERGIES
----------------

  NO   OCC          E(Eh)            E(eV) 
   0   2.0000     -19.316915      -525.6400 
   1   2.0000     -19.316857      -525.6384 
   2   2.0000     -14.699354      -399.9898 
   3   2.0000     -10.423532      -283.6387 
   4   2.0000     -10.391947      -282.7792 
   5   2.0000     -10.369776      -282.1759 
   6   2.0000     -10.369209      -282.1605 
   7   2.0000     -10.362226      -281.9705 
   8   2.0000     -10.361850      -281.9603 
   9   2.0000     -10.329168      -281.0710 
  10   2.0000      -1.339199       -36.4415 
  11   2.0000      -1.168888       -31.8071 
  12   2.0000      -1.064578       -28.9686 
  13   2.0000      -0.998968       -27.1833 
  14   2.0000      -0.934321       -25.4242 
  15   2.0000      -0.910347       -24.7718 
  16   2.0000      -0.830486       -22.5987 
  17   2.0000      -0.799246       -21.7486 
  18   2.0000      -0.752899       -20.4874 
  19   2.0000      -0.708870       -19.2893 
  20   2.0000      -0.674446       -18.3526 
  21   2.0000      -0.671257       -18.2658 
  22   2.0000      -0.639844       -17.4110 
  23   2.0000      -0.631541       -17.1851 
  24   2.0000      -0.622544       -16.9403 
  25   2.0000      -0.602311       -16.3897 
  26   2.0000      -0.589544       -16.0423 
  27   2.0000      -0.550361       -14.9761 
  28   2.0000      -0.536630       -14.6024 
  29   2.0000      -0.534569       -14.5464 
  30   2.0000      -0.524134       -14.2624 
  31   2.0000      -0.466419       -12.6919 
  32   2.0000      -0.456680       -12.4269 
  33   2.0000      -0.439247       -11.9525 
  34   2.0000      -0.438421       -11.9300 
  35   2.0000      -0.431656       -11.7460 
  36   0.0000      -0.416792       -11.3415 
  37   0.0000      -0.268220        -7.2986 
  38   0.0000      -0.193606        -5.2683 
  39   0.0000      -0.164982        -4.4894 
  40   0.0000      -0.092486        -2.5167 
  41   0.0000      -0.072048        -1.9605 
  42   0.0000      -0.059424        -1.6170 
  43   0.0000      -0.053377        -1.4525 
  44   0.0000      -0.039579        -1.0770 
  45   0.0000      -0.019114        -0.5201 
[...]
    58. A(H   7,C   6,H   9)          107.14 -0.000029   -0.12    107.02   
    59. A(C   0,C   6,H   9)          109.13  0.000002   -0.04    109.08   
    60. A(H   7,C   6,H   8)          110.25  0.000060    0.02    110.26   
    61. A(C   0,C   6,H   8)          111.73 -0.000010    0.11    111.84   
    62. A(C   0,C   6,H   7)          112.43  0.000015   -0.02    112.41   
    63. A(C   1,H  10,H  17)           58.95 -0.000009   -0.49     58.46   
    64. A(C   2,H  11,H  17)          109.04  0.000054    0.00    109.04   
    65. A(O  15,N  14,H  17)           53.62  0.000027   -0.14     53.48   
    66. A(C   3,N  14,H  17)          135.23 -0.000018    1.45    136.68   
    67. A(O  15,N  14,O  16)          125.89 -0.000020    0.06    125.95   
    68. A(C   3,N  14,O  16)          117.28  0.000038   -0.02    117.26   
    69. A(C   3,N  14,O  15)          116.83 -0.000018   -0.04    116.79   
    70. A(O  16,N  14,H  17)           86.76 -0.000008   -0.83     85.93   
    71. A(N  14,O  15,H  17)          117.82 -0.000002    0.16    117.98   
    72. A(N  14,O  16,H  17)           83.62  0.000035    0.83     84.45   
    73. A(C   3,H  17,N  14)            7.08  0.000013   -0.21      6.87   
    74. A(C   2,H  17,N  14)           13.76  0.000013   -0.28     13.48   
    75. A(C   1,H  17,N  14)           17.19  0.000021   -0.44     16.74   
    76. A(H  10,H  17,H  11)            8.33  0.000002   -0.25      8.09   
    77. A(C   4,H  17,H  11)           22.07 -0.000021   -0.06     22.00   
    78. A(C   3,H  17,H  11)           14.81 -0.000007   -0.07     14.74   
    79. A(C   2,H  17,H  11)            6.68 -0.000010   -0.04      6.64   
    80. A(C   1,H  17,H  11)            9.24 -0.000006   -0.14      9.11   
    81. A(C   4,H  17,H  10)           21.60 -0.000005   -0.19     21.41   
    82. A(C   3,H  17,H  10)           16.12  0.000008   -0.27     15.85   
    83. A(C   2,H  17,H  10)            7.91  0.000007   -0.21      7.70   
    84. A(C   1,H  17,H  10)            5.35  0.000001   -0.06      5.29   
    85. A(C   3,H  17,C   4)            7.60 -0.000013   -0.02      7.58   
    86. A(C   2,H  17,C   4)           15.66 -0.000010   -0.04     15.61   
    87. A(C   1,H  17,C   4)           16.25 -0.000005   -0.13     16.12   
    88. A(C   4,H  17,N  14)           11.09  0.000001   -0.21     10.88   
    89. A(O  15,H  17,O  16)           17.11 -0.000051    0.05     17.16   
    90. A(N  14,H  17,O  16)            9.62 -0.000027    0.01      9.62   
    91. A(H  11,H  17,O  16)           17.25  0.000012   -0.27     16.98   
    92. A(C   2,H  17,C   3)            8.90  0.000003   -0.07      8.83   
    93. A(C   2,H  17,O  16)           16.96  0.000004   -0.32     16.64   
    94. A(C   1,H  17,C   3)           11.06  0.000008   -0.22     10.84   
    95. A(C   1,H  17,O  16)           21.41  0.000009   -0.47     20.94   
    96. A(N  14,H  17,O  15)            8.57 -0.000025   -0.02      8.54   
    97. A(H  11,H  17,O  15)           25.40 -0.000023   -0.25     25.16   
    98. A(H  10,H  17,O  15)           27.50 -0.000001   -0.54     26.96   
    99. A(C   4,H  17,O  15)            8.61  0.000012   -0.44      8.17   
   100. A(C   3,H  17,O  15)           11.39 -0.000010   -0.27     11.12   
   101. A(C   2,H  17,O  15)           20.17 -0.000010   -0.32     19.85   
   102. A(C   3,H  17,O  16)           14.95 -0.000011   -0.18     14.77   
   103. A(C   4,H  17,O  16)           20.62 -0.000027   -0.19     20.43   
   104. A(H  10,H  17,O  16)           24.16  0.000016   -0.54     23.62   
   105. A(C   1,H  17,C   2)            4.51  0.000006   -0.15      4.37   
   106. A(C   1,H  17,O  15)           22.35  0.000000   -0.50     21.86   
   107. A(H  11,H  17,N  14)           17.75  0.000003   -0.20     17.55   
   108. A(H  10,H  17,N  14)           21.64  0.000020   -0.49     21.15   
   109. D(C   2,C   1,C   0,C   6)    178.60  0.000017   -0.01    178.58   
   110. D(C   2,C   1,C   0,C   5)     -0.24  0.000019    0.02     -0.22   
   111. D(H  17,C   1,C   0,C   6)   -147.22  0.000028   -1.06   -148.28   
   112. D(H  10,C   1,C   0,C   6)     -1.30  0.000029   -0.13     -1.43   
   113. D(H  10,C   1,C   0,C   5)    179.87  0.000032   -0.10    179.77   
   114. D(H  17,C   1,C   0,C   5)     33.95  0.000030   -1.03     32.92   
   115. D(H  17,C   2,C   1,H  10)    -90.03  0.000020   -0.62    -90.64   
   116. D(H  11,C   2,C   1,H  17)     90.29 -0.000057    0.72     91.01   
   117. D(H  17,C   2,C   1,C   0)     90.08  0.000033   -0.73     89.35   
   118. D(H  11,C   2,C   1,C   0)   -179.64 -0.000024   -0.01   -179.65   
   119. D(C   3,C   2,C   1,H  10)   -179.57  0.000001    0.07   -179.50   
   120. D(C   3,C   2,C   1,H  17)    -89.54 -0.000018    0.69    -88.85   
   121. D(H  11,C   2,C   1,H  10)      0.26 -0.000037    0.10      0.36   
   122. D(C   3,C   2,C   1,C   0)      0.54  0.000014   -0.04      0.50   
   123. D(N  14,C   3,C   2,H  11)     -0.46  0.000035   -0.12     -0.58   
   124. D(N  14,C   3,C   2,C   1)    179.37 -0.000003   -0.08    179.28   
   125. D(C   4,C   3,C   2,H  11)    179.76 -0.000001   -0.02    179.74   
   126. D(H  17,C   3,C   2,C   1)    141.72 -0.000006    0.94    142.66   
   127. D(C   4,C   3,C   2,C   1)     -0.41 -0.000039    0.01     -0.40   
   128. D(H  17,C   3,C   2,H  11)    -38.11  0.000032    0.91    -37.20   
   129. D(C   4,C   3,C   2,H  17)   -142.13 -0.000033   -0.93   -143.06   
   130. D(N  14,C   3,C   2,H  17)     37.64  0.000004   -1.02     36.62   
   131. D(H  17,C   4,C   3,C   2)    136.25  0.000011    1.37    137.62   
   132. D(C   5,C   4,C   3,H  17)   -136.29  0.000018   -1.32   -137.61   
   133. D(H  12,C   4,C   3,N  14)      0.00 -0.000009    0.03      0.03   
   134. D(H  12,C   4,C   3,H  17)     43.53  0.000017   -1.43     42.10   
   135. D(H  17,C   4,C   3,N  14)    -43.53 -0.000025    1.46    -42.06   
   136. D(C   5,C   4,C   3,C   2)     -0.04  0.000029    0.05      0.01   
   137. D(C   5,C   4,C   3,N  14)   -179.82 -0.000007    0.14   -179.68   
   138. D(H  12,C   4,C   3,C   2)    179.78  0.000028   -0.06    179.72   
   139. D(H  13,C   5,C   0,C   6)      1.09 -0.000011    0.09      1.19   
   140. D(H  13,C   5,C   0,C   1)    179.92 -0.000014    0.06    179.98   
   141. D(C   4,C   5,C   0,C   1)     -0.23 -0.000029    0.04     -0.19   
   142. D(H  13,C   5,C   4,H  17)    117.23 -0.000017   -0.16    117.07   
   143. D(C   0,C   5,C   4,C   3)      0.36  0.000006   -0.07      0.29   
   144. D(C   0,C   5,C   4,H  17)    -62.62 -0.000001   -0.14    -62.76   
   145. D(C   0,C   5,C   4,H  12)   -179.46  0.000008    0.04   -179.42   
   146. D(H  13,C   5,C   4,H  12)      0.40 -0.000008    0.02      0.41   
   147. D(H  13,C   5,C   4,C   3)   -179.79 -0.000009   -0.10   -179.89   
   148. D(C   4,C   5,C   0,C   6)   -179.05 -0.000026    0.07   -178.98   
   149. D(H   7,C   6,C   0,C   5)    -21.30  0.000038   -1.19    -22.49   
   150. D(H   8,C   6,C   0,C   5)   -145.88 -0.000045   -1.28   -147.16   
   151. D(H   7,C   6,C   0,C   1)    159.89  0.000042   -1.16    158.74   
   152. D(H   8,C   6,C   0,C   1)     35.31 -0.000041   -1.25     34.06   
   153. D(H   9,C   6,C   0,C   1)    -81.38  0.000016   -1.35    -82.73   
   154. D(H   9,C   6,C   0,C   5)     97.43  0.000012   -1.38     96.05   
   155. D(H  17,H  10,C   1,C   2)     33.98  0.000002   -0.83     33.15   
   156. D(H  17,H  10,C   1,C   0)   -146.12 -0.000011   -0.71   -146.84   
   157. D(H  17,H  11,C   2,C   3)     39.08 -0.000015   -1.19     37.89   
   158. D(H  17,H  11,C   2,C   1)   -140.75  0.000024   -1.22   -141.96   
   159. D(O  16,N  14,C   3,H  17)    115.43  0.000018    0.03    115.46   
   160. D(O  15,N  14,C   3,C   4)     39.83  0.000014   -0.33     39.51   
   161. D(O  15,N  14,C   3,C   2)   -139.95 -0.000021   -0.24   -140.19   
   162. D(O  16,N  14,C   3,C   4)   -140.45  0.000053   -0.38   -140.83   
   163. D(O  16,N  14,C   3,C   2)     39.76  0.000018   -0.29     39.47   
   164. D(O  15,N  14,C   3,H  17)    -64.28 -0.000021    0.08    -64.20   
   165. D(H  17,N  14,C   3,C   4)    104.11  0.000034   -0.41    103.71   
   166. D(H  17,N  14,C   3,C   2)    -75.67 -0.000000   -0.32    -75.99   
   167. D(H  17,O  15,N  14,O  16)    -51.69 -0.000054    1.85    -49.84   
   168. D(H  17,O  15,N  14,C   3)    128.00 -0.000011    1.79    129.79   
   169. D(H  17,O  16,N  14,C   3)   -140.43  0.000008   -1.18   -141.61   
   170. D(H  17,O  16,N  14,O  15)     39.25  0.000051   -1.24     38.01   
   171. D(C   2,H  17,C   1,C   0)   -106.67  0.000012   -0.17   -106.85   
   172. D(O  16,H  17,C   3,C   4)   -129.56  0.000079   -0.02   -129.58   
   173. D(O  16,H  17,C   3,C   2)     87.17  0.000088   -0.98     86.19   
   174. D(O  15,H  17,C   3,C   4)    -49.29 -0.000145    1.78    -47.51   
   175. D(O  15,H  17,C   3,C   2)    167.44 -0.000135    0.82    168.26   
   176. D(N  14,H  17,C   3,C   4)    -98.17 -0.000010    0.43    -97.75   
   177. D(H  11,H  17,C   3,N  14)   -102.86 -0.000017    0.18   -102.68   
   178. D(H  11,H  17,C   3,C   4)    158.97 -0.000027    0.61    159.58   
   179. D(H  11,H  17,C   3,C   2)     15.69 -0.000017   -0.35     15.34   
   180. D(H  10,H  17,C   3,N  14)   -134.11 -0.000013    0.67   -133.44   
   181. D(H  10,H  17,C   3,C   4)    127.72 -0.000023    1.10    128.81   
   182. D(H  10,H  17,C   3,C   2)    -15.56 -0.000014    0.14    -15.42   
   183. D(C   4,H  17,C   3,N  14)     98.17  0.000010   -0.43     97.75   
   184. D(C   2,H  17,C   3,N  14)   -118.55  0.000001    0.53   -118.02   
   185. D(C   2,H  17,C   3,C   4)    143.27 -0.000010    0.96    144.23   
   186. D(C   1,H  17,C   3,N  14)   -141.70 -0.000013    0.70   -141.00   
   187. D(C   1,H  17,C   3,C   2)    -23.15 -0.000014    0.17    -22.98   
   188. D(O  16,H  17,C   2,H  11)     81.51  0.000094    0.27     81.78   
   189. D(O  16,H  17,C   2,C   3)    -62.01  0.000094   -0.62    -62.63   
   190. D(O  15,H  17,C   2,H  11)    136.37 -0.000073    1.41    137.78   
   191. D(O  15,H  17,C   2,C   3)     -7.16 -0.000074    0.52     -6.63   
   192. D(O  15,H  17,C   2,C   1)   -113.76 -0.000099    1.48   -112.28   
   193. D(N  14,H  17,C   2,C   3)    -27.09 -0.000028    0.13    -26.96   
   194. D(C   3,H  17,O  16,N  14)     22.61  0.000051   -0.41     22.20   
   195. D(N  14,H  17,C   2,C   1)   -133.69 -0.000053    1.09   -132.61   
   196. D(C   2,H  17,O  16,N  14)     54.59  0.000056   -0.08     54.52   
   197. D(C   1,H  17,O  16,N  14)     52.15  0.000039   -0.12     52.03   
   198. D(H  11,H  17,C   2,C   3)   -143.52 -0.000000   -0.89   -144.41   
   199. D(H  11,H  17,C   2,C   1)    109.87 -0.000026    0.07    109.94   
   200. D(C   4,H  17,O  15,N  14)    -80.63 -0.000079   -0.76    -81.39   
   201. D(H  10,H  17,C   2,H  11)    -69.26 -0.000018    0.85    -68.40   
   202. D(H  10,H  17,C   2,C   3)    147.22 -0.000019   -0.03    147.19   
   203. D(C   1,H  17,O  15,N  14)    -43.91 -0.000068   -0.08    -43.99   
   204. D(C   4,H  17,O  16,N  14)      5.78  0.000039   -0.51      5.27   
   205. D(H  10,H  17,O  16,N  14)     64.04  0.000025    0.05     64.09   
   206. D(N  14,H  17,C   2,H  11)    116.43 -0.000027    1.02    117.45   
   207. D(O  16,H  17,N  14,O  15)   -140.46  0.000047   -1.17   -141.63   
   208. D(H  10,H  17,C   2,C   1)     40.62 -0.000044    0.92     41.54   
   209. D(C   4,H  17,C   2,H  11)    160.56 -0.000015    0.50    161.06   
   210. D(O  16,H  17,C   2,C   1)   -168.62  0.000068    0.33   -168.28   
   211. D(H  11,H  17,N  14,O  16)    -71.67 -0.000094    0.64    -71.03   
   212. D(C   4,H  17,C   2,C   3)     17.03 -0.000015   -0.39     16.65   
   213. D(C   4,H  17,C   2,C   1)    -89.57 -0.000040    0.57    -89.00   
   214. D(C   1,H  17,C   3,C   4)    120.13 -0.000024    1.12    121.25   
   215. D(H  10,H  17,N  14,O  16)    -93.77 -0.000060    0.65    -93.12   
   216. D(H  10,H  17,N  14,O  15)    125.78 -0.000013   -0.53    125.25   
   217. D(C   3,H  17,C   2,H  11)    143.52  0.000000    0.89    144.41   
   218. D(C   4,H  17,C   3,C   2)   -143.27  0.000010   -0.96   -144.23   
   219. D(C   3,H  17,C   2,C   1)   -106.60 -0.000025    0.95   -105.65   
   220. D(C   4,H  17,N  14,C   3)    -42.88  0.000095   -0.88    -43.76   
   221. D(C   1,H  17,C   2,H  11)   -109.87  0.000026   -0.07   -109.94   
   222. D(C   1,H  17,C   2,C   3)    106.60  0.000025   -0.95    105.65   
   223. D(C   2,H  17,N  14,O  16)    -91.65 -0.000064    0.70    -90.95   
   224. D(C   2,H  17,N  14,O  15)    127.90 -0.000016   -0.47    127.42   
   225. D(O  16,H  17,C   1,H  10)    115.34  0.000081   -0.61    114.73   
   226. D(N  14,H  17,C   3,C   2)    118.55 -0.000001   -0.53    118.02   
   227. D(O  16,H  17,C   1,C   2)      9.08  0.000053    0.28      9.36   
   228. D(C   1,H  17,N  14,C   3)     23.74 -0.000019    0.52     24.25   
   229. D(O  16,H  17,C   1,C   0)    -97.60  0.000064    0.11    -97.49   
   230. D(O  15,H  17,C   3,N  14)     48.88 -0.000135    1.35     50.24   
   231. D(O  15,H  17,H  11,C   2)    -33.68 -0.000066    1.22    -32.46   
   232. D(O  15,H  17,C   1,H  10)    162.32 -0.000077    0.54    162.87   
   233. D(O  16,H  17,C   3,N  14)    -31.38  0.000089   -0.45    -31.83   
   234. D(C   1,H  17,C   4,C   3)    -36.39 -0.000053    0.99    -35.39   
   235. D(N  14,H  17,H  11,C   2)    -44.32 -0.000057    0.99    -43.33   
   236. D(H  10,H  17,H  11,C   2)     62.56  0.000085   -0.29     62.27   
   237. D(O  15,H  17,C   1,C   2)     56.06 -0.000106    1.43     57.49   
   238. D(O  15,H  17,C   1,C   0)    -50.61 -0.000094    1.26    -49.35   
   239. D(O  16,H  17,H  10,C   1)    -53.69  0.000067   -0.41    -54.10   
   240. D(N  14,H  17,C   1,H  10)    141.86 -0.000017    0.05    141.91   
   241. D(N  14,H  17,C   1,C   2)     35.60 -0.000045    0.94     36.54   
   242. D(H  11,H  17,H  10,C   1)    -81.94  0.000088   -1.09    -83.03   
   243. D(C   4,H  17,H  10,C   1)      0.74 -0.000030    0.05      0.79   
   244. D(N  14,H  17,C   1,C   0)    -71.08 -0.000034    0.77    -70.31   
   245. D(H  11,H  17,C   1,H  10)     63.34  0.000068   -1.35     61.99   
   246. D(O  16,H  17,C   4,C   5)    122.22  0.000115   -0.92    121.30   
   247. D(H  11,H  17,C   1,C   2)    -42.93  0.000040   -0.45    -43.38   
   248. D(O  15,H  17,C   4,H  12)    -53.28 -0.000071   -0.31    -53.59   
   249. D(H  11,H  17,C   1,C   0)   -149.60  0.000051   -0.63   -150.23   
   250. D(O  15,H  17,C   4,C   5)    177.08 -0.000050   -0.05    177.03   
   251. D(O  15,H  17,C   4,C   3)     89.25 -0.000099    0.74     89.99   
   252. D(H  10,H  17,C   1,C   2)   -106.26 -0.000029    0.89   -105.37   
   253. D(N  14,H  17,C   4,H  12)   -103.12  0.000113   -1.51   -104.63   
   254. D(O  16,H  17,C   4,C   3)     34.39  0.000066   -0.13     34.26   
   255. D(N  14,H  17,C   4,C   5)    127.24  0.000134   -1.25    125.99   
   256. D(O  16,H  17,C   4,H  12)   -108.14  0.000094   -1.18   -109.32   
   257. D(C   2,H  17,H  10,C   1)    -33.32 -0.000016    0.03    -33.29   
   258. D(C   3,H  17,H  10,C   1)    -15.76 -0.000010    0.20    -15.57   
   259. D(H  10,H  17,C   1,C   0)    147.06 -0.000017    0.72    147.78   
   260. D(N  14,H  17,C   4,C   3)     39.41  0.000085   -0.46     38.94   
   261. D(N  14,H  17,H  10,C   1)    -29.66 -0.000021    0.15    -29.51   
   262. D(O  15,H  17,H  10,C   1)    -14.48 -0.000063    0.48    -14.00   
   263. D(H  11,H  17,C   4,H  12)   -156.66  0.000004   -0.63   -157.29   
   264. D(C   1,H  17,H  11,C   2)     27.45  0.000065   -0.53     26.92   
   265. D(C   3,H  17,H  11,C   2)    -21.09 -0.000017    0.55    -20.54   
   266. D(C   4,H  17,H  11,C   2)    -13.84 -0.000014    0.35    -13.49   
   267. D(C   4,H  17,C   1,H  10)   -179.02 -0.000040    0.06   -178.96   
   268. D(H  11,H  17,C   4,C   5)     73.70  0.000025   -0.37     73.33   
   269. D(H  11,H  17,C   4,C   3)    -14.13 -0.000024    0.42    -13.71   
   270. D(O  16,H  17,H  11,C   2)    -76.65  0.000048    0.55    -76.11   
   271. D(C   4,H  17,C   1,C   2)     74.71 -0.000069    0.96     75.67   
   272. D(C   1,H  17,N  14,O  15)    116.79 -0.000009   -0.61    116.19   
   273. D(C   1,H  17,N  14,O  16)   -102.75 -0.000056    0.57   -102.19   
   274. D(C   2,H  17,N  14,C   3)     34.84 -0.000026    0.65     35.49   
   275. D(H  10,H  17,C   4,H  12)   -179.16 -0.000015   -0.07   -179.23   
   276. D(H  10,H  17,C   4,C   5)     51.20  0.000006    0.19     51.39   
   277. D(C   3,H  17,N  14,O  15)     93.05  0.000010   -1.12     91.93   
   278. D(C   3,H  17,N  14,O  16)   -126.49 -0.000038    0.05   -126.44   
   279. D(C   4,H  17,C   1,C   0)    -31.96 -0.000057    0.78    -31.18   
   280. D(C   4,H  17,N  14,O  15)     50.17  0.000105   -2.00     48.17   
   281. D(C   4,H  17,N  14,O  16)   -169.37  0.000058   -0.83   -170.20   
   282. D(H  10,H  17,N  14,C   3)     32.72 -0.000023    0.59     33.32   
   283. D(H  10,H  17,C   4,C   3)    -36.64 -0.000043    0.98    -35.66   
   284. D(C   3,H  17,C   4,H  12)   -142.53  0.000028   -1.05   -143.58   
   285. D(H  11,H  17,N  14,C   3)     54.82 -0.000056    0.59     55.40   
   286. D(H  11,H  17,N  14,O  15)    147.87 -0.000047   -0.53    147.34   
   287. D(C   3,H  17,C   1,H  10)    156.85 -0.000010    0.22    157.07   
   288. D(O  15,H  17,N  14,C   3)    -93.05 -0.000010    1.12    -91.93   
   289. D(O  15,H  17,N  14,O  16)    140.46 -0.000047    1.17    141.63   
   290. D(O  16,H  17,N  14,C   3)    126.49  0.000038   -0.05    126.44   
   291. D(C   3,H  17,C   4,C   5)     87.83  0.000049   -0.79     87.04   
   292. D(C   2,H  17,C   4,H  12)   -162.58  0.000004   -0.47   -163.04   
   293. D(C   2,H  17,O  15,N  14)    -32.99 -0.000061   -0.07    -33.06   
   294. D(C   3,H  17,O  15,N  14)    -38.59 -0.000125    0.25    -38.35   
   295. D(C   3,H  17,C   1,C   2)     50.59 -0.000039    1.11     51.70   
   296. D(H  10,H  17,O  15,N  14)    -40.39 -0.000052   -0.17    -40.56   
   297. D(H  11,H  17,O  15,N  14)    -22.21 -0.000054   -0.30    -22.51   
   298. D(O  16,H  17,O  15,N  14)     21.20  0.000025   -0.59     20.60   
   299. D(C   2,H  17,C   4,C   5)     67.78  0.000025   -0.21     67.58   
   300. D(C   2,H  17,C   4,C   3)    -20.05 -0.000024    0.58    -19.46   
   301. D(C   3,H  17,C   1,C   0)    -56.08 -0.000027    0.93    -55.15   
   302. D(C   1,H  17,C   4,H  12)   -178.91 -0.000025   -0.06   -178.97   
   303. D(C   1,H  17,C   4,C   5)     51.44 -0.000004    0.20     51.65   
   304. D(H  11,H  17,O  16,N  14)     77.42  0.000009    0.18     77.60   
   305. D(O  15,H  17,O  16,N  14)    -18.81 -0.000020    0.59    -18.22   
   306. D(C   2,H  17,C   1,H  10)    106.26  0.000029   -0.89    105.37   
    ----------------------------------------------------------------------------




    ----------------------------------------------------------------------------
                                   ERROR !!!
       The optimization did not converge but reached the maximum 
       number of optimization cycles.
       As a subsequent Frequencies calculation has been requested
       ORCA will abort at this point of the run.
       Please restart the calculation with the lowest energy geometry and/or
       a larger maxiter for the geometry optimization.
    ----------------------------------------------------------------------------


[file orca_main/run.cpp, line 12331]: ORCA finished with error return - aborting the run
