
                                 *****************
                                 * O   R   C   A *
                                 *****************

           --- An Ab Initio, DFT and Semiempirical electronic structure package ---

                  #######################################################
                  #                        -***-                        #
                  #          Department of theory and spectroscopy      #
                  #               Directorship: Frank Neese             #
                  #        Max Planck Institute fuer Kohlenforschung    #
                  #                Kaiser Wilhelm Platz 1               #
                  #                 D-45470 Muelheim/Ruhr               #
                  #                      Germany                        #
                  #                                                     #
                  #                  All rights reserved                #
                  #                        -***-                        #
                  #######################################################


                         Program Version 4.2.1 -  RELEASE  -


 With contributions from (in alphabetic order):
   Daniel Aravena         : Magnetic Suceptibility
   Michael Atanasov       : Ab Initio Ligand Field Theory (pilot matlab implementation)
   Alexander A. Auer      : GIAO ZORA, VPT2
   Ute Becker             : Parallelization
   Giovanni Bistoni       : ED, misc. LED, open-shell LED, HFLD
   Martin Brehm           : Molecular dynamics
   Dmytro Bykov           : SCF Hessian
   Vijay G. Chilkuri      : MRCI spin determinant printing, contributions to CSF-ICE
   Dipayan Datta          : RHF DLPNO-CCSD density
   Achintya Kumar Dutta   : EOM-CC, STEOM-CC
   Dmitry Ganyushin       : Spin-Orbit,Spin-Spin,Magnetic field MRCI
   Miquel Garcia          : C-PCM Hessian, Gaussian charge scheme
   Yang Guo               : DLPNO-NEVPT2, CIM, IAO-localization
   Andreas Hansen         : Spin unrestricted coupled pair/coupled cluster methods
   Benjamin Helmich-Paris : CASSCF linear response (MC-RPA)
   Lee Huntington         : MR-EOM, pCC
   Robert Izsak           : Overlap fitted RIJCOSX, COSX-SCS-MP3, EOM
   Christian Kollmar      : KDIIS, OOCD, Brueckner-CCSD(T), CCSD density
   Simone Kossmann        : Meta GGA functionals, TD-DFT gradient, OOMP2, MP2 Hessian
   Martin Krupicka        : AUTO-CI
   Lucas Lang             : DCDCAS
   Dagmar Lenk            : GEPOL surface, SMD
   Dimitrios Liakos       : Extrapolation schemes; Compound Job, initial MDCI parallelization
   Dimitrios Manganas     : Further ROCIS development; embedding schemes
   Dimitrios Pantazis     : SARC Basis sets
   Taras Petrenko         : DFT Hessian,TD-DFT gradient, ASA, ECA, R-Raman, ABS, FL, XAS/XES, NRVS
   Peter Pinski           : DLPNO-MP2, DLPNO-MP2 Gradient
   Christoph Reimann      : Effective Core Potentials
   Marius Retegan         : Local ZFS, SOC
   Christoph Riplinger    : Optimizer, TS searches, QM/MM, DLPNO-CCSD(T), (RO)-DLPNO pert. Triples
   Tobias Risthaus        : Range-separated hybrids, TD-DFT gradient, RPA, STAB
   Michael Roemelt        : Original ROCIS implementation
   Masaaki Saitow         : Open-shell DLPNO-CCSD energy and density
   Barbara Sandhoefer     : DKH picture change effects
   Avijit Sen             : IP-ROCIS
   Kantharuban Sivalingam : CASSCF convergence, NEVPT2, FIC-MRCI
   Bernardo de Souza      : ESD, SOC TD-DFT
   Georgi Stoychev        : AutoAux, RI-MP2 NMR
   Willem Van den Heuvel  : Paramagnetic NMR
   Boris Wezisla          : Elementary symmetry handling
   Frank Wennmohs         : Technical directorship


 We gratefully acknowledge several colleagues who have allowed us to
 interface, adapt or use parts of their codes:
   Stefan Grimme, W. Hujo, H. Kruse,             : VdW corrections, initial TS optimization,
                  C. Bannwarth                     DFT functionals, gCP, sTDA/sTD-DF
   Ed Valeev, F. Pavosevic, A. Kumar             : LibInt (2-el integral package), F12 methods
   Garnet Chan, S. Sharma, J. Yang, R. Olivares  : DMRG
   Ulf Ekstrom                                   : XCFun DFT Library
   Mihaly Kallay                                 : mrcc  (arbitrary order and MRCC methods)
   Andreas Klamt, Michael Diedenhofen            : otool_cosmo (COSMO solvation model)
   Jiri Pittner, Ondrej Demel                    : Mk-CCSD
   Frank Weinhold                                : gennbo (NPA and NBO analysis)
   Christopher J. Cramer and Donald G. Truhlar   : smd solvation model
   Lars Goerigk                                  : TD-DFT with DH, B97 family of functionals
   V. Asgeirsson, H. Jonsson                     : NEB implementation
   FAccTs GmbH                                   : IRC, NEB, NEB-TS, Multilevel, MM, QM/MM, CI optimization
   S Lehtola, MJT Oliveira, MAL Marques          : LibXC Library


 Your calculation uses the libint2 library for the computation of 2-el integrals
 For citations please refer to: http://libint.valeyev.net

 Your ORCA version has been built with support for libXC version: 4.2.3
 For citations please refer to: https://tddft.org/programs/libxc/

 This ORCA versions uses:
   CBLAS   interface :  Fast vector & matrix operations
   LAPACKE interface :  Fast linear algebra routines


Your calculation utilizes the atom-pairwise dispersion correction
based on tight binding partial charges (D4)
Cite in your paper:
E.Caldeweyher, C.Bannwarth, S.Grimme, J.Chem.Phys., (2017), 147, 034112.
E.Caldeweyher, S.Ehlert, A.Hansen, H.Neugebauer, S.Grimme, J.Chem.Phys., (2018), in progress.
   

----- Orbital basis set information -----
Your calculation utilizes the basis: def2-SVP
   F. Weigend and R. Ahlrichs, Phys. Chem. Chem. Phys. 7, 3297 (2005).

================================================================================
                                        WARNINGS
                       Please study these warnings very carefully!
================================================================================


WARNING: Geometry Optimization
  ===> : Switching off AutoStart
         For restart on a previous wavefunction, please use MOREAD

INFO   : the flag for use of LIBINT has been found!

================================================================================
                                       INPUT FILE
================================================================================
NAME = neb_orto_products_new.inp
|  1> !B3LYP DEF2-SVP D4 OPT FREQ
|  2> 
|  3> %scf
|  4> maxIter 3000
|  5> end
|  6> 
|  7> %geom
|  8> maxIter 300
|  9> end
| 10> 
| 11> * xyz 1 1
| 12>    C       -0.99429        2.27035        0.60597
| 13>    C       -2.16488        2.80024        0.04538
| 14>    C       -3.18293        1.92962       -0.35736
| 15>    C       -3.03073        0.54774       -0.24334
| 16>    C       -1.85166        0.02218        0.28213
| 17>    C       -0.84261        0.88458        0.71004
| 18>    C        0.10451        3.16298        1.19242
| 19>    H       -3.82357       -0.11599       -0.57090
| 20>    H       -4.10007        2.31801       -0.78622
| 21>    H        0.83505        2.56123        1.75259
| 22>    H        0.63239        3.68527        0.38066
| 23>    H       -0.33705        3.89635        1.88354
| 24>    H        0.06291        0.46388        1.13287
| 25>    H       -1.72491       -1.05144        0.36981
| 26>    N       -2.33145        4.13077       -0.12744
| 27>    O       -1.49051        4.82800       -0.01648
| 28>    O       -3.29375        4.52449       -0.48874
| 29>    H       -5.86526        2.27449        4.15508
| 30> **                         ****END OF INPUT****
================================================================================

                       *****************************
                       * Geometry Optimization Run *
                       *****************************

Geometry optimization settings:
Update method            Update   .... BFGS
Choice of coordinates    CoordSys .... Z-matrix Internals
Initial Hessian          InHess   .... Almoef's Model

Convergence Tolerances:
Energy Change            TolE     ....  5.0000e-06 Eh
Max. Gradient            TolMAXG  ....  3.0000e-04 Eh/bohr
RMS Gradient             TolRMSG  ....  1.0000e-04 Eh/bohr
Max. Displacement        TolMAXD  ....  4.0000e-03 bohr
RMS Displacement         TolRMSD  ....  2.0000e-03 bohr
Strict Convergence                ....  False
------------------------------------------------------------------------------
                        ORCA OPTIMIZATION COORDINATE SETUP
------------------------------------------------------------------------------

The optimization will be done in new redundant internal coordinates
Making redundant internal coordinates   ...  (new redundants) done
Evaluating the initial hessian          ...  (Almloef) done
Evaluating the coordinates              ...  done
Calculating the B-matrix                .... done
Calculating the G-matrix                .... done
Diagonalizing the G-matrix              .... done
The first mode is                       ....  410
The number of degrees of freedom        ....   48

    -----------------------------------------------------------------
                    Redundant Internal Coordinates


    -----------------------------------------------------------------
         Definition                    Initial Value    Approx d2E/dq
    -----------------------------------------------------------------
      1. B(C   1,C   0)                  1.4019         0.598070   
      2. B(C   2,C   1)                  1.3988         0.604950   
      3. B(C   3,C   2)                  1.3949         0.613641   
      4. B(C   4,C   3)                  1.3937         0.616249   
      5. B(C   5,C   0)                  1.3979         0.606867   
      6. B(C   5,C   4)                  1.3946         0.614235   
      7. B(C   6,C   0)                  1.5323         0.370374   
      8. B(H   7,C   3)                  1.0846         0.367271   
      9. B(H   8,C   2)                  1.0844         0.367591   
     10. B(H   9,C   6)                  1.0998         0.347354   
     11. B(H  10,C   6)                  1.1002         0.346880   
     12. B(H  11,C   6)                  1.1002         0.346848   
     13. B(H  12,C   5)                  1.0843         0.367699   
     14. B(H  13,C   4)                  1.0846         0.367280   
     15. B(N  14,C   1)                  1.3520         0.643415   
     16. B(O  15,N  14)                  1.0980         1.465098   
     17. B(O  16,O  15)                  1.8886         0.080264   
     18. B(O  16,N  14)                  1.1007         1.450599   
     19. B(H  17,O  16)                  5.7654         0.000000   
     20. B(H  17,N  14)                  5.8544         0.000000   
     21. B(H  17,H   8)                  5.2473         0.000000   
     22. B(H  17,H   7)                  5.6761         0.000000   
     23. B(H  17,C   5)                  6.2472         0.000000   
     24. B(H  17,C   4)                  6.0151         0.000000   
     25. B(H  17,C   3)                  5.5102         0.000000   
     26. B(H  17,H  11)                  6.1929         0.000000   
     27. B(H  17,C   2)                  5.2608         0.000000   
     28. B(H  17,C   1)                  5.5551         0.000000   
     29. B(H  17,C   0)                  6.0268         0.000000   
     30. A(C   5,C   0,H  17)           92.5525         0.093331   
     31. A(C   5,C   0,C   6)          118.1099         0.394601   
     32. A(C   1,C   0,C   6)          122.1145         0.393592   
     33. A(C   6,C   0,H  17)          110.7183         0.092873   
     34. A(C   1,C   0,H  17)           63.9192         0.093317   
     35. A(C   1,C   0,C   5)          119.6739         0.429610   
     36. A(C   0,C   1,N  14)          121.7331         0.431309   
     37. A(C   0,C   1,C   2)          119.1828         0.429367   
     38. A(C   0,C   1,H  17)          102.9799         0.095391   
     39. A(C   2,C   1,H  17)           70.6880         0.095407   
     40. A(C   2,C   1,N  14)          119.0815         0.432196   
     41. A(N  14,C   1,H  17)           96.0639         0.095444   
     42. A(C   3,C   2,H  17)           92.8925         0.097210   
     43. A(C   1,C   2,H  17)           94.7796         0.097183   
     44. A(H   8,C   2,H  17)           83.3685         0.095323   
     45. A(C   3,C   2,H   8)          118.6480         0.353524   
     46. A(C   1,C   2,H   8)          120.4308         0.352671   
     47. A(C   1,C   2,C   3)          120.9074         0.431352   
     48. A(C   2,C   3,H   7)          120.1180         0.353471   
     49. A(C   4,C   3,H   7)          120.0987         0.353725   
     50. A(H   7,C   3,H  17)           93.2566         0.094138   
     51. A(C   2,C   3,C   4)          119.7809         0.432789   
     52. A(C   2,C   3,H  17)           72.4626         0.095672   
     53. A(C   4,C   3,H  17)          104.6195         0.095679   
     54. A(C   5,C   4,H  13)          120.1813         0.353531   
     55. A(C   3,C   4,H  17)           62.4243         0.093389   
     56. A(C   3,C   4,C   5)          119.6420         0.432865   
     57. A(C   3,C   4,H  13)          120.1719         0.353727   
     58. A(C   5,C   4,H  17)           93.0767         0.093386   
     59. A(H  13,C   4,H  17)          113.3638         0.092376   
     60. A(C   4,C   5,H  17)           74.0426         0.092616   
     61. A(H  12,C   5,H  17)          122.8674         0.091785   
     62. A(C   0,C   5,C   4)          120.7734         0.431673   
     63. A(C   4,C   5,H  12)          118.9434         0.353599   
     64. A(C   0,C   5,H  12)          120.2819         0.352877   
     65. A(C   0,C   5,H  17)           74.5300         0.092606   
     66. A(H   9,C   6,H  10)          108.4720         0.287512   
     67. A(C   0,C   6,H  10)          109.7685         0.321881   
     68. A(H  10,C   6,H  11)          109.8536         0.287447   
     69. A(C   0,C   6,H   9)          110.6412         0.321953   
     70. A(H   9,C   6,H  11)          108.1406         0.287508   
     71. A(C   0,C   6,H  11)          109.9327         0.321876   
     72. A(C   3,H   7,H  17)           75.7451         0.091462   
     73. A(C   2,H   8,H  17)           84.7860         0.092517   
     74. A(C   6,H  11,H  17)          114.4634         0.090581   
     75. A(O  15,N  14,H  17)          126.1370         0.094786   
     76. A(O  16,N  14,H  17)           79.9687         0.094773   
     77. A(C   1,N  14,H  17)           70.6597         0.093843   
     78. A(C   1,N  14,O  15)          121.1736         0.501326   
     79. A(O  15,N  14,O  16)          118.3987         0.580462   
     80. A(C   1,N  14,O  16)          120.1112         0.500399   
     81. A(N  14,O  15,O  16)           30.8427         0.344257   
     82. A(N  14,O  16,O  15)           30.7586         0.343683   
     83. A(O  15,O  16,H  17)          106.6885         0.092228   
     84. A(N  14,O  16,H  17)           89.1954         0.095216   
     85. A(C   4,H  17,C   5)           12.8807         0.089046   
     86. A(C   3,H  17,C   5)           22.5576         0.089070   
     87. A(C   2,H  17,C   5)           26.1652         0.089086   
     88. A(C   1,H  17,C   5)           22.7097         0.089068   
     89. A(C   0,H  17,C   5)           12.9175         0.089046   
     90. A(N  14,H  17,O  16)           10.8360         0.089073   
     91. A(H   8,H  17,O  16)           24.2496         0.089069   
     92. A(C   3,H  17,C   4)           12.9562         0.089085   
     93. A(C   2,H  17,C   4)           23.5032         0.089105   
     94. A(C   4,H  17,O  16)           47.9259         0.089066   
     95. A(C   3,H  17,O  16)           41.4020         0.089101   
     96. A(C   1,H  17,C   4)           27.7021         0.089082   
     97. A(C   0,H  17,C   4)           23.2623         0.089055   
     98. A(C   0,H  17,O  16)           33.4323         0.089066   
     99. A(H  11,H  17,N  14)           27.1023         0.089029   
    100. A(H   8,H  17,N  14)           26.5510         0.089064   
    101. A(H   7,H  17,N  14)           46.1597         0.089045   
    102. A(C   2,H  17,C   3)           14.6449         0.089159   
    103. A(C   2,H  17,N  14)           23.8745         0.089115   
    104. A(C   1,H  17,C   3)           25.3718         0.089125   
    105. A(C   1,H  17,N  14)           13.2763         0.089090   
    106. A(C   0,H  17,N  14)           23.3049         0.089061   
    107. A(C   0,H  17,C   3)           27.6201         0.089084   
    108. A(H   8,H  17,H  11)           49.6183         0.089028   
    109. A(H   7,H  17,H  11)           58.9220         0.089019   
    110. A(C   5,H  17,H  11)           30.4912         0.089022   
    111. A(C   4,H  17,H  11)           42.7985         0.089027   
    112. A(C   3,H  17,H  11)           47.9385         0.089040   
    113. A(C   1,H  17,C   2)           14.5324         0.089154   
    114. A(C   2,H  17,H  11)           41.1835         0.089050   
    115. A(C   1,H  17,H  11)           27.0282         0.089039   
    116. A(C   0,H  17,C   2)           23.4730         0.089104   
    117. A(C   0,H  17,H  11)           20.3973         0.089026   
    118. A(H   7,H  17,H   8)           25.6349         0.089043   
    119. A(C   5,H  17,H   8)           38.0092         0.089048   
    120. A(C   4,H  17,H   8)           34.1390         0.089058   
    121. A(C   3,H  17,N  14)           37.3389         0.089094   
    122. A(C   4,H  17,N  14)           40.9714         0.089062   
    123. A(C   5,H  17,N  14)           35.0997         0.089051   
    124. A(C   3,H  17,H   8)           22.7603         0.089089   
    125. A(C   2,H  17,H   8)           11.8456         0.089109   
    126. A(C   1,H  17,H   8)           22.8484         0.089085   
    127. A(C   0,H  17,C   1)           13.1009         0.089081   
    128. A(C   0,H  17,H   8)           34.2671         0.089058   
    129. A(C   5,H  17,H   7)           32.6432         0.089034   
    130. A(C   1,H  17,O  16)           21.5763         0.089097   
    131. A(C   2,H  17,O  16)           26.7839         0.089124   
    132. A(C   4,H  17,H   7)           20.9644         0.089041   
    133. A(C   3,H  17,H   7)           10.9983         0.089062   
    134. A(C   5,H  17,O  16)           44.2793         0.089055   
    135. A(H   7,H  17,O  16)           48.1860         0.089048   
    136. A(C   2,H  17,H   7)           22.3038         0.089076   
    137. A(H  11,H  17,O  16)           37.2690         0.089032   
    138. A(C   1,H  17,H   7)           35.3410         0.089060   
    139. A(C   0,H  17,H   7)           38.6183         0.089040   
    140. D(N  14,C   1,C   0,H  17)    105.6646         0.028775   
    141. D(C   2,C   1,C   0,H  17)    -74.9302         0.028775   
    142. D(H  17,C   1,C   0,C   6)    -99.0800         0.028775   
    143. D(C   2,C   1,C   0,C   5)      2.2532         0.028775   
    144. D(N  14,C   1,C   0,C   6)      6.5846         0.028775   
    145. D(C   2,C   1,C   0,C   6)   -174.0102         0.028775   
    146. D(H  17,C   1,C   0,C   5)     77.1834         0.028775   
    147. D(N  14,C   1,C   0,C   5)   -177.1520         0.028775   
    148. D(C   3,C   2,C   1,C   0)     -1.8521         0.029484   
    149. D(C   3,C   2,C   1,H  17)    -96.2621         0.029484   
    150. D(C   3,C   2,C   1,N  14)    177.5690         0.029484   
    151. D(H  17,C   2,C   1,N  14)    -86.1689         0.029484   
    152. D(H   8,C   2,C   1,N  14)     -1.0614         0.029484   
    153. D(H   8,C   2,C   1,H  17)     85.1076         0.029484   
    154. D(H  17,C   2,C   1,C   0)     94.4099         0.029484   
    155. D(H   8,C   2,C   1,C   0)    179.5175         0.029484   
    156. D(H  17,C   3,C   2,C   1)     97.3244         0.030395   
    157. D(C   4,C   3,C   2,H   8)    178.8478         0.030395   
    158. D(H   7,C   3,C   2,H   8)     -0.5930         0.030395   
    159. D(H   7,C   3,C   2,C   1)   -179.2473         0.030395   
    160. D(H   7,C   3,C   2,H  17)     83.4283         0.030395   
    161. D(H  17,C   3,C   2,H   8)    -84.0213         0.030395   
    162. D(C   4,C   3,C   2,H  17)    -97.1309         0.030395   
    163. D(C   4,C   3,C   2,C   1)      0.1935         0.030395   
    164. D(C   5,C   4,C   3,H   7)   -179.5028         0.030671   
    165. D(H  13,C   4,C   3,H  17)    102.3504         0.030671   
    166. D(H  17,C   4,C   3,H   7)   -102.6536         0.030671   
    167. D(H  13,C   4,C   3,H   7)     -0.3032         0.030671   
    168. D(C   5,C   4,C   3,C   2)      1.0563         0.030671   
    169. D(H  13,C   4,C   3,C   2)   -179.7441         0.030671   
    170. D(H  17,C   4,C   3,C   2)     77.9055         0.030671   
    171. D(C   5,C   4,C   3,H  17)    -76.8492         0.030671   
    172. D(C   0,C   5,C   4,H  13)   -179.8367         0.030457   
    173. D(C   0,C   5,C   4,C   3)     -0.6371         0.030457   
    174. D(H  12,C   5,C   0,C   1)    179.3863         0.029683   
    175. D(C   4,C   5,C   0,H  17)     60.2107         0.029683   
    176. D(H  17,C   5,C   4,H  13)   -119.3853         0.030457   
    177. D(H  12,C   5,C   4,C   3)    178.9499         0.030457   
    178. D(H  12,C   5,C   0,H  17)   -119.3709         0.029683   
    179. D(C   0,C   5,C   4,H  17)    -60.4514         0.030457   
    180. D(H  12,C   5,C   4,H  13)     -0.2496         0.030457   
    181. D(H  17,C   5,C   0,C   6)    115.1693         0.029683   
    182. D(C   4,C   5,C   0,C   6)    175.3800         0.029683   
    183. D(H  17,C   5,C   0,C   1)    -61.2428         0.029683   
    184. D(H  12,C   5,C   4,H  17)    119.1357         0.030457   
    185. D(H  12,C   5,C   0,C   6)     -4.2016         0.029683   
    186. D(C   4,C   5,C   0,C   1)     -1.0322         0.029683   
    187. D(H  17,C   5,C   4,C   3)     59.8142         0.030457   
    188. D(H  10,C   6,C   0,C   1)    -71.4447         0.010965   
    189. D(H  11,C   6,C   0,C   5)   -126.8190         0.010965   
    190. D(H   9,C   6,C   0,C   1)    168.8748         0.010965   
    191. D(H  10,C   6,C   0,H  17)   -142.9298         0.010965   
    192. D(H   9,C   6,C   0,H  17)     97.3897         0.010965   
    193. D(H   9,C   6,C   0,C   5)     -7.4446         0.010965   
    194. D(H  11,C   6,C   0,H  17)    -21.9847         0.010965   
    195. D(H  11,C   6,C   0,C   1)     49.5004         0.010965   
    196. D(H  10,C   6,C   0,C   5)    112.2359         0.010965   
    197. D(H  17,H   7,C   3,C   2)    -71.5840         0.127451   
    198. D(H  17,H   7,C   3,C   4)    108.9770         0.127451   
    199. D(H  17,H   8,C   2,C   1)    -91.6614         0.127722   
    200. D(H  17,H   8,C   2,C   3)     89.6777         0.127722   
    201. D(H  17,H  11,C   6,C   0)     21.9854         0.110898   
    202. D(H  17,H  11,C   6,H   9)    -98.9055         0.110898   
    203. D(H  17,H  11,C   6,H  10)    142.8794         0.110898   
    204. D(O  15,N  14,C   1,C   2)   -167.5453         0.039468   
    205. D(O  16,N  14,C   1,C   2)      5.8906         0.039468   
    206. D(O  15,N  14,C   1,H  17)    121.2063         0.039468   
    207. D(H  17,N  14,C   1,C   2)     71.2483         0.039468   
    208. D(O  16,N  14,C   1,H  17)    -65.3577         0.039468   
    209. D(O  16,N  14,C   1,C   0)   -174.7036         0.039468   
    210. D(H  17,N  14,C   1,C   0)   -109.3459         0.039468   
    211. D(O  15,N  14,C   1,C   0)     11.8604         0.039468   
    212. D(O  16,O  15,N  14,C   1)    173.5454         0.269718   
    213. D(O  16,O  15,N  14,H  17)    -98.6043         0.269718   
    214. D(O  15,O  16,N  14,H  17)    125.8144         0.287284   
    215. D(H  17,O  16,N  14,C   1)     60.5693         0.287284   
    216. D(H  17,O  16,N  14,O  15)   -125.8144         0.287284   
    217. D(H  17,O  16,O  15,N  14)     57.8320         0.001891   
    218. D(O  15,O  16,N  14,C   1)   -173.6162         0.287284   
    219. D(H   8,H  17,C   1,N  14)     91.5229         0.001500   
    220. D(C   4,H  17,H   7,C   3)    -31.9945         0.001500   
    221. D(H   8,H  17,C   1,C   0)   -143.9165         0.001500   
    222. D(H   7,H  17,C   1,C   2)     20.9422         0.001500   
    223. D(N  14,H  17,C   5,H  12)    136.1340         0.001500   
    224. D(N  14,H  17,C   5,C   4)   -109.3773         0.001500   
    225. D(C   5,H  17,C   1,N  14)   -153.9709         0.001500   
    226. D(C   5,H  17,C   1,C   0)    -29.4103         0.001500   
    227. D(H   7,H  17,C   5,H  12)   -134.5548         0.001500   
    228. D(C   4,H  17,C   1,C   2)     59.0522         0.001500   
    229. D(C   3,H  17,C   1,N  14)    148.9882         0.001500   
    230. D(C   3,H  17,C   1,C   2)     30.2568         0.001500   
    231. D(C   3,H  17,C   5,C   0)     99.4516         0.001500   
    232. D(C   2,H  17,C   5,H  12)   -179.1323         0.001500   
    233. D(C   3,H  17,C   1,C   0)    -86.4512         0.001500   
    234. D(C   2,H  17,C   1,C   0)   -116.7079         0.001500   
    235. D(O  16,H  17,C   4,H  13)   -167.4070         0.001500   
    236. D(C   0,H  17,C   1,C   2)    116.7079         0.001500   
    237. D(O  16,H  17,C   0,C   5)   -142.3178         0.001500   
    238. D(H  11,H  17,C   4,C   5)     14.8150         0.001500   
    239. D(H  11,H  17,C   4,C   3)   -107.2376         0.001500   
    240. D(N  14,H  17,C   0,C   6)     88.0371         0.001500   
    241. D(N  14,H  17,C   0,C   5)   -150.5567         0.001500   
    242. D(H   7,H  17,C   4,H  13)    -86.2839         0.001500   
    243. D(O  16,H  17,C   0,C   1)    -20.3181         0.001500   
    244. D(N  14,H  17,C   4,C   5)     55.8197         0.001500   
    245. D(O  16,H  17,C   0,C   6)     96.2759         0.001500   
    246. D(C   0,H  17,C   5,C   4)   -129.1454         0.001500   
    247. D(C   0,H  17,C   1,N  14)   -124.5607         0.001500   
    248. D(C   1,H  17,C   5,C   4)    -99.2834         0.001500   
    249. D(C   2,H  17,C   1,N  14)    118.7314         0.001500   
    250. D(N  14,H  17,C   0,C   1)    -28.5570         0.001500   
    251. D(C   3,H  17,C   5,C   4)    -29.6939         0.001500   
    252. D(C   4,H  17,C   5,C   0)    129.1454         0.001500   
    253. D(C   4,H  17,C   1,C   0)    -57.6558         0.001500   
    254. D(H   8,H  17,C   5,C   0)     64.8749         0.001500   
    255. D(C   4,H  17,C   1,N  14)    177.7835         0.001500   
    256. D(H  11,H  17,C   5,C   0)    -30.8324         0.001500   
    257. D(C   5,H  17,C   1,C   2)     87.2977         0.001500   
    258. D(H  11,H  17,C   0,C   6)     10.3344         0.001500   
    259. D(H   7,H  17,C   1,C   0)    -95.7657         0.001500   
    260. D(O  16,H  17,C   5,H  12)    145.2077         0.001500   
    261. D(H   7,H  17,C   1,N  14)    139.6736         0.001500   
    262. D(C   5,H  17,H   7,C   3)    -19.6509         0.001500   
    263. D(H   8,H  17,C   1,C   2)    -27.2085         0.001500   
    264. D(N  14,H  17,H   7,C   3)     33.2075         0.001500   
    265. D(H  11,H  17,C   1,C   0)     47.4158         0.001500   
    266. D(C   5,H  17,C   4,H  13)    124.8655         0.001500   
    267. D(C   5,H  17,C   4,C   3)   -122.0526         0.001500   
    268. D(H  11,H  17,C   0,C   5)    131.7406         0.001500   
    269. D(H  11,H  17,C   0,C   1)   -106.2597         0.001500   
    270. D(C   2,H  17,C   4,C   5)     87.7021         0.001500   
    271. D(H   8,H  17,C   0,C   6)    140.5581         0.001500   
    272. D(C   2,H  17,C   4,C   3)    -34.3505         0.001500   
    273. D(C   1,H  17,C   4,H  13)    179.9091         0.001500   
    274. D(H   8,H  17,C   0,C   5)    -98.0356         0.001500   
    275. D(C   1,H  17,C   4,C   5)     55.0436         0.001500   
    276. D(C   1,H  17,C   4,C   3)    -67.0090         0.001500   
    277. D(H   8,H  17,C   0,C   1)     23.9641         0.001500   
    278. D(H   7,H  17,C   0,C   6)   -176.1697         0.001500   
    279. D(O  16,H  17,C   3,H   7)   -123.4769         0.001500   
    280. D(H   7,H  17,C   0,C   5)    -54.7635         0.001500   
    281. D(H   7,H  17,C   0,C   1)     67.2362         0.001500   
    282. D(N  14,H  17,C   3,H   7)   -139.3617         0.001500   
    283. D(N  14,H  17,C   3,C   4)     98.3655         0.001500   
    284. D(C   5,H  17,C   0,C   6)   -121.4062         0.001500   
    285. D(C   5,H  17,C   0,C   1)    121.9997         0.001500   
    286. D(H  11,H  17,C   3,C   2)    -56.1918         0.001500   
    287. D(C   4,H  17,C   0,C   6)   -147.3668         0.001500   
    288. D(C   4,H  17,C   0,C   5)    -25.9606         0.001500   
    289. D(H   8,H  17,C   3,C   2)     27.7896         0.001500   
    290. D(H   7,H  17,C   3,C   4)   -122.2728         0.001500   
    291. D(C   4,H  17,C   0,C   1)     96.0391         0.001500   
    292. D(C   3,H  17,C   0,C   6)   -176.1144         0.001500   
    293. D(C   5,H  17,C   3,C   2)    -87.6156         0.001500   
    294. D(C   3,H  17,C   0,C   5)    -54.7081         0.001500   
    295. D(C   3,H  17,C   0,C   1)     67.2916         0.001500   
    296. D(C   2,H  17,C   3,H   7)   -120.6047         0.001500   
    297. D(C   2,H  17,C   3,C   4)    117.1225         0.001500   
    298. D(C   2,H  17,C   0,C   6)    150.8408         0.001500   
    299. D(C   1,H  17,C   3,C   4)     87.1165         0.001500   
    300. D(C   2,H  17,C   0,C   5)    -87.7529         0.001500   
    301. D(C   1,H  17,C   3,C   2)    -30.0060         0.001500   
    302. D(C   0,H  17,C   3,H   7)   -179.8189         0.001500   
    303. D(C   2,H  17,C   0,C   1)     34.2468         0.001500   
    304. D(C   0,H  17,C   3,C   4)     57.9083         0.001500   
    305. D(C   1,H  17,C   3,H   7)   -150.6107         0.001500   
    306. D(C   0,H  17,C   3,C   2)    -59.2142         0.001500   
    307. D(C   1,H  17,C   0,C   6)    116.5941         0.001500   
    308. D(C   4,H  17,C   3,C   2)   -117.1225         0.001500   
    309. D(C   4,H  17,C   3,H   7)    122.2728         0.001500   
    310. D(O  16,H  17,C   2,H   8)    -65.7017         0.001500   
    311. D(C   5,H  17,C   3,C   4)     29.5069         0.001500   
    312. D(C   5,H  17,C   3,H   7)    151.7797         0.001500   
    313. D(H   7,H  17,C   3,C   2)    120.6047         0.001500   
    314. D(O  16,H  17,C   2,C   3)    175.7827         0.001500   
    315. D(C   1,H  17,C   0,C   5)   -121.9997         0.001500   
    316. D(H   8,H  17,C   3,C   4)    144.9121         0.001500   
    317. D(H   8,H  17,C   3,H   7)    -92.8151         0.001500   
    318. D(O  16,H  17,C   2,C   1)     54.4285         0.001500   
    319. D(H  11,H  17,C   3,C   4)     60.9307         0.001500   
    320. D(H  11,H  17,C   3,H   7)   -176.7965         0.001500   
    321. D(N  14,H  17,C   3,C   2)    -18.7570         0.001500   
    322. D(H   8,H  17,O  16,O  15)   -116.3759         0.001500   
    323. D(N  14,H  17,C   2,H   8)    -90.2924         0.001500   
    324. D(O  16,H  17,C   3,C   2)     -2.8722         0.001500   
    325. D(O  16,H  17,C   3,C   4)    114.2503         0.001500   
    326. D(N  14,H  17,C   2,C   3)    151.1920         0.001500   
    327. D(C   0,H  17,C   4,C   3)    -96.0137         0.001500   
    328. D(C   0,H  17,C   4,C   5)     26.0389         0.001500   
    329. D(C   0,H  17,C   4,H  13)    150.9044         0.001500   
    330. D(H   7,H  17,O  16,N  14)    -74.3388         0.001500   
    331. D(C   5,H  17,O  16,O  15)    -54.4941         0.001500   
    332. D(N  14,H  17,C   2,C   1)     29.8378         0.001500   
    333. D(H  11,H  17,C   2,H   8)   -131.0124         0.001500   
    334. D(C   3,H  17,O  16,O  15)    -87.6660         0.001500   
    335. D(C   2,H  17,C   4,H  13)   -147.4324         0.001500   
    336. D(C   3,H  17,C   4,C   5)    122.0526         0.001500   
    337. D(C   3,H  17,C   4,H  13)   -113.0819         0.001500   
    338. D(H  11,H  17,C   2,C   3)    110.4720         0.001500   
    339. D(H  11,H  17,C   2,C   1)    -10.8822         0.001500   
    340. D(H   7,H  17,C   4,C   3)     26.7980         0.001500   
    341. D(H   7,H  17,C   4,C   5)    148.8506         0.001500   
    342. D(C   2,H  17,O  16,N  14)    -63.6217         0.001500   
    343. D(H   8,H  17,C   4,C   3)    -23.3454         0.001500   
    344. D(H   8,H  17,C   4,C   5)     98.7072         0.001500   
    345. D(H   8,H  17,C   4,H  13)   -136.4273         0.001500   
    346. D(C   1,H  17,O  16,O  15)    -55.5652         0.001500   
    347. D(H   8,H  17,C   2,C   3)   -118.5156         0.001500   
    348. D(H  11,H  17,C   4,H  13)    139.6805         0.001500   
    349. D(N  14,H  17,C   4,C   3)    -66.2329         0.001500   
    350. D(H   8,H  17,C   2,C   1)    120.1302         0.001500   
    351. D(N  14,H  17,C   4,H  13)   -179.3148         0.001500   
    352. D(O  16,H  17,C   4,C   3)    -54.3251         0.001500   
    353. D(O  16,H  17,C   4,C   5)     67.7275         0.001500   
    354. D(O  16,H  17,N  14,O  15)    117.9617         0.001500   
    355. D(H   7,H  17,C   2,H   8)     92.8788         0.001500   
    356. D(C   0,H  17,C   5,H  12)    116.3659         0.001500   
    357. D(C   1,H  17,C   5,C   0)     29.8620         0.001500   
    358. D(H   7,H  17,C   2,C   3)    -25.6369         0.001500   
    359. D(C   1,H  17,C   5,H  12)    146.2279         0.001500   
    360. D(C   2,H  17,C   5,C   0)     64.5018         0.001500   
    361. D(C   2,H  17,C   5,C   4)    -64.6436         0.001500   
    362. D(H  11,H  17,N  14,O  15)    -38.4990         0.001500   
    363. D(H  11,H  17,N  14,C   1)     76.5244         0.001500   
    364. D(H   7,H  17,C   2,C   1)   -146.9911         0.001500   
    365. D(C   3,H  17,C   5,H  12)   -144.1825         0.001500   
    366. D(C   5,H  17,C   2,H   8)    178.8806         0.001500   
    367. D(C   4,H  17,C   5,H  12)   -114.4887         0.001500   
    368. D(H   7,H  17,C   5,C   0)    109.0792         0.001500   
    369. D(H   7,H  17,C   5,C   4)    -20.0662         0.001500   
    370. D(H   7,H  17,N  14,O  16)     95.7504         0.001500   
    371. D(C   5,H  17,C   2,C   3)     60.3650         0.001500   
    372. D(H   8,H  17,C   5,C   4)    -64.2705         0.001500   
    373. D(H   8,H  17,C   5,H  12)   -178.7592         0.001500   
    374. D(H   7,H  17,N  14,C   1)    -31.2645         0.001500   
    375. D(H  11,H  17,C   5,C   4)   -159.9778         0.001500   
    376. D(H  11,H  17,C   5,H  12)     85.5335         0.001500   
    377. D(N  14,H  17,C   5,C   0)     19.7681         0.001500   
    378. D(C   5,H  17,C   2,C   1)    -60.9892         0.001500   
    379. D(C   5,H  17,N  14,O  16)    144.1505         0.001500   
    380. D(O  16,H  17,C   5,C   0)     28.8418         0.001500   
    381. D(O  16,H  17,C   5,C   4)   -100.3036         0.001500   
    382. D(C   5,H  17,N  14,O  15)    -97.8879         0.001500   
    383. D(C   0,H  17,H   7,C   3)      0.1345         0.001500   
    384. D(C   1,H  17,H   7,C   3)     21.3168         0.001500   
    385. D(C   2,H  17,H   7,C   3)     34.9863         0.001500   
    386. D(C   4,H  17,C   2,H   8)    148.5406         0.001500   
    387. D(C   4,H  17,C   2,C   3)     30.0250         0.001500   
    388. D(H   8,H  17,H   7,C   3)     63.2726         0.001500   
    389. D(H  11,H  17,H   7,C   3)      2.7766         0.001500   
    390. D(C   4,H  17,N  14,C   1)     -1.5713         0.001500   
    391. D(O  16,H  17,H   7,C   3)     47.7424         0.001500   
    392. D(C   0,H  17,H   8,C   2)     20.2656         0.001500   
    393. D(C   1,H  17,H   8,C   2)     33.9810         0.001500   
    394. D(C   4,H  17,C   2,C   1)    -91.3292         0.001500   
    395. D(C   3,H  17,C   2,H   8)    118.5156         0.001500   
    396. D(C   3,H  17,N  14,C   1)    -21.3449         0.001500   
    397. D(C   2,H  17,N  14,O  16)     94.0824         0.001500   
    398. D(C   3,H  17,C   2,C   1)   -121.3542         0.001500   
    399. D(C   1,H  17,C   2,H   8)   -120.1302         0.001500   
    400. D(C   1,H  17,N  14,O  15)   -115.0234         0.001500   
    401. D(C   1,H  17,C   2,C   3)    121.3542         0.001500   
    402. D(C   0,H  17,C   2,H   8)   -150.6840         0.001500   
    403. D(C   0,H  17,N  14,C   1)     28.1530         0.001500   
    404. D(O  16,H  17,H  11,C   6)    -80.0449         0.001500   
    405. D(C   0,H  17,C   2,C   3)     90.8003         0.001500   
    406. D(N  14,H  17,H  11,C   6)    -72.9225         0.001500   
    407. D(H   8,H  17,H  11,C   6)    -49.2356         0.001500   
    408. D(C   0,H  17,C   2,C   1)    -30.5539         0.001500   
    409. D(H   7,H  17,H  11,C   6)    -19.6120         0.001500   
    410. D(C   5,H  17,H  11,C   6)      4.3151         0.001500   
    411. D(O  16,H  17,C   1,N  14)     24.0919         0.001500   
    412. D(C   0,H  17,N  14,O  15)    -86.8704         0.001500   
    413. D(C   0,H  17,N  14,O  16)    155.1679         0.001500   
    414. D(C   4,H  17,H  11,C   6)     -2.1350         0.001500   
    415. D(C   1,H  17,N  14,O  16)    127.0149         0.001500   
    416. D(C   2,H  17,N  14,C   1)    -32.9325         0.001500   
    417. D(C   2,H  17,N  14,O  15)   -147.9559         0.001500   
    418. D(C   3,H  17,H  11,C   6)    -18.8988         0.001500   
    419. D(O  16,H  17,C   1,C   2)    -94.6395         0.001500   
    420. D(C   3,H  17,N  14,O  15)   -136.3683         0.001500   
    421. D(C   3,H  17,N  14,O  16)    105.6701         0.001500   
    422. D(C   2,H  17,H  11,C   6)    -37.5033         0.001500   
    423. D(C   4,H  17,N  14,O  15)   -116.5947         0.001500   
    424. D(C   4,H  17,N  14,O  16)    125.4437         0.001500   
    425. D(C   5,H  17,N  14,C   1)     17.1355         0.001500   
    426. D(C   1,H  17,H  11,C   6)    -43.4871         0.001500   
    427. D(O  16,H  17,C   1,C   0)    148.6526         0.001500   
    428. D(C   0,H  17,H  11,C   6)    -14.8770         0.001500   
    429. D(H   7,H  17,N  14,O  15)   -146.2879         0.001500   
    430. D(O  16,H  17,H   8,C   2)     89.7527         0.001500   
    431. D(H   8,H  17,N  14,C   1)    -60.2698         0.001500   
    432. D(H   8,H  17,N  14,O  15)   -175.2932         0.001500   
    433. D(H   8,H  17,N  14,O  16)     66.7452         0.001500   
    434. D(N  14,H  17,C   1,C   2)   -118.7314         0.001500   
    435. D(N  14,H  17,H   8,C   2)     64.8835         0.001500   
    436. D(H  11,H  17,N  14,O  16)   -156.4607         0.001500   
    437. D(O  16,H  17,N  14,C   1)   -127.0149         0.001500   
    438. D(H  11,H  17,H   8,C   2)     40.7128         0.001500   
    439. D(C   0,H  17,O  16,N  14)    -17.5515         0.001500   
    440. D(C   0,H  17,O  16,O  15)    -43.2068         0.001500   
    441. D(C   1,H  17,O  16,N  14)    -29.9099         0.001500   
    442. D(N  14,H  17,C   1,C   0)    124.5607         0.001500   
    443. D(H   7,H  17,H   8,C   2)    -61.1776         0.001500   
    444. D(C   2,H  17,O  16,O  15)    -89.2771         0.001500   
    445. D(C   3,H  17,O  16,N  14)    -62.0107         0.001500   
    446. D(C   5,H  17,H   8,C   2)     -0.8015         0.001500   
    447. D(C   4,H  17,O  16,N  14)    -46.0250         0.001500   
    448. D(C   4,H  17,O  16,O  15)    -71.6803         0.001500   
    449. D(C   5,H  17,O  16,N  14)    -28.8388         0.001500   
    450. D(H  11,H  17,C   1,N  14)    -77.1449         0.001500   
    451. D(C   4,H  17,H   8,C   2)    -21.7691         0.001500   
    452. D(H   7,H  17,O  16,O  15)    -99.9941         0.001500   
    453. D(H   8,H  17,O  16,N  14)    -90.7206         0.001500   
    454. D(C   3,H  17,H   8,C   2)    -35.0456         0.001500   
    455. D(H  11,H  17,O  16,N  14)     17.4855         0.001500   
    456. D(H  11,H  17,O  16,O  15)     -8.1698         0.001500   
    457. D(N  14,H  17,O  16,O  15)    -25.6553         0.001500   
    458. D(H  11,H  17,C   1,C   2)    164.1237         0.001500   
    -----------------------------------------------------------------

Number of atoms                         .... 18
Number of degrees of freedom            .... 458

         *************************************************************
         *                GEOMETRY OPTIMIZATION CYCLE   1            *
         *************************************************************
---------------------------------
CARTESIAN COORDINATES (ANGSTROEM)
---------------------------------
  C     -0.994290    2.270350    0.605970
  C     -2.164880    2.800240    0.045380
  C     -3.182930    1.929620   -0.357360
  C     -3.030730    0.547740   -0.243340
  C     -1.851660    0.022180    0.282130
  C     -0.842610    0.884580    0.710040
  C      0.104510    3.162980    1.192420
  H     -3.823570   -0.115990   -0.570900
  H     -4.100070    2.318010   -0.786220
  H      0.835050    2.561230    1.752590
  H      0.632390    3.685270    0.380660
  H     -0.337050    3.896350    1.883540
  H      0.062910    0.463880    1.132870
  H     -1.724910   -1.051440    0.369810
  N     -2.331450    4.130770   -0.127440
  O     -1.490510    4.828000   -0.016480
  O     -3.293750    4.524490   -0.488740
  H     -5.865260    2.274490    4.155080

----------------------------
CARTESIAN COORDINATES (A.U.)
----------------------------
  NO LB      ZA    FRAG     MASS         X           Y           Z
   0 C     6.0000    0    12.011   -1.878936    4.290340    1.145117
   1 C     6.0000    0    12.011   -4.091030    5.291687    0.085756
   2 C     6.0000    0    12.011   -6.014866    3.646453   -0.675313
   3 C     6.0000    0    12.011   -5.727250    1.035079   -0.459846
   4 C     6.0000    0    12.011   -3.499130    0.041914    0.533148
   5 C     6.0000    0    12.011   -1.592302    1.671614    1.341781
   6 C     6.0000    0    12.011    0.197495    5.977166    2.253347
   7 H     1.0000    0     1.008   -7.225500   -0.219189   -1.078845
   8 H     1.0000    0     1.008   -7.748009    4.380404   -1.485740
   9 H     1.0000    0     1.008    1.578016    4.840023    3.311915
  10 H     1.0000    0     1.008    1.195044    6.964151    0.719343
  11 H     1.0000    0     1.008   -0.636932    7.363034    3.559375
  12 H     1.0000    0     1.008    0.118883    0.876606    2.140814
  13 H     1.0000    0     1.008   -3.259608   -1.986934    0.698840
  14 N     7.0000    0    14.007   -4.405802    7.806024   -0.240827
  15 O     8.0000    0    15.999   -2.816656    9.123598   -0.031143
  16 O     8.0000    0    15.999   -6.224285    8.550047   -0.923585
  17 H     1.0000    0     1.008  -11.083735    4.298163    7.851963

--------------------------------
INTERNAL COORDINATES (ANGSTROEM)
--------------------------------
 C      0   0   0     0.000000000000     0.00000000     0.00000000
 C      1   0   0     1.401900677045     0.00000000     0.00000000
 C      2   1   0     1.398786793797   119.18276291     0.00000000
 C      3   2   1     1.394904202732   120.90741344   358.14785757
 C      4   3   2     1.393749654493   119.78094366     0.19352049
 C      5   4   3     1.394640681538   119.64195071     1.05629639
 C      1   2   3     1.532342441950   122.11449870   185.98975902
 H      4   3   2     1.084632809802   120.11801225   180.75271732
 H      3   2   1     1.084395440464   120.43075273   179.51750653
 H      7   1   2     1.099810066784   110.64123847   168.87479880
 H      7   1   2     1.100181092412   109.76846439   288.55529982
 H      7   1   2     1.100206182904   109.93274534    49.50041344
 H      6   5   4     1.084315530323   118.94337684   178.94993907
 H      5   4   3     1.084625856828   120.17186569   180.25589082
 N      2   1   3     1.352006804051   121.73314873   180.59480710
 O     15   2   1     1.098008141181   121.17362334    11.86043713
 O     15   2   1     1.100715412084   120.11116364   185.29639966
 H      9   3   2     5.247307444442    84.78595834   268.33862216

---------------------------
INTERNAL COORDINATES (A.U.)
---------------------------
 C      0   0   0     0.000000000000     0.00000000     0.00000000
 C      1   0   0     2.649208346574     0.00000000     0.00000000
 C      2   1   0     2.643323960022   119.18276291     0.00000000
 C      3   2   1     2.635986926220   120.90741344   358.14785757
 C      4   3   2     2.633805146240   119.78094366     0.19352049
 C      5   4   3     2.635488943332   119.64195071     1.05629639
 C      1   2   3     2.895707558669   122.11449870   185.98975902
 H      4   3   2     2.049658966392   120.11801225   180.75271732
 H      3   2   1     2.049210403351   120.43075273   179.51750653
 H      7   1   2     2.078339825552   110.64123847   168.87479880
 H      7   1   2     2.079040962376   109.76846439   288.55529982
 H      7   1   2     2.079088376535   109.93274534    49.50041344
 H      6   5   4     2.049059395068   118.94337684   178.94993907
 H      5   4   3     2.049645827175   120.17186569   180.25589082
 N      2   1   3     2.554922590854   121.73314873   180.59480710
 O     15   2   1     2.074934679648   121.17362334    11.86043713
 O     15   2   1     2.080050680226   120.11116364   185.29639966
 H      9   3   2     9.915974010482    84.78595834   268.33862216

---------------------
BASIS SET INFORMATION
---------------------
There are 4 groups of distinct atoms

 Group   1 Type C   : 7s4p1d contracted to 3s2p1d pattern {511/31/1}
 Group   2 Type H   : 4s1p contracted to 2s1p pattern {31/1}
 Group   3 Type N   : 7s4p1d contracted to 3s2p1d pattern {511/31/1}
 Group   4 Type O   : 7s4p1d contracted to 3s2p1d pattern {511/31/1}

Atom   0C    basis set group =>   1
Atom   1C    basis set group =>   1
Atom   2C    basis set group =>   1
Atom   3C    basis set group =>   1
Atom   4C    basis set group =>   1
Atom   5C    basis set group =>   1
Atom   6C    basis set group =>   1
Atom   7H    basis set group =>   2
Atom   8H    basis set group =>   2
Atom   9H    basis set group =>   2
Atom  10H    basis set group =>   2
Atom  11H    basis set group =>   2
Atom  12H    basis set group =>   2
Atom  13H    basis set group =>   2
Atom  14N    basis set group =>   3
Atom  15O    basis set group =>   4
Atom  16O    basis set group =>   4
Atom  17H    basis set group =>   2
------------------------------------------------------------------------------
                           ORCA GTO INTEGRAL CALCULATION
------------------------------------------------------------------------------

                         BASIS SET STATISTICS AND STARTUP INFO

 # of primitive gaussian shells          ...  160
 # of primitive gaussian functions       ...  296
 # of contracted shells                  ...   84
 # of contracted basis functions         ...  180
 Highest angular momentum                ...    2
 Maximum contraction depth               ...    5
 Integral package used                   ... LIBINT
 Integral threshhold            Thresh   ...  2.500e-11
 Primitive cut-off              TCut     ...  2.500e-12


------------------------------ INTEGRAL EVALUATION ----------------------------


 * One electron integrals 
 Pre-screening matrix                    ... done
 Shell pair data                         ... done (   0.001 sec)

Timings:
 Total evaluation time               ...     0.002 sec (   0.000 min)
 One electron matrix time            ...     0.026 sec (   0.000 min) =1300.0%
 Schwartz matrix evaluation time     ...     0.139 sec (   0.002 min) =6950.0%

-------------------------------------------------------------------------------
                                 ORCA SCF
-------------------------------------------------------------------------------

------------
SCF SETTINGS
------------
Hamiltonian:
 Density Functional     Method          .... DFT(GTOs)
 Exchange Functional    Exchange        .... B88
   X-Alpha parameter    XAlpha          ....  0.666667
   Becke's b parameter  XBeta           ....  0.004200
 Correlation Functional Correlation     .... LYP
 LDA part of GGA corr.  LDAOpt          .... VWN-5
 Gradients option       PostSCFGGA      .... off
 Hybrid DFT is turned on
   Fraction HF Exchange ScalHFX         ....  0.200000
   Scaling of DF-GGA-X  ScalDFX         ....  0.720000
   Scaling of DF-GGA-C  ScalDFC         ....  0.810000
   Scaling of DF-LDA-C  ScalLDAC        ....  1.000000
   Perturbative correction              ....  0.000000
   Density functional embedding theory  .... OFF
   NL short-range parameter             ....  4.800000


General Settings:
 Integral files         IntName         .... neb_orto_products_new
 Hartree-Fock type      HFTyp           .... RHF
 Total Charge           Charge          ....    1
 Multiplicity           Mult            ....    1
 Number of Electrons    NEL             ....   72
 Basis Dimension        Dim             ....  180
 Nuclear Repulsion      ENuc            ....    527.0755573769 Eh

Convergence Acceleration:
 DIIS                   CNVDIIS         .... on
   Start iteration      DIISMaxIt       ....    12
   Startup error        DIISStart       ....  0.200000
   # of expansion vecs  DIISMaxEq       ....     5
   Bias factor          DIISBfac        ....   1.050
   Max. coefficient     DIISMaxC        ....  10.000
 Newton-Raphson         CNVNR           .... off
 SOSCF                  CNVSOSCF        .... on
   Start iteration      SOSCFMaxIt      ....   150
   Startup grad/error   SOSCFStart      ....  0.003300
 Level Shifting         CNVShift        .... on
   Level shift para.    LevelShift      ....    0.2500
   Turn off err/grad.   ShiftErr        ....    0.0010
 Zerner damping         CNVZerner       .... off
 Static damping         CNVDamp         .... on
   Fraction old density DampFac         ....    0.7000
   Max. Damping (<1)    DampMax         ....    0.9800
   Min. Damping (>=0)   DampMin         ....    0.0000
   Turn off err/grad.   DampErr         ....    0.1000
 Fernandez-Rico         CNVRico         .... off

SCF Procedure:
 Maximum # iterations   MaxIter         ....  3000
 SCF integral mode      SCFMode         .... Direct
   Integral package                     .... LIBINT
 Reset frequency        DirectResetFreq ....    20
 Integral Threshold     Thresh          ....  2.500e-11 Eh
 Primitive CutOff       TCut            ....  2.500e-12 Eh

Convergence Tolerance:
 Convergence Check Mode ConvCheckMode   .... Total+1el-Energy
 Convergence forced     ConvForced      .... 0
 Energy Change          TolE            ....  1.000e-08 Eh
 1-El. energy change                    ....  1.000e-05 Eh
 Orbital Gradient       TolG            ....  1.000e-05
 Orbital Rotation angle TolX            ....  1.000e-05
 DIIS Error             TolErr          ....  5.000e-07


Diagonalization of the overlap matrix:
Smallest eigenvalue                        ... 2.426e-04
Time for diagonalization                   ...    0.008 sec
Threshold for overlap eigenvalues          ... 1.000e-08
Number of eigenvalues below threshold      ... 0
Time for construction of square roots      ...    0.004 sec
Total time needed                          ...    0.012 sec

-------------------
DFT GRID GENERATION
-------------------

General Integration Accuracy     IntAcc      ...  4.340
Radial Grid Type                 RadialGrid  ... Gauss-Chebyshev
Angular Grid (max. acc.)         AngularGrid ... Lebedev-110
Angular grid pruning method      GridPruning ... 3 (G Style)
Weight generation scheme         WeightScheme... Becke
Basis function cutoff            BFCut       ...    1.0000e-11
Integration weight cutoff        WCut        ...    1.0000e-14
Grids for H and He will be reduced by one unit

# of grid points (after initial pruning)     ...  23078 (   0.0 sec)
# of grid points (after weights+screening)   ...  21318 (   0.1 sec)
nearest neighbour list constructed           ...    0.0 sec
Grid point re-assignment to atoms done       ...    0.0 sec
Grid point division into batches done        ...    0.0 sec
Reduced shell lists constructed in    0.2 sec

Total number of grid points                  ...    21318
Total number of batches                      ...      343
Average number of points per batch           ...       62
Average number of grid points per atom       ...     1184
Average number of shells per batch           ...    56.34 (67.08%)
Average number of basis functions per batch  ...   118.70 (65.95%)
Average number of large shells per batch     ...    42.96 (76.25%)
Average number of large basis fcns per batch ...    89.68 (75.55%)
Maximum spatial batch extension              ...  18.67, 20.44, 20.25 au
Average spatial batch extension              ...   3.81,  3.67,  3.91 au

Time for grid setup =    0.326 sec

------------------------------
INITIAL GUESS: MODEL POTENTIAL
------------------------------
Loading Hartree-Fock densities                     ... done
Calculating cut-offs                               ... done
Setting up the integral package                    ... done
Initializing the effective Hamiltonian             ... done
Starting the Coulomb interaction                   ... done (   0.3 sec)
Reading the grid                                   ... done
Mapping shells                                     ... done
Starting the XC term evaluation                    ... done (   0.8 sec)
  promolecular density results
     # of electrons  =     73.005243591
     EX              =    -61.472623818
     EC              =     -2.497596643
     EX+EC           =    -63.970220462
Transforming the Hamiltonian                       ... done (   0.0 sec)
Diagonalizing the Hamiltonian                      ... done (   0.0 sec)
Back transforming the eigenvectors                 ... done (   0.0 sec)
Now organizing SCF variables                       ... done
                      ------------------
                      INITIAL GUESS DONE (   1.7 sec)
                      ------------------
--------------
SCF ITERATIONS
--------------
ITER       Energy         Delta-E        Max-DP      RMS-DP      [F,P]     Damp
               ***  Starting incremental Fock matrix formation  ***
  0   -475.1196336236   0.000000000000 0.23711677  0.00379818  0.2017640 0.7000
  1   -475.3249149500  -0.205281326409 0.14884982  0.00254454  0.0769600 0.7000
                               ***Turning on DIIS***
  2   -475.2939410821   0.030973867934 0.38596249  0.00651783  0.0543167 0.0000
  3   -475.1795442644   0.114396817643 0.01901352  0.00056031  0.2086062 0.7000
  4   -475.2161749057  -0.036630641273 0.01616966  0.00057745  0.1825154 0.7000
  5   -475.2489494241  -0.032774518423 0.01363845  0.00049398  0.1578633 0.7000
  6   -475.2741171925  -0.025167768345 0.01135795  0.00041218  0.1376864 0.7000
  7   -475.2931753664  -0.019058173880 0.14811010  0.00225937  0.1212524 0.7000
  8   -475.4213889314  -0.128213565072 0.48978179  0.00592360  0.0301922 0.0000
  9   -475.0357342689   0.385654662504 0.01333868  0.00027871  0.3714389 0.7000
 10   -475.0193459907   0.016388278229 0.01681061  0.00036237  0.3673936 0.7000
 11   -474.9954101850   0.023935805704 0.01692977  0.00037802  0.3594591 0.7000
 12   -474.9699363820   0.025473803018 0.01897403  0.00035986  0.3475274 0.7000
 13   -474.9395328436   0.030403538329 0.19911218  0.00313164  0.3325313 0.7000
 14   -475.3018432864  -0.362310442793 0.14057343  0.00178717  0.1065145 0.7000
 15   -475.3936684921  -0.091825205695 0.32849444  0.00418446  0.0516874 0.0000
 16   -475.2978860941   0.095782398006 0.00513101  0.00016861  0.1087513 0.7000
 17   -475.2960005197   0.001885574410 0.00506432  0.00019355  0.1145162 0.7000
 18   -475.2937288317   0.002271688006 0.00402442  0.00018964  0.1207016 0.7000
 19   -475.2912732693   0.002455562438 0.00315709  0.00012762  0.1257349 0.7000
               *** Restarting incremental Fock matrix formation ***
                                   *** Resetting DIIS ***
 20   -475.2907416495   0.000531619783 0.25036893  0.00309052  0.1281419 0.7000
 21   -475.4235291116  -0.132787462106 0.50709132  0.00648562  0.0481722 0.0000
 22   -474.5747679544   0.848761157197 0.01423457  0.00033648  0.2905058 0.7000
 23   -474.6008072075  -0.026039253137 0.01686686  0.00041444  0.2845473 0.7000
 24   -474.6294970759  -0.028689868363 0.01595557  0.00041242  0.2779715 0.7000
 25   -474.6561935403  -0.026696464376 0.01927770  0.00043955  0.2723679 0.7000
 26   -474.6764763535  -0.020282813251 0.21576864  0.00362174  0.2741052 0.7000
 27   -475.2034955054  -0.527019151889 0.15105815  0.00205371  0.1059176 0.7000
 28   -475.3397853699  -0.136289864520 0.35247826  0.00455983  0.0704328 0.0000
 29   -475.2050553912   0.134729978699 0.00557881  0.00021039  0.1770744 0.7000
 30   -475.2172649126  -0.012209521339 0.00819916  0.00025895  0.1739030 0.7000
 31   -475.2311017023  -0.013836789777 0.00698636  0.00023718  0.1712630 0.7000
 32   -475.2434230474  -0.012321345048 0.00632852  0.00022394  0.1665578 0.7000
 33   -475.2535895715  -0.010166524087 0.23606143  0.00312004  0.1603577 0.7000
 34   -475.4201205807  -0.166531009254 0.49690449  0.00656066  0.0265013 0.0000
 35   -474.6039011689   0.816219411815 0.02087546  0.00036815  0.2806067 0.7000
 36   -474.6286468913  -0.024745722418 0.02853045  0.00046536  0.2723942 0.7000
 37   -474.6557188741  -0.027071982787 0.03037782  0.00048638  0.2640422 0.7000
 38   -474.6808783740  -0.025159499825 0.03208267  0.00050183  0.2579986 0.7000
 39   -474.7026821738  -0.021803799844 0.20324671  0.00361379  0.2565263 0.7000
               *** Restarting incremental Fock matrix formation ***
                                   *** Resetting DIIS ***
 40   -475.2074563724  -0.504774198576 0.47425172  0.00686042  0.0943752 0.0000
 41   -475.0087230744   0.198733298001 0.01655066  0.00050368  0.3097921 0.7000
 42   -475.0582631655  -0.049540091100 0.01750082  0.00057325  0.2882240 0.7000
 43   -475.1087808049  -0.050517639430 0.01639158  0.00052692  0.2662751 0.7000
 44   -475.1513029636  -0.042522158714 0.01529169  0.00045659  0.2460701 0.7000
 45   -475.1856634034  -0.034360439783 0.23357287  0.00313740  0.2273022 0.7000
 46   -475.3967036746  -0.211040271192 0.49515477  0.00681722  0.0551308 0.0000
 47   -474.5974105041   0.799293170455 0.02819399  0.00054025  0.2788375 0.7000
 48   -474.6360405913  -0.038630087181 0.03391256  0.00068811  0.2664631 0.7000
 49   -474.6753045993  -0.039264008010 0.03231452  0.00067837  0.2530894 0.7000
 50   -474.7087179596  -0.033413360238 0.02878489  0.00063337  0.2424875 0.7000
 51   -474.7381324899  -0.029414530382 0.18946429  0.00352237  0.2353669 0.7000
 52   -475.2170600753  -0.478927585305 0.44210701  0.00664713  0.0808961 0.0000
 53   -475.0407453377   0.176314737518 0.01354506  0.00042251  0.2559052 0.7000
 54   -475.0804350137  -0.039689675979 0.01925436  0.00051183  0.2421254 0.7000
 55   -475.1231366519  -0.042701638198 0.01967824  0.00049227  0.2312599 0.7000
 56   -475.1602058017  -0.037069149745 0.01552166  0.00043358  0.2219474 0.7000
 57   -475.1912443829  -0.031038581217 0.23400247  0.00317901  0.2105021 0.7000
 58   -475.3867212019  -0.195476818999 0.49763323  0.00699412  0.0715162 0.0000
 59   -474.5666592020   0.820061999920 0.03910114  0.00062368  0.2800597 0.7000
               *** Restarting incremental Fock matrix formation ***
                                   *** Resetting DIIS ***
 60   -474.6086084201  -0.041949218193 0.20776056  0.00393896  0.2626480 0.7000
 61   -475.1703690668  -0.561760646620 0.48477528  0.00712855  0.0983362 0.0000
 62   -474.9629620110   0.207407055810 0.01759827  0.00050983  0.2677400 0.7000
 63   -475.0178729428  -0.054910931820 0.01981988  0.00059364  0.2487673 0.7000
 64   -475.0753739416  -0.057500998874 0.01759410  0.00055571  0.2289989 0.7000
 65   -475.1245101803  -0.049136238688 0.01594440  0.00048726  0.2108848 0.7000
 66   -475.1644855316  -0.039975351262 0.05660542  0.00181063  0.1943217 0.7000
 67   -475.2465808567  -0.082095325106 0.20842745  0.00267330  0.1141809 0.7000
 68   -475.4097358768  -0.163155020135 0.47715380  0.00601494  0.0171979 0.0000
 69   -474.9331110920   0.476624784814 0.01204887  0.00023236  0.3704485 0.7000
 70   -474.9281426814   0.004968410584 0.01445176  0.00029170  0.3604935 0.7000
 71   -474.9185894371   0.009553244366 0.01444869  0.00030758  0.3453537 0.7000
 72   -474.9084300464   0.010159390664 0.01582116  0.00029350  0.3270712 0.7000
 73   -474.8925378356   0.015892210800 0.20456604  0.00320856  0.3073230 0.7000
 74   -475.2868684501  -0.394330614494 0.14397778  0.00183793  0.1020610 0.7000
 75   -475.3887651513  -0.101896701201 0.33630652  0.00426583  0.0489643 0.0000
 76   -475.2904012356   0.098363915729 0.00488125  0.00015868  0.1074837 0.7000
 77   -475.2892793044   0.001121931160 0.00475298  0.00018283  0.1127736 0.7000
 78   -475.2879902287   0.001289075742 0.00391499  0.00017995  0.1182075 0.7000
 79   -475.2864656526   0.001524576074 0.00303933  0.00012681  0.1225448 0.7000
               *** Restarting incremental Fock matrix formation ***
                                   *** Resetting DIIS ***
 80   -475.2863855828   0.000080069751 0.25017597  0.00311368  0.1246362 0.7000
 81   -475.4266677642  -0.140282181400 0.50314477  0.00645229  0.0297640 0.0000
 82   -474.5895011207   0.837166643518 0.00782066  0.00024539  0.2888182 0.7000
 83   -474.6104834937  -0.020982372941 0.00835185  0.00029187  0.2855708 0.7000
 84   -474.6352397269  -0.024756233243 0.00740630  0.00030438  0.2820808 0.7000
 85   -474.6602542013  -0.025014474362 0.00802935  0.00031906  0.2789700 0.7000
 86   -474.6826443264  -0.022390125104 0.22028545  0.00333731  0.2807606 0.7000
 87   -475.2203492862  -0.537704959797 0.15421197  0.00200798  0.1101179 0.7000
 88   -475.3704931150  -0.150143828823 0.35983455  0.00448795  0.0501582 0.0000
 89   -475.2290677743   0.141425340722 0.00311510  0.00012017  0.1571374 0.7000
 90   -475.2346827013  -0.005614927053 0.00384366  0.00013912  0.1555752 0.7000
 91   -475.2406260319  -0.005943330585 0.00350986  0.00012530  0.1540082 0.7000
 92   -475.2453287284  -0.004702696475 0.00291305  0.00010584  0.1523647 0.7000
 93   -475.2489325732  -0.003603844821 0.23606109  0.00321048  0.1510110 0.7000
 94   -475.4203860848  -0.171453511619 0.49743379  0.00652936  0.0213192 0.0000
 95   -474.5946393496   0.825746735217 0.00958811  0.00028915  0.2808367 0.7000
 96   -474.6170187224  -0.022379372783 0.01097435  0.00034184  0.2767649 0.7000
 97   -474.6422810959  -0.025262373549 0.01022634  0.00034241  0.2723553 0.7000
 98   -474.6666328297  -0.024351733706 0.00956382  0.00034008  0.2687874 0.7000
 99   -474.6887540607  -0.022121231086 0.21103390  0.00348034  0.2680195 0.7000
               *** Restarting incremental Fock matrix formation ***
                                   *** Resetting DIIS ***
100   -475.2152337064  -0.526479645693 0.14772408  0.00208623  0.1017347 0.7000
101   -475.3467686787  -0.131534972218 0.34468968  0.00455369  0.0806235 0.0000
102   -475.1701589311   0.176609747544 0.00644671  0.00020121  0.1923395 0.7000
103   -475.1838842267  -0.013725295553 0.00736604  0.00024159  0.1858603 0.7000
104   -475.1994308143  -0.015546587682 0.00681372  0.00022868  0.1789594 0.7000
105   -475.2135773393  -0.014146524960 0.00765255  0.00022050  0.1727569 0.7000
106   -475.2255734223  -0.011996082989 0.18414027  0.00315175  0.1647670 0.7000
107   -475.4158815323  -0.190308109969 0.51059366  0.00663363  0.0256531 0.0000
108   -474.6276774311   0.788204101140 0.01258993  0.00033109  0.2590475 0.7000
109   -474.6510603817  -0.023382950591 0.01372017  0.00039738  0.2534160 0.7000
110   -474.6779464096  -0.026886027928 0.01186604  0.00040429  0.2472176 0.7000
111   -474.7046734202  -0.026727010529 0.01191987  0.00041796  0.2424779 0.7000
112   -474.7299959059  -0.025322485751 0.19340625  0.00340630  0.2419811 0.7000
113   -475.2268011657  -0.496805259801 0.45128207  0.00662587  0.0850307 0.0000
114   -475.0865078877   0.140293277988 0.01254281  0.00032597  0.2584363 0.7000
115   -475.1139618851  -0.027453997364 0.01297085  0.00036691  0.2430270 0.7000
116   -475.1428337883  -0.028871903174 0.01132243  0.00033423  0.2281935 0.7000
117   -475.1677284659  -0.024894677662 0.00926266  0.00030746  0.2157956 0.7000
118   -475.1894823934  -0.021753927510 0.06010833  0.00181027  0.2058690 0.7000
119   -475.2630729098  -0.073590516329 0.03155285  0.00136163  0.1180615 0.7000
               *** Restarting incremental Fock matrix formation ***
                                   *** Resetting DIIS ***
120   -475.3038179779  -0.040745068099 0.82250816  0.00996342  0.0788894 0.0000
121   -474.3103441449   0.993473832970 0.03076709  0.00060087  0.3974232 0.7000
122   -474.3734954734  -0.063151328531 0.03080736  0.00062436  0.3664677 0.7000
123   -474.4343236071  -0.060828133649 0.02558407  0.00053972  0.3355876 0.7000
124   -474.4842568518  -0.049933244673 0.02079150  0.00045117  0.3096506 0.7000
125   -474.5246338415  -0.040376989765 0.21450345  0.00378242  0.2890191 0.7000
126   -475.1671210496  -0.642487208052 0.15018357  0.00216577  0.1038122 0.7000
127   -475.3491852380  -0.182064188456 0.35044121  0.00463164  0.0340482 0.0000
128   -475.2348275156   0.114357722431 0.00549473  0.00019516  0.1818930 0.7000
129   -475.2447006709  -0.009873155268 0.00644260  0.00022889  0.1788011 0.7000
130   -475.2556496377  -0.010948966866 0.00784623  0.00021800  0.1754142 0.7000
131   -475.2653624361  -0.009712798328 0.00636971  0.00018520  0.1730700 0.7000
132   -475.2736580885  -0.008295652444 0.23953371  0.00305317  0.1697971 0.7000
133   -475.4109425830  -0.137284494548 0.50666829  0.00662702  0.0518814 0.0000
134   -474.5339002599   0.877042323189 0.03334177  0.00049729  0.2904081 0.7000
135   -474.5709539157  -0.037053655834 0.04691291  0.00066155  0.2765056 0.7000
136   -474.6089008471  -0.037946931437 0.04872172  0.00067843  0.2661522 0.7000
137   -474.6395995365  -0.030698689378 0.05602130  0.00072853  0.2582974 0.7000
138   -474.6598550330  -0.020255496481 0.20424336  0.00378125  0.2577687 0.7000
139   -475.1862615141  -0.526406481136 0.47659491  0.00691633  0.0952365 0.0000
               *** Restarting incremental Fock matrix formation ***
                                   *** Resetting DIIS ***
140   -474.9764005268   0.209860987357 0.23954247  0.00430517  0.2700180 0.7000
141   -475.3215794945  -0.345178967687 0.48634262  0.00749241  0.0485716 0.0000
142   -474.4909208470   0.830658647421 0.01862881  0.00058973  0.2903760 0.7000
143   -474.5326117189  -0.041690871892 0.02011302  0.00064609  0.2838486 0.7000
144   -474.5735919486  -0.040980229641 0.01701790  0.00056706  0.2789638 0.7000
145   -474.6086667947  -0.035074846106 0.01911466  0.00048482  0.2734879 0.7000
146   -474.6446178708  -0.035951076144 0.19890342  0.00366606  0.2626418 0.7000
147   -475.1985491237  -0.553931252928 0.45616593  0.00688539  0.0868794 0.0000
148   -475.0476286086   0.150920515127 0.01521298  0.00035461  0.2732415 0.7000
149   -475.0797081439  -0.032079535314 0.01600020  0.00039720  0.2545549 0.7000
                      *** Initiating the SOSCF procedure ***
                           *** Shutting down DIIS ***
                      *** Re-Reading the Fockian *** 
                      *** Removing any level shift *** 
ITER      Energy       Delta-E        Grad      Rot      Max-DP    RMS-DP
150   -475.11348694  -0.0337788007  0.010919  0.010919  0.046174  0.001206
               *** Restarting incremental Fock matrix formation ***
151   -475.20577901  -0.0922920613  0.125963  0.810873  0.076065  0.003238
152   -475.23353405  -0.0277550482  0.127216  0.429570  0.056096  0.001991
153   -475.26774890  -0.0342148470  0.042520  0.209811  0.094618  0.002737
154   -475.34249442  -0.0747455211  0.053468  0.162959  0.080705  0.002255
155   -475.35608888  -0.0135944571  0.023382  0.036063  0.032588  0.001379
156   -475.36689795  -0.0108090715  0.006234  0.019089  0.017333  0.000592
157   -475.36700950  -0.0001115450  0.009146  0.027052  0.009694  0.000265

                    ****Warning: large step in SOSCF, scaling down***
158   -475.36929100  -0.0022815060  0.015832 11.673827  6.353138  0.103401

                    ****Warning: large step in SOSCF, scaling down***
159   -454.17244521  21.1968457914  0.382315  8.124580  1.519101  0.026383

          ************************************************************
          *                     SERIOUS PROBLEM IN SOSCF             *
          *                     ------------------------             *
          *            HUGE, UNRELIABLE STEP WAS ABOUT TO BE TAKEN   *
          *                         ABORTING THE RUN                 *
          ************************************************************
[file orca_scf/scf2.cpp, line 1476]: 


ORCA finished by error termination in SCF
Calling Command: orca_scf neb_orto_products_new.gbw b 
[file orca_tools/qcmsg.cpp, line 458]: 
  .... aborting the run

