
                                 *****************
                                 * O   R   C   A *
                                 *****************

                                            #,                                       
                                            ###                                      
                                            ####                                     
                                            #####                                    
                                            ######                                   
                                           ########,                                 
                                     ,,################,,,,,                         
                               ,,#################################,,                 
                          ,,##########################################,,             
                       ,#########################################, ''#####,          
                    ,#############################################,,   '####,        
                  ,##################################################,,,,####,       
                ,###########''''           ''''###############################       
              ,#####''   ,,,,##########,,,,          '''####'''          '####       
            ,##' ,,,,###########################,,,                        '##       
           ' ,,###''''                  '''############,,,                           
         ,,##''                                '''############,,,,        ,,,,,,###''
      ,#''                                            '''#######################'''  
     '                                                          ''''####''''         
             ,#######,   #######,   ,#######,      ##                                
            ,#'     '#,  ##    ##  ,#'     '#,    #''#        ######   ,####,        
            ##       ##  ##   ,#'  ##            #'  '#       #        #'  '#        
            ##       ##  #######   ##           ,######,      #####,   #    #        
            '#,     ,#'  ##    ##  '#,     ,#' ,#      #,         ##   #,  ,#        
             '#######'   ##     ##  '#######'  #'      '#     #####' # '####'        



                  #######################################################
                  #                        -***-                        #
                  #          Department of theory and spectroscopy      #
                  #    Directorship and core code : Frank Neese         #
                  #        Max Planck Institute fuer Kohlenforschung    #
                  #                Kaiser Wilhelm Platz 1               #
                  #                 D-45470 Muelheim/Ruhr               #
                  #                      Germany                        #
                  #                                                     #
                  #                  All rights reserved                #
                  #                        -***-                        #
                  #######################################################



                         Program Version 5.0.4 -  RELEASE  -

 With contributions from (in alphabetic order):
   Daniel Aravena         : Magnetic Suceptibility
   Michael Atanasov       : Ab Initio Ligand Field Theory (pilot matlab implementation)
   Alexander A. Auer      : GIAO ZORA, VPT2 properties, NMR spectrum
   Ute Becker             : Parallelization
   Giovanni Bistoni       : ED, misc. LED, open-shell LED, HFLD
   Martin Brehm           : Molecular dynamics
   Dmytro Bykov           : SCF Hessian
   Vijay G. Chilkuri      : MRCI spin determinant printing, contributions to CSF-ICE
   Dipayan Datta          : RHF DLPNO-CCSD density
   Achintya Kumar Dutta   : EOM-CC, STEOM-CC
   Dmitry Ganyushin       : Spin-Orbit,Spin-Spin,Magnetic field MRCI
   Miquel Garcia          : C-PCM and meta-GGA Hessian, CC/C-PCM, Gaussian charge scheme
   Yang Guo               : DLPNO-NEVPT2, F12-NEVPT2, CIM, IAO-localization
   Andreas Hansen         : Spin unrestricted coupled pair/coupled cluster methods
   Benjamin Helmich-Paris : MC-RPA, TRAH-SCF, COSX integrals
   Lee Huntington         : MR-EOM, pCC
   Robert Izsak           : Overlap fitted RIJCOSX, COSX-SCS-MP3, EOM
   Marcus Kettner         : VPT2
   Christian Kollmar      : KDIIS, OOCD, Brueckner-CCSD(T), CCSD density, CASPT2, CASPT2-K
   Simone Kossmann        : Meta GGA functionals, TD-DFT gradient, OOMP2, MP2 Hessian
   Martin Krupicka        : Initial AUTO-CI
   Lucas Lang             : DCDCAS
   Marvin Lechner         : AUTO-CI (C++ implementation), FIC-MRCC
   Dagmar Lenk            : GEPOL surface, SMD
   Dimitrios Liakos       : Extrapolation schemes; Compound Job, initial MDCI parallelization
   Dimitrios Manganas     : Further ROCIS development; embedding schemes
   Dimitrios Pantazis     : SARC Basis sets
   Anastasios Papadopoulos: AUTO-CI, single reference methods and gradients
   Taras Petrenko         : DFT Hessian,TD-DFT gradient, ASA, ECA, R-Raman, ABS, FL, XAS/XES, NRVS
   Peter Pinski           : DLPNO-MP2, DLPNO-MP2 Gradient
   Christoph Reimann      : Effective Core Potentials
   Marius Retegan         : Local ZFS, SOC
   Christoph Riplinger    : Optimizer, TS searches, QM/MM, DLPNO-CCSD(T), (RO)-DLPNO pert. Triples
   Tobias Risthaus        : Range-separated hybrids, TD-DFT gradient, RPA, STAB
   Michael Roemelt        : Original ROCIS implementation
   Masaaki Saitow         : Open-shell DLPNO-CCSD energy and density
   Barbara Sandhoefer     : DKH picture change effects
   Avijit Sen             : IP-ROCIS
   Kantharuban Sivalingam : CASSCF convergence, NEVPT2, FIC-MRCI
   Bernardo de Souza      : ESD, SOC TD-DFT
   Georgi Stoychev        : AutoAux, RI-MP2 NMR, DLPNO-MP2 response
   Willem Van den Heuvel  : Paramagnetic NMR
   Boris Wezisla          : Elementary symmetry handling
   Frank Wennmohs         : Technical directorship


 We gratefully acknowledge several colleagues who have allowed us to
 interface, adapt or use parts of their codes:
   Stefan Grimme, W. Hujo, H. Kruse, P. Pracht,  : VdW corrections, initial TS optimization,
                  C. Bannwarth, S. Ehlert          DFT functionals, gCP, sTDA/sTD-DF
   Ed Valeev, F. Pavosevic, A. Kumar             : LibInt (2-el integral package), F12 methods
   Garnet Chan, S. Sharma, J. Yang, R. Olivares  : DMRG
   Ulf Ekstrom                                   : XCFun DFT Library
   Mihaly Kallay                                 : mrcc  (arbitrary order and MRCC methods)
   Jiri Pittner, Ondrej Demel                    : Mk-CCSD
   Frank Weinhold                                : gennbo (NPA and NBO analysis)
   Christopher J. Cramer and Donald G. Truhlar   : smd solvation model
   Lars Goerigk                                  : TD-DFT with DH, B97 family of functionals
   V. Asgeirsson, H. Jonsson                     : NEB implementation
   FAccTs GmbH                                   : IRC, NEB, NEB-TS, DLPNO-Multilevel, CI-OPT
                                                   MM, QMMM, 2- and 3-layer-ONIOM, Crystal-QMMM,
                                                   LR-CPCM, SF, NACMEs, symmetry and pop. for TD-DFT,
                                                   nearIR, NL-DFT gradient (VV10), updates on ESD,
                                                   ML-optimized integration grids
   S Lehtola, MJT Oliveira, MAL Marques          : LibXC Library
   Liviu Ungur et al                             : ANISO software


 Your calculation uses the libint2 library for the computation of 2-el integrals
 For citations please refer to: http://libint.valeyev.net

 Your ORCA version has been built with support for libXC version: 5.1.0
 For citations please refer to: https://tddft.org/programs/libxc/

 This ORCA versions uses:
   CBLAS   interface :  Fast vector & matrix operations
   LAPACKE interface :  Fast linear algebra routines
   Shared memory     :  Shared parallel matrices


Your calculation utilizes the atom-pairwise dispersion correction
based on tight binding partial charges (D4)
Cite in your paper:
E.Caldeweyher, C.Bannwarth, S.Grimme, J.Chem.Phys., (2017), 147, 034112.
E.Caldeweyher, S.Ehlert, A.Hansen, H.Neugebauer, S.Grimme, J.Chem.Phys., (2018), in progress.
   

================================================================================

----- Orbital basis set information -----
Your calculation utilizes the basis: def2-SVP
   F. Weigend and R. Ahlrichs, Phys. Chem. Chem. Phys. 7, 3297 (2005).

----- AuxJ basis set information -----
Your calculation utilizes the auxiliary basis: def2/J
   F. Weigend, Phys. Chem. Chem. Phys. 8, 1057 (2006).

================================================================================
                                        WARNINGS
                       Please study these warnings very carefully!
================================================================================


WARNING: Geometry Optimization
  ===> : Switching off AutoStart
         For restart on a previous wavefunction, please use MOREAD

INFO   : the flag for use of the SHARK integral package has been found!

================================================================================
                                       INPUT FILE
================================================================================
NAME = opt.inp
|  1> !B3LYP DEF2-SVP OPT FREQ D4 SOSCF
|  2> 
|  3> * xyz 0 1
|  4>    C       -6.48619        0.79126       -0.00000
|  5>    C       -7.72874        0.14583       -0.00000
|  6>    C       -7.79140       -1.25169       -0.00000
|  7>    C       -6.61301       -2.00518       -0.00000
|  8>    C       -5.37125       -1.36144       -0.00000
|  9>    C       -5.30716        0.03600       -0.00000
| 10>    H       -8.64370        0.72444       -0.00000
| 11>    H       -8.75214       -1.75014       -0.00000
| 12>    H       -6.66205       -3.08640       -0.00000
| 13>    H       -4.45958       -1.94481       -0.00000
| 14>    H       -4.34359        0.52943       -0.00000
| 15>   Cl       -6.40672        2.54355       -0.00000
| 16> **                         ****END OF INPUT****
================================================================================

                       *****************************
                       * Geometry Optimization Run *
                       *****************************

Geometry optimization settings:
Update method            Update   .... BFGS
Choice of coordinates    CoordSys .... Z-matrix Internals
Initial Hessian          InHess   .... Almoef's Model

Convergence Tolerances:
Energy Change            TolE     ....  5.0000e-06 Eh
Max. Gradient            TolMAXG  ....  3.0000e-04 Eh/bohr
RMS Gradient             TolRMSG  ....  1.0000e-04 Eh/bohr
Max. Displacement        TolMAXD  ....  4.0000e-03 bohr
RMS Displacement         TolRMSD  ....  2.0000e-03 bohr
Strict Convergence                ....  False
------------------------------------------------------------------------------
                        ORCA OPTIMIZATION COORDINATE SETUP
------------------------------------------------------------------------------

The optimization will be done in new redundant internal coordinates
Making redundant internal coordinates   ...  (new redundants) done
Evaluating the initial hessian          ...  (Almloef) done
Evaluating the coordinates              ...  done
Calculating the B-matrix                .... done
Calculating the G-matrix                .... done
Diagonalizing the G-matrix              .... done
The first mode is                       ....   24
The number of degrees of freedom        ....   30

    -----------------------------------------------------------------
                    Redundant Internal Coordinates


    -----------------------------------------------------------------
         Definition                    Initial Value    Approx d2E/dq
    -----------------------------------------------------------------
      1. B(C   1,C   0)                  1.4002         0.601857   
      2. B(C   2,C   1)                  1.3989         0.604646   
      3. B(C   3,C   2)                  1.3987         0.605152   
      4. B(C   4,C   3)                  1.3987         0.605137   
      5. B(C   5,C   4)                  1.3989         0.604679   
      6. B(C   5,C   0)                  1.4002         0.601842   
      7. B(H   6,C   1)                  1.0826         0.370075   
      8. B(H   7,C   2)                  1.0823         0.370368   
      9. B(H   8,C   3)                  1.0823         0.370389   
     10. B(H   9,C   4)                  1.0823         0.370375   
     11. B(H  10,C   5)                  1.0826         0.370075   
     12. B(Cl 11,C   0)                  1.7541         0.368002   
     13. A(C   1,C   0,Cl 11)          120.0459         0.411155   
     14. A(C   5,C   0,Cl 11)          120.0460         0.411153   
     15. A(C   1,C   0,C   5)          119.9081         0.429456   
     16. A(C   0,C   1,C   2)          120.0164         0.429814   
     17. A(C   2,C   1,H   6)          119.7416         0.353043   
     18. A(C   0,C   1,H   6)          120.2421         0.352767   
     19. A(C   3,C   2,H   7)          119.9831         0.353141   
     20. A(C   1,C   2,H   7)          119.9884         0.353091   
     21. A(C   1,C   2,C   3)          120.0286         0.430236   
     22. A(C   2,C   3,C   4)          120.0016         0.430299   
     23. A(C   4,C   3,H   8)          119.9996         0.353142   
     24. A(C   2,C   3,H   8)          119.9989         0.353144   
     25. A(C   5,C   4,H   9)          119.9890         0.353095   
     26. A(C   3,C   4,H   9)          119.9825         0.353140   
     27. A(C   3,C   4,C   5)          120.0285         0.430238   
     28. A(C   0,C   5,H  10)          120.2410         0.352766   
     29. A(C   0,C   5,C   4)          120.0168         0.429817   
     30. A(C   4,C   5,H  10)          119.7422         0.353047   
     31. D(H   6,C   1,C   0,C   5)    180.0000         0.024980   
     32. D(H   6,C   1,C   0,Cl 11)      0.0000         0.024980   
     33. D(C   2,C   1,C   0,Cl 11)    180.0000         0.024980   
     34. D(C   2,C   1,C   0,C   5)      0.0000         0.024980   
     35. D(H   7,C   2,C   1,C   0)    180.0000         0.025225   
     36. D(C   3,C   2,C   1,C   0)      0.0000         0.025225   
     37. D(C   3,C   2,C   1,H   6)    180.0000         0.025225   
     38. D(H   7,C   2,C   1,H   6)      0.0000         0.025225   
     39. D(H   8,C   3,C   2,H   7)      0.0000         0.025269   
     40. D(H   8,C   3,C   2,C   1)    180.0000         0.025269   
     41. D(C   4,C   3,C   2,H   7)    180.0000         0.025269   
     42. D(C   4,C   3,C   2,C   1)      0.0000         0.025269   
     43. D(H   9,C   4,C   3,C   2)    180.0000         0.025268   
     44. D(C   5,C   4,C   3,H   8)    180.0000         0.025268   
     45. D(C   5,C   4,C   3,C   2)      0.0000         0.025268   
     46. D(H   9,C   4,C   3,H   8)      0.0000         0.025268   
     47. D(H  10,C   5,C   4,H   9)      0.0000         0.025228   
     48. D(C   0,C   5,C   4,H   9)    180.0000         0.025228   
     49. D(C   0,C   5,C   4,C   3)      0.0000         0.025228   
     50. D(H  10,C   5,C   0,Cl 11)      0.0000         0.024978   
     51. D(H  10,C   5,C   0,C   1)    180.0000         0.024978   
     52. D(H  10,C   5,C   4,C   3)    180.0000         0.025228   
     53. D(C   4,C   5,C   0,Cl 11)    180.0000         0.024978   
     54. D(C   4,C   5,C   0,C   1)      0.0000         0.024978   
    -----------------------------------------------------------------

Number of atoms                         .... 12
Number of degrees of freedom            .... 54

         *************************************************************
         *                GEOMETRY OPTIMIZATION CYCLE   1            *
         *************************************************************
---------------------------------
CARTESIAN COORDINATES (ANGSTROEM)
---------------------------------
  C     -6.486190    0.791260   -0.000000
  C     -7.728740    0.145830   -0.000000
  C     -7.791400   -1.251690   -0.000000
  C     -6.613010   -2.005180   -0.000000
  C     -5.371250   -1.361440   -0.000000
  C     -5.307160    0.036000   -0.000000
  H     -8.643700    0.724440   -0.000000
  H     -8.752140   -1.750140   -0.000000
  H     -6.662050   -3.086400   -0.000000
  H     -4.459580   -1.944810   -0.000000
  H     -4.343590    0.529430   -0.000000
  Cl    -6.406720    2.543550   -0.000000

----------------------------
CARTESIAN COORDINATES (A.U.)
----------------------------
  NO LB      ZA    FRAG     MASS         X           Y           Z
   0 C     6.0000    0    12.011  -12.257123    1.495265   -0.000000
   1 C     6.0000    0    12.011  -14.605202    0.275579   -0.000000
   2 C     6.0000    0    12.011  -14.723612   -2.365351   -0.000000
   3 C     6.0000    0    12.011  -12.496778   -3.789241   -0.000000
   4 C     6.0000    0    12.011  -10.150191   -2.572749   -0.000000
   5 C     6.0000    0    12.011  -10.029079    0.068030   -0.000000
   6 H     1.0000    0     1.008  -16.334226    1.368993   -0.000000
   7 H     1.0000    0     1.008  -16.539148   -3.307285   -0.000000
   8 H     1.0000    0     1.008  -12.589450   -5.832451   -0.000000
   9 H     1.0000    0     1.008   -8.427385   -3.675158   -0.000000
  10 H     1.0000    0     1.008   -8.208196    1.000478   -0.000000
  11 Cl   17.0000    0    35.453  -12.106946    4.806613   -0.000000

--------------------------------
INTERNAL COORDINATES (ANGSTROEM)
--------------------------------
 C      0   0   0     0.000000000000     0.00000000     0.00000000
 C      1   0   0     1.400182269349     0.00000000     0.00000000
 C      2   1   0     1.398924024384   120.01638997     0.00000000
 C      3   2   1     1.398695882671   120.02856843     0.00000000
 C      4   3   2     1.398702643595   120.00155899     0.00000000
 C      5   4   3     1.398908889707   120.02852977     0.00000000
 H      2   1   3     1.082562392521   120.24205504   180.00000000
 H      3   2   1     1.082346409473   119.98836099   180.00000000
 H      4   3   2     1.082331561953   119.99885773   180.00000121
 H      5   4   3     1.082341325923   119.98251626   180.00000000
 H      6   5   4     1.082561919615   119.74220089   180.00000000
 Cl     1   2   3     1.754091139308   120.04586683   180.00000085

---------------------------
INTERNAL COORDINATES (A.U.)
---------------------------
 C      0   0   0     0.000000000000     0.00000000     0.00000000
 C      1   0   0     2.645961026642     0.00000000     0.00000000
 C      2   1   0     2.643583288250   120.01638997     0.00000000
 C      3   2   1     2.643152162891   120.02856843     0.00000000
 C      4   3   2     2.643164939186   120.00155899     0.00000000
 C      5   4   3     2.643554687853   120.02852977     0.00000000
 H      2   1   3     2.045746444747   120.24205504   180.00000000
 H      3   2   1     2.045338295938   119.98836099   180.00000000
 H      4   3   2     2.045310238191   119.99885773   180.00000121
 H      5   4   3     2.045328689419   119.98251626   180.00000000
 H      6   5   4     2.045745551084   119.74220089   180.00000000
 Cl     1   2   3     3.314751867231   120.04586683   180.00000085

---------------------
BASIS SET INFORMATION
---------------------
There are 3 groups of distinct atoms

 Group   1 Type C   : 7s4p1d contracted to 3s2p1d pattern {511/31/1}
 Group   2 Type H   : 4s1p contracted to 2s1p pattern {31/1}
 Group   3 Type Cl  : 10s7p1d contracted to 4s3p1d pattern {5311/511/1}

Atom   0C    basis set group =>   1
Atom   1C    basis set group =>   1
Atom   2C    basis set group =>   1
Atom   3C    basis set group =>   1
Atom   4C    basis set group =>   1
Atom   5C    basis set group =>   1
Atom   6H    basis set group =>   2
Atom   7H    basis set group =>   2
Atom   8H    basis set group =>   2
Atom   9H    basis set group =>   2
Atom  10H    basis set group =>   2
Atom  11Cl   basis set group =>   3
---------------------------------
AUXILIARY/J BASIS SET INFORMATION
---------------------------------
There are 3 groups of distinct atoms

 Group   1 Type C   : 12s5p4d2f1g contracted to 6s4p3d1f1g pattern {711111/2111/211/2/1}
 Group   2 Type H   : 5s2p1d contracted to 3s1p1d pattern {311/2/1}
 Group   3 Type Cl  : 14s5p5d2f1g contracted to 8s4p3d1f1g pattern {71111111/2111/311/2/1}

Atom   0C    basis set group =>   1
Atom   1C    basis set group =>   1
Atom   2C    basis set group =>   1
Atom   3C    basis set group =>   1
Atom   4C    basis set group =>   1
Atom   5C    basis set group =>   1
Atom   6H    basis set group =>   2
Atom   7H    basis set group =>   2
Atom   8H    basis set group =>   2
Atom   9H    basis set group =>   2
Atom  10H    basis set group =>   2
Atom  11Cl   basis set group =>   3
------------------------------------------------------------------------------
                           ORCA GTO INTEGRAL CALCULATION
                           -- RI-GTO INTEGRALS CHOSEN --
------------------------------------------------------------------------------
------------------------------------------------------------------------------
                   ___                                                        
                  /   \      - P O W E R E D   B Y -                         
                 /     \                                                     
                 |  |  |   _    _      __       _____    __    __             
                 |  |  |  | |  | |    /  \     |  _  \  |  |  /  |          
                  \  \/   | |  | |   /    \    | | | |  |  | /  /          
                 / \  \   | |__| |  /  /\  \   | |_| |  |  |/  /          
                |  |  |   |  __  | /  /__\  \  |    /   |      \           
                |  |  |   | |  | | |   __   |  |    \   |  |\   \          
                \     /   | |  | | |  |  |  |  | |\  \  |  | \   \       
                 \___/    |_|  |_| |__|  |__|  |_| \__\ |__|  \__/        
                                                                              
                      - O R C A' S   B I G   F R I E N D -                    
                                      &                                       
                       - I N T E G R A L  F E E D E R -                       
                                                                              
 v1 FN, 2020, v2 2021                                                         
------------------------------------------------------------------------------


Reading SHARK input file opt.SHARKINP.tmp ... ok
----------------------
SHARK INTEGRAL PACKAGE
----------------------

Number of atoms                             ...     12
Number of basis functions                   ...    127
Number of shells                            ...     59
Maximum angular momentum                    ...      2
Integral batch strategy                     ... SHARK/LIBINT Hybrid
RI-J (if used) integral strategy            ... SPLIT-RIJ (Revised 2003 algorithm where possible)
Printlevel                                  ...      1
Contraction scheme used                     ... SEGMENTED contraction
Coulomb Range Separation                    ... NOT USED
Exchange Range Separation                   ... NOT USED
Finite Nucleus Model                        ... NOT USED
Auxiliary Coulomb fitting basis             ... AVAILABLE
   # of basis functions in Aux-J            ...    400
   # of shells in Aux-J                     ...    132
   Maximum angular momentum in Aux-J        ...      4
Auxiliary J/K fitting basis                 ... NOT available
Auxiliary Correlation fitting basis         ... NOT available
Auxiliary 'external' fitting basis          ... NOT available
Integral threshold                          ...     2.500000e-11
Primitive cut-off                           ...     2.500000e-12
Primitive pair pre-selection threshold      ...     2.500000e-12

Calculating pre-screening integrals         ... done (  0.1 sec) Dimension = 59
Organizing shell pair data                  ... done (  0.0 sec)
Shell pair information
Total number of shell pairs                 ...      1770
Shell pairs after pre-screening             ...      1691
Total number of primitive shell pairs       ...      6786
Primitive shell pairs kept                  ...      4825
          la=0 lb=0:    500 shell pairs
          la=1 lb=0:    612 shell pairs
          la=1 lb=1:    201 shell pairs
          la=2 lb=0:    214 shell pairs
          la=2 lb=1:    136 shell pairs
          la=2 lb=2:     28 shell pairs

Calculating one electron integrals          ... done (  0.0 sec)
Calculating RI/J V-Matrix + Cholesky decomp.... done (  0.0 sec)
Calculating Nuclear repulsion               ... done (  0.0 sec) ENN=    313.937571178610 Eh

SHARK setup successfully completed in   0.3 seconds

Maximum memory used throughout the entire GTOINT-calculation: 16.3 MB
-------------------------------------------------------------------------------
                                 ORCA SCF
-------------------------------------------------------------------------------

------------
SCF SETTINGS
------------
Hamiltonian:
 Density Functional     Method          .... DFT(GTOs)
 Exchange Functional    Exchange        .... B88
   X-Alpha parameter    XAlpha          ....  0.666667
   Becke's b parameter  XBeta           ....  0.004200
 Correlation Functional Correlation     .... LYP
 LDA part of GGA corr.  LDAOpt          .... VWN-5
 Gradients option       PostSCFGGA      .... off
 Hybrid DFT is turned on
   Fraction HF Exchange ScalHFX         ....  0.200000
   Scaling of DF-GGA-X  ScalDFX         ....  0.720000
   Scaling of DF-GGA-C  ScalDFC         ....  0.810000
   Scaling of DF-LDA-C  ScalLDAC        ....  1.000000
   Perturbative correction              ....  0.000000
   Density functional embedding theory  .... OFF
   NL short-range parameter             ....  4.800000
 RI-approximation to the Coulomb term is turned on
   Number of AuxJ basis functions       .... 400
   RIJ-COSX (HFX calculated with COS-X)).... on


General Settings:
 Integral files         IntName         .... opt
 Hartree-Fock type      HFTyp           .... RHF
 Total Charge           Charge          ....    0
 Multiplicity           Mult            ....    1
 Number of Electrons    NEL             ....   58
 Basis Dimension        Dim             ....  127
 Nuclear Repulsion      ENuc            ....    313.9375711786 Eh

Convergence Acceleration:
 DIIS                   CNVDIIS         .... on
   Start iteration      DIISMaxIt       ....    12
   Startup error        DIISStart       ....  0.200000
   # of expansion vecs  DIISMaxEq       ....     5
   Bias factor          DIISBfac        ....   1.050
   Max. coefficient     DIISMaxC        ....  10.000
 Trust-Rad. Augm. Hess. CNVTRAH         .... auto
   Auto Start mean grad. ratio tolernc. ....  1.125000
   Auto Start start iteration           ....    20
   Auto Start num. interpolation iter.  ....    10
   Max. Number of Micro iterations      ....    16
   Max. Number of Macro iterations      .... Maxiter - #DIIS iter
   Number of Davidson start vectors     ....     2
   Converg. threshold I  (grad. norm)   ....   1.000e-05
   Converg. threshold II (energy diff.) ....   1.000e-08
   Grad. Scal. Fac. for Micro threshold ....   0.100
   Minimum threshold for Micro iter.    ....   0.010
   NR start threshold (gradient norm)   ....   0.001
   Initial trust radius                 ....   0.400
   Minimum AH scaling param. (alpha)    ....   1.000
   Maximum AH scaling param. (alpha)    .... 1000.000
   Orbital update algorithm             .... Taylor
   White noise on init. David. guess    .... on
   Maximum white noise                  ....   0.010
   Quad. conv. algorithm                .... NR
 SOSCF                  CNVSOSCF        .... on
   Start iteration      SOSCFMaxIt      ....   150
   Startup grad/error   SOSCFStart      ....  0.003300
 Level Shifting         CNVShift        .... on
   Level shift para.    LevelShift      ....    0.2500
   Turn off err/grad.   ShiftErr        ....    0.0010
 Zerner damping         CNVZerner       .... off
 Static damping         CNVDamp         .... on
   Fraction old density DampFac         ....    0.7000
   Max. Damping (<1)    DampMax         ....    0.9800
   Min. Damping (>=0)   DampMin         ....    0.0000
   Turn off err/grad.   DampErr         ....    0.1000
 Fernandez-Rico         CNVRico         .... off

SCF Procedure:
 Maximum # iterations   MaxIter         ....   125
 SCF integral mode      SCFMode         .... Direct
   Integral package                     .... SHARK and LIBINT hybrid scheme
 Reset frequency        DirectResetFreq ....    20
 Integral Threshold     Thresh          ....  2.500e-11 Eh
 Primitive CutOff       TCut            ....  2.500e-12 Eh

Convergence Tolerance:
 Convergence Check Mode ConvCheckMode   .... Total+1el-Energy
 Convergence forced     ConvForced      .... 0
 Energy Change          TolE            ....  1.000e-08 Eh
 1-El. energy change                    ....  1.000e-05 Eh
 Orbital Gradient       TolG            ....  1.000e-05
 Orbital Rotation angle TolX            ....  1.000e-05
 DIIS Error             TolErr          ....  5.000e-07


Diagonalization of the overlap matrix:
Smallest eigenvalue                        ... 2.969e-04
Time for diagonalization                   ...    0.008 sec
Threshold for overlap eigenvalues          ... 1.000e-08
Number of eigenvalues below threshold      ... 0
Time for construction of square roots      ...    0.004 sec
Total time needed                          ...    0.012 sec

Time for model grid setup =    0.583 sec

------------------------------
INITIAL GUESS: MODEL POTENTIAL
------------------------------
Loading Hartree-Fock densities                     ... done
Calculating cut-offs                               ... done
Initializing the effective Hamiltonian             ... done
Setting up the integral package (SHARK)            ... done
Starting the Coulomb interaction                   ... done (   0.4 sec)
Reading the grid                                   ... done
Mapping shells                                     ... done
Starting the XC term evaluation                    ... done (   0.6 sec)
  promolecular density results
     # of electrons  =     57.997264443
     EX              =    -59.839821143
     EC              =     -2.068204175
     EX+EC           =    -61.908025319
Transforming the Hamiltonian                       ... done (   0.0 sec)
Diagonalizing the Hamiltonian                      ... done (   0.0 sec)
Back transforming the eigenvectors                 ... done (   0.0 sec)
Now organizing SCF variables                       ... done
                      ------------------
                      INITIAL GUESS DONE (   1.6 sec)
                      ------------------
-------------------
DFT GRID GENERATION
-------------------

General Integration Accuracy     IntAcc      ... 4.388
Radial Grid Type                 RadialGrid  ... OptM3 with GC (2021)
Angular Grid (max. ang.)         AngularGrid ... 4 (Lebedev-302)
Angular grid pruning method      GridPruning ... 4 (adaptive)
Weight generation scheme         WeightScheme... Becke
Basis function cutoff            BFCut       ... 1.0000e-11
Integration weight cutoff        WCut        ... 1.0000e-14
Angular grids for H and He will be reduced by one unit
Partially contracted basis set               ... off
Rotationally invariant grid construction     ... off

Total number of grid points                  ...    59568
Total number of batches                      ...      937
Average number of points per batch           ...       63
Average number of grid points per atom       ...     4964
Time for grid setup =    1.916 sec

--------------------
COSX GRID GENERATION
--------------------

GRIDX 1
-------
General Integration Accuracy     IntAcc      ... 3.816
Radial Grid Type                 RadialGrid  ... OptM3 with GC (2021)
Angular Grid (max. ang.)         AngularGrid ... 1 (Lebedev-50)
Angular grid pruning method      GridPruning ... 4 (adaptive)
Weight generation scheme         WeightScheme... Becke
Basis function cutoff            BFCut       ... 1.0000e-11
Integration weight cutoff        WCut        ... 1.0000e-14
Angular grids for H and He will be reduced by one unit
Partially contracted basis set               ... on
Rotationally invariant grid construction     ... off

Total number of grid points                  ...     7527
Total number of batches                      ...      121
Average number of points per batch           ...       62
Average number of grid points per atom       ...      627
UseSFitting                                  ... on

GRIDX 2
-------
General Integration Accuracy     IntAcc      ... 4.020
Radial Grid Type                 RadialGrid  ... OptM3 with GC (2021)
Angular Grid (max. ang.)         AngularGrid ... 2 (Lebedev-110)
Angular grid pruning method      GridPruning ... 4 (adaptive)
Weight generation scheme         WeightScheme... Becke
Basis function cutoff            BFCut       ... 1.0000e-11
Integration weight cutoff        WCut        ... 1.0000e-14
Angular grids for H and He will be reduced by one unit
Partially contracted basis set               ... on
Rotationally invariant grid construction     ... off

Total number of grid points                  ...    16627
Total number of batches                      ...      265
Average number of points per batch           ...       62
Average number of grid points per atom       ...     1386
UseSFitting                                  ... on

GRIDX 3
-------
General Integration Accuracy     IntAcc      ... 4.338
Radial Grid Type                 RadialGrid  ... OptM3 with GC (2021)
Angular Grid (max. ang.)         AngularGrid ... 3 (Lebedev-194)
Angular grid pruning method      GridPruning ... 4 (adaptive)
Weight generation scheme         WeightScheme... Becke
Basis function cutoff            BFCut       ... 1.0000e-11
Integration weight cutoff        WCut        ... 1.0000e-14
Angular grids for H and He will be reduced by one unit
Partially contracted basis set               ... on
Rotationally invariant grid construction     ... off

Total number of grid points                  ...    37259
Total number of batches                      ...      586
Average number of points per batch           ...       63
Average number of grid points per atom       ...     3105
UseSFitting                                  ... on

Time for X-Grid setup             =    2.324 sec

--------------
SCF ITERATIONS
--------------
ITER       Energy         Delta-E        Max-DP      RMS-DP      [F,P]     Damp
               ***  Starting incremental Fock matrix formation  ***
  0   -691.2032734602   0.000000000000 0.05399346  0.00275745  0.1246033 0.7000
  1   -691.2628421300  -0.059568669790 0.03513387  0.00196183  0.0620930 0.7000
                               ***Turning on DIIS***
  2   -691.2882218592  -0.025379729212 0.05666098  0.00349603  0.0280058 0.0000
  3   -691.3234719835  -0.035250124368 0.02292996  0.00120634  0.0409803 0.0000
  4   -691.3338013488  -0.010329365236 0.00935444  0.00036615  0.0076395 0.0000
                      *** Initiating the SOSCF procedure ***
                           *** Shutting down DIIS ***
                      *** Re-Reading the Fockian *** 
                      *** Removing any level shift *** 
ITER      Energy       Delta-E        Grad      Rot      Max-DP    RMS-DP
  5   -691.33432858  -0.0005272314  0.001146  0.001146  0.002642  0.000120
               *** Restarting incremental Fock matrix formation ***
  6   -691.33435451  -0.0000259345  0.000481  0.000991  0.002234  0.000095
  7   -691.33435043   0.0000040888  0.000684  0.001078  0.001257  0.000046
  8   -691.33435999  -0.0000095629  0.000157  0.000613  0.000475  0.000022
  9   -691.33435974   0.0000002485  0.000192  0.000343  0.000301  0.000012
 10   -691.33436033  -0.0000005941  0.000014  0.000021  0.000099  0.000002
 11   -691.33436034  -0.0000000009  0.000010  0.000014  0.000032  0.000001
                  ***Gradient check signals convergence***
              ***Rediagonalizing the Fockian in SOSCF/NRSCF***

               *****************************************************
               *                     SUCCESS                       *
               *           SCF CONVERGED AFTER  12 CYCLES          *
               *****************************************************

Old exchange energy                            =    -12.070714602 Eh
New exchange energy                            =    -12.070721830 Eh
Exchange energy change after final integration =     -0.000007228 Eh
Total energy after final integration           =   -691.334367565 Eh
Final COS-X integration done in                =    12.939 sec

----------------
TOTAL SCF ENERGY
----------------

Total Energy       :         -691.33436757 Eh          -18812.16453 eV

Components:
Nuclear Repulsion  :          313.93757118 Eh            8542.67561 eV
Electronic Energy  :        -1005.27193874 Eh          -27354.84015 eV
One Electron Energy:        -1568.92598914 Eh          -42692.64662 eV
Two Electron Energy:          563.65405040 Eh           15337.80647 eV
Max COSX asymmetry :            0.00000209 Eh               0.00006 eV

Virial components:
Potential Energy   :        -1379.29152742 Eh          -37532.43057 eV
Kinetic Energy     :          687.95715986 Eh           18720.26604 eV
Virial Ratio       :            2.00490904


DFT components:
N(Alpha)           :       29.000015510891 electrons
N(Beta)            :       29.000015510891 electrons
N(Total)           :       58.000031021782 electrons
E(X)               :      -47.908607812498 Eh       
E(C)               :       -2.437011968087 Eh       
E(XC)              :      -50.345619780585 Eh       
DFET-embed. en.    :        0.000000000000 Eh       

---------------
SCF CONVERGENCE
---------------

  Last Energy change         ...   -2.1673e-09  Tolerance :   1.0000e-08
  Last MAX-Density change    ...    3.1086e-15  Tolerance :   1.0000e-07
  Last RMS-Density change    ...    6.8314e-17  Tolerance :   5.0000e-09
  Last Orbital Gradient      ...    2.3233e-06  Tolerance :   1.0000e-05
  Last Orbital Rotation      ...    4.0352e-06  Tolerance :   1.0000e-05

             **** THE GBW FILE WAS UPDATED (opt.gbw) ****
             **** DENSITY opt.scfp WAS UPDATED ****
             **** ENERGY FILE WAS UPDATED (opt.en.tmp) ****
             **** THE GBW FILE WAS UPDATED (opt.gbw) ****
             **** DENSITY opt.scfp WAS UPDATED ****
----------------
ORBITAL ENERGIES
----------------

  NO   OCC          E(Eh)            E(eV) 
   0   2.0000    -101.499954     -2761.9541 
   1   2.0000     -10.245710      -278.7999 
   2   2.0000     -10.200584      -277.5720 
   3   2.0000     -10.200573      -277.5717 
   4   2.0000     -10.199621      -277.5458 
   5   2.0000     -10.199573      -277.5445 
   6   2.0000     -10.195917      -277.4450 
   7   2.0000      -9.454380      -257.2668 
   8   2.0000      -7.223443      -196.5599 
   9   2.0000      -7.213651      -196.2934 
  10   2.0000      -7.213281      -196.2834 
  11   2.0000      -0.881492       -23.9866 
  12   2.0000      -0.828508       -22.5448 
  13   2.0000      -0.749282       -20.3890 
  14   2.0000      -0.726087       -19.7578 
  15   2.0000      -0.613349       -16.6901 
  16   2.0000      -0.595952       -16.2167 
  17   2.0000      -0.523803       -14.2534 
  18   2.0000      -0.468862       -12.7584 
  19   2.0000      -0.464751       -12.6465 
  20   2.0000      -0.432995       -11.7824 
  21   2.0000      -0.431346       -11.7375 
  22   2.0000      -0.394279       -10.7289 
  23   2.0000      -0.364197        -9.9103 
  24   2.0000      -0.362088        -9.8529 
  25   2.0000      -0.330633        -8.9970 
  26   2.0000      -0.306269        -8.3340 
  27   2.0000      -0.265327        -7.2199 
  28   2.0000      -0.246493        -6.7074 
  29   0.0000      -0.018529        -0.5042 
  30   0.0000      -0.017209        -0.4683 
  31   0.0000       0.037397         1.0176 
  32   0.0000       0.084583         2.3016 
  33   0.0000       0.097137         2.6432 
  34   0.0000       0.123079         3.3492 
  35   0.0000       0.137733         3.7479 
  36   0.0000       0.141689         3.8556 
  37   0.0000       0.148395         4.0380 
  38   0.0000       0.263738         7.1767 
  39   0.0000       0.282042         7.6747 
  40   0.0000       0.286596         7.7987 
  41   0.0000       0.291276         7.9260 
  42   0.0000       0.345799         9.4097 
  43   0.0000       0.395223        10.7546 
  44   0.0000       0.408768        11.1231 
  45   0.0000       0.412418        11.2225 
  46   0.0000       0.428721        11.6661 
  47   0.0000       0.456662        12.4264 
  48   0.0000       0.462488        12.5849 
  49   0.0000       0.479854        13.0575 
  50   0.0000       0.494198        13.4478 
  51   0.0000       0.512141        13.9361 
  52   0.0000       0.529774        14.4159 
  53   0.0000       0.532161        14.4808 
  54   0.0000       0.589695        16.0464 
  55   0.0000       0.591915        16.1068 
  56   0.0000       0.594932        16.1889 
  57   0.0000       0.628223        17.0948 
  58   0.0000       0.648368        17.6430 
  59   0.0000       0.659415        17.9436 
  60   0.0000       0.663245        18.0478 
  61   0.0000       0.668298        18.1853 
  62   0.0000       0.706450        19.2235 
  63   0.0000       0.712010        19.3748 
  64   0.0000       0.728582        19.8257 
  65   0.0000       0.737805        20.0767 
  66   0.0000       0.744634        20.2625 
  67   0.0000       0.788578        21.4583 
  68   0.0000       0.793485        21.5918 
  69   0.0000       0.812560        22.1109 
  70   0.0000       0.826743        22.4968 
  71   0.0000       0.832572        22.6554 
  72   0.0000       0.873400        23.7664 
  73   0.0000       0.935221        25.4486 
  74   0.0000       0.956068        26.0159 
  75   0.0000       1.031507        28.0687 
  76   0.0000       1.047855        28.5136 
  77   0.0000       1.177373        32.0380 
  78   0.0000       1.226754        33.3817 
  79   0.0000       1.235711        33.6254 
  80   0.0000       1.238264        33.6949 
  81   0.0000       1.246176        33.9102 
  82   0.0000       1.267125        34.4802 
  83   0.0000       1.274274        34.6748 
  84   0.0000       1.295285        35.2465 
  85   0.0000       1.325363        36.0650 
  86   0.0000       1.497440        40.7474 
  87   0.0000       1.505826        40.9756 
  88   0.0000       1.645936        44.7882 
  89   0.0000       1.689117        45.9632 
  90   0.0000       1.699601        46.2485 
  91   0.0000       1.728360        47.0311 
  92   0.0000       1.744075        47.4587 
  93   0.0000       1.749518        47.6068 
  94   0.0000       1.749613        47.6094 
  95   0.0000       1.778689        48.4006 
  96   0.0000       1.795117        48.8476 
  97   0.0000       1.830434        49.8086 
  98   0.0000       1.870185        50.8903 
  99   0.0000       1.905693        51.8566 
 100   0.0000       1.950811        53.0843 
 101   0.0000       1.979376        53.8616 
 102   0.0000       1.986278        54.0494 
 103   0.0000       2.035498        55.3887 
 104   0.0000       2.087309        56.7986 
 105   0.0000       2.125555        57.8393 
 106   0.0000       2.131843        58.0104 
 107   0.0000       2.217986        60.3545 
 108   0.0000       2.270289        61.7777 
 109   0.0000       2.281320        62.0779 
 110   0.0000       2.296697        62.4963 
 111   0.0000       2.303163        62.6722 
 112   0.0000       2.344509        63.7973 
 113   0.0000       2.354387        64.0661 
 114   0.0000       2.526278        68.7435 
 115   0.0000       2.589451        70.4625 
 116   0.0000       2.600510        70.7635 
 117   0.0000       2.629000        71.5387 
 118   0.0000       2.729635        74.2772 
 119   0.0000       2.732945        74.3672 
 120   0.0000       2.795695        76.0747 
 121   0.0000       2.856345        77.7251 
 122   0.0000       2.870255        78.1036 
 123   0.0000       3.024690        82.3060 
 124   0.0000       3.106232        84.5249 
 125   0.0000       3.197989        87.0217 
 126   0.0000       3.593957        97.7965 

                    ********************************
                    * MULLIKEN POPULATION ANALYSIS *
                    ********************************

-----------------------
MULLIKEN ATOMIC CHARGES
-----------------------
   0 C :    0.059182
   1 C :    0.030144
   2 C :    0.018038
   3 C :    0.030983
   4 C :    0.017835
   5 C :    0.030368
   6 H :   -0.020704
   7 H :   -0.013224
   8 H :   -0.016827
   9 H :   -0.013112
  10 H :   -0.020892
  11 Cl:   -0.101791
Sum of atomic charges:    0.0000000

--------------------------------
MULLIKEN REDUCED ORBITAL CHARGES
--------------------------------
  0 C s       :     2.986717  s :     2.986717
      pz      :     1.047067  p :     2.902974
      px      :     1.050233
      py      :     0.805674
      dz2     :     0.003677  d :     0.051127
      dxz     :     0.006922
      dyz     :     0.007217
      dx2y2   :     0.018252
      dxy     :     0.015060
  1 C s       :     3.221863  s :     3.221863
      pz      :     0.992513  p :     2.714028
      px      :     0.867356
      py      :     0.854160
      dz2     :     0.002621  d :     0.033964
      dxz     :     0.003644
      dyz     :     0.005191
      dx2y2   :     0.010002
      dxy     :     0.012507
  2 C s       :     3.160957  s :     3.160957
      pz      :     0.981389  p :     2.785975
      px      :     0.873783
      py      :     0.930804
      dz2     :     0.002538  d :     0.035030
      dxz     :     0.003176
      dyz     :     0.005712
      dx2y2   :     0.011542
      dxy     :     0.012061
  3 C s       :     3.152787  s :     3.152787
      pz      :     0.989903  p :     2.781525
      px      :     0.958430
      py      :     0.833193
      dz2     :     0.002512  d :     0.034705
      dxz     :     0.006168
      dyz     :     0.002335
      dx2y2   :     0.013036
      dxy     :     0.010654
  4 C s       :     3.161105  s :     3.161105
      pz      :     0.981399  p :     2.786028
      px      :     0.882546
      py      :     0.922083
      dz2     :     0.002539  d :     0.035031
      dxz     :     0.003504
      dyz     :     0.005384
      dx2y2   :     0.011147
      dxy     :     0.012456
  5 C s       :     3.221760  s :     3.221760
      pz      :     0.992522  p :     2.713908
      px      :     0.856582
      py      :     0.864804
      dz2     :     0.002620  d :     0.033964
      dxz     :     0.003326
      dyz     :     0.005509
      dx2y2   :     0.010102
      dxy     :     0.012407
  6 H s       :     0.997368  s :     0.997368
      pz      :     0.004810  p :     0.023337
      px      :     0.011653
      py      :     0.006873
  7 H s       :     0.989999  s :     0.989999
      pz      :     0.004775  p :     0.023225
      px      :     0.012571
      py      :     0.005880
  8 H s       :     0.993619  s :     0.993619
      pz      :     0.004834  p :     0.023208
      px      :     0.003433
      py      :     0.014941
  9 H s       :     0.989888  s :     0.989888
      pz      :     0.004775  p :     0.023224
      px      :     0.011657
      py      :     0.006792
 10 H s       :     0.997553  s :     0.997553
      pz      :     0.004810  p :     0.023339
      px      :     0.012586
      py      :     0.005943
 11 Cls       :     5.942783  s :     5.942783
      pz      :     3.924419  p :    11.123828
      px      :     3.956257
      py      :     3.243151
      dz2     :     0.005203  d :     0.035180
      dxz     :     0.000097
      dyz     :     0.008600
      dx2y2   :     0.016132
      dxy     :     0.005148


                     *******************************
                     * LOEWDIN POPULATION ANALYSIS *
                     *******************************

----------------------
LOEWDIN ATOMIC CHARGES
----------------------
   0 C :   -0.111885
   1 C :   -0.038069
   2 C :   -0.016272
   3 C :   -0.025545
   4 C :   -0.016292
   5 C :   -0.038048
   6 H :    0.029045
   7 H :    0.028836
   8 H :    0.026312
   9 H :    0.028860
  10 H :    0.029010
  11 Cl:    0.104048

-------------------------------
LOEWDIN REDUCED ORBITAL CHARGES
-------------------------------
  0 C s       :     2.909332  s :     2.909332
      pz      :     1.034025  p :     3.083645
      px      :     1.122495
      py      :     0.927124
      dz2     :     0.007936  d :     0.118909
      dxz     :     0.014220
      dyz     :     0.014027
      dx2y2   :     0.042780
      dxy     :     0.039946
  1 C s       :     2.865638  s :     2.865638
      pz      :     0.980916  p :     3.083325
      px      :     1.039745
      py      :     1.062663
      dz2     :     0.006556  d :     0.089106
      dxz     :     0.007087
      dyz     :     0.010754
      dx2y2   :     0.029016
      dxy     :     0.035694
  2 C s       :     2.860368  s :     2.860368
      pz      :     0.962868  p :     3.065528
      px      :     1.047075
      py      :     1.055584
      dz2     :     0.006168  d :     0.090377
      dxz     :     0.005962
      dyz     :     0.012012
      dx2y2   :     0.032596
      dxy     :     0.033639
  3 C s       :     2.859995  s :     2.859995
      pz      :     0.971317  p :     3.075604
      px      :     1.064868
      py      :     1.039419
      dz2     :     0.006170  d :     0.089946
      dxz     :     0.013203
      dyz     :     0.003937
      dx2y2   :     0.035910
      dxy     :     0.030725
  4 C s       :     2.860360  s :     2.860360
      pz      :     0.962875  p :     3.065558
      px      :     1.049294
      py      :     1.053388
      dz2     :     0.006168  d :     0.090374
      dxz     :     0.006750
      dyz     :     0.011225
      dx2y2   :     0.031735
      dxy     :     0.034497
  5 C s       :     2.865632  s :     2.865632
      pz      :     0.980927  p :     3.083307
      px      :     1.039033
      py      :     1.063347
      dz2     :     0.006556  d :     0.089110
      dxz     :     0.006307
      dyz     :     0.011534
      dx2y2   :     0.029178
      dxy     :     0.035535
  6 H s       :     0.901591  s :     0.901591
      pz      :     0.014855  p :     0.069365
      px      :     0.034216
      py      :     0.020294
  7 H s       :     0.902800  s :     0.902800
      pz      :     0.014466  p :     0.068364
      px      :     0.036025
      py      :     0.017873
  8 H s       :     0.905096  s :     0.905096
      pz      :     0.014812  p :     0.068592
      px      :     0.011460
      py      :     0.042320
  9 H s       :     0.902774  s :     0.902774
      pz      :     0.014467  p :     0.068366
      px      :     0.033571
      py      :     0.020328
 10 H s       :     0.901627  s :     0.901627
      pz      :     0.014855  p :     0.069363
      px      :     0.036796
      py      :     0.017712
 11 Cls       :     5.765890  s :     5.765890
      pz      :     3.907155  p :    11.089940
      px      :     3.924843
      py      :     3.257942
      dz2     :     0.006010  d :     0.040122
      dxz     :     0.000095
      dyz     :     0.009349
      dx2y2   :     0.019149
      dxy     :     0.005520


                      *****************************
                      * MAYER POPULATION ANALYSIS *
                      *****************************

  NA   - Mulliken gross atomic population
  ZA   - Total nuclear charge
  QA   - Mulliken gross atomic charge
  VA   - Mayer's total valence
  BVA  - Mayer's bonded valence
  FA   - Mayer's free valence

  ATOM       NA         ZA         QA         VA         BVA        FA
  0 C      5.9408     6.0000     0.0592     3.8544     3.8544     0.0000
  1 C      5.9699     6.0000     0.0301     3.9045     3.9045     0.0000
  2 C      5.9820     6.0000     0.0180     3.8481     3.8481     0.0000
  3 C      5.9690     6.0000     0.0310     3.8301     3.8301     0.0000
  4 C      5.9822     6.0000     0.0178     3.8481     3.8481     0.0000
  5 C      5.9696     6.0000     0.0304     3.9046     3.9046     0.0000
  6 H      1.0207     1.0000    -0.0207     0.9967     0.9967     0.0000
  7 H      1.0132     1.0000    -0.0132     0.9785     0.9785     0.0000
  8 H      1.0168     1.0000    -0.0168     0.9782     0.9782     0.0000
  9 H      1.0131     1.0000    -0.0131     0.9785     0.9785    -0.0000
 10 H      1.0209     1.0000    -0.0209     0.9967     0.9967     0.0000
 11 Cl    17.1018    17.0000    -0.1018     1.1180     1.1180     0.0000

  Mayer bond orders larger than 0.100000
B(  0-C ,  1-C ) :   1.3918 B(  0-C ,  5-C ) :   1.3920 B(  0-C , 11-Cl) :   0.9715 
B(  1-C ,  2-C ) :   1.3812 B(  1-C ,  6-H ) :   0.9892 B(  2-C ,  3-C ) :   1.3847 
B(  2-C ,  7-H ) :   0.9841 B(  3-C ,  4-C ) :   1.3846 B(  3-C ,  8-H ) :   0.9875 
B(  4-C ,  5-C ) :   1.3812 B(  4-C ,  9-H ) :   0.9841 B(  5-C , 10-H ) :   0.9891 


-------
TIMINGS
-------

Total SCF time: 0 days 0 hours 1 min 57 sec 

Total time                  ....     117.593 sec
Sum of individual times     ....     116.693 sec  ( 99.2%)

Fock matrix formation       ....     110.470 sec  ( 93.9%)
  Split-RI-J                ....       7.295 sec  (  6.6% of F)
  Chain of spheres X        ....      82.496 sec  ( 74.7% of F)
  XC integration            ....      20.527 sec  ( 18.6% of F)
    Basis function eval.    ....       8.180 sec  ( 39.8% of XC)
    Density eval.           ....       5.214 sec  ( 25.4% of XC)
    XC-Functional eval.     ....       1.638 sec  (  8.0% of XC)
    XC-Potential eval.      ....       4.281 sec  ( 20.9% of XC)
Diagonalization             ....       0.039 sec  (  0.0%)
Density matrix formation    ....       0.004 sec  (  0.0%)
Population analysis         ....       0.060 sec  (  0.1%)
Initial guess               ....       1.009 sec  (  0.9%)
Orbital Transformation      ....       0.000 sec  (  0.0%)
Orbital Orthonormalization  ....       0.000 sec  (  0.0%)
DIIS solution               ....       0.139 sec  (  0.1%)
SOSCF solution              ....       0.149 sec  (  0.1%)
Grid generation             ....       4.823 sec  (  4.1%)

Maximum memory used throughout the entire SCF-calculation: 61.7 MB


-------------------------------------------------------------------------------
                          DFT DISPERSION CORRECTION                            
                                                                               
                                 DFTD4 V2.5                                    
-------------------------------------------------------------------------------
The B3LYP functional is recognized
Active option DFTDOPT                   ...         5   

Starting D4
-------------------------   ----------------
Dispersion correction           -0.020838223
-------------------------   ----------------


-------------------------   --------------------
FINAL SINGLE POINT ENERGY      -691.355205788767
-------------------------   --------------------

------------------------------------------------------------------------------
                         ORCA SCF GRADIENT CALCULATION
------------------------------------------------------------------------------

 ... reading COSX grid (gridx3)
Gradient of the Kohn-Sham DFT energy:
Kohn-Sham wavefunction type      ... RKS
Hartree-Fock exchange scaling    ...    0.200
Number of operators              ...    1
Number of atoms                  ...   12
Basis set dimensions             ...  127
Integral neglect threshold       ... 2.5e-11
Integral primitive cutoff        ... 2.5e-12
SHARK Integral package           ... ON

Nuc. rep. gradient       (SHARK) ... done (  0.0 sec)
HCore & Overlap gradient (SHARK) ... done (  0.3 sec)
RI-J gradient            (SHARK) ... done (  2.2 sec)
COSX-gradient                    ... done ( 29.4 sec)
Exchange-correlation gradient    ... done
Dispersion correction            ... Starting D4


------------------- 
Dispersion Gradient 
------------------- 
   1  :    0.000016135    0.000355770    0.000000000
   2  :   -0.000423699    0.000067348    0.000000000
   3  :   -0.000439720   -0.000373182    0.000000000
   4  :   -0.000023489   -0.000517947    0.000000000
   5  :    0.000404137   -0.000411451    0.000000000
   6  :    0.000428055    0.000028717    0.000000000
   7  :   -0.000197241    0.000059753    0.000000000
   8  :   -0.000165391   -0.000096397    0.000000000
   9  :   -0.000008192   -0.000180627    0.000000000
  10  :    0.000155987   -0.000110971    0.000000000
  11  :    0.000201839    0.000041654    0.000000000
  12  :    0.000051580    0.001137335    0.000000000

  |G| =    0.001707668

done

------------------
CARTESIAN GRADIENT
------------------

   1   C   :    0.000220918    0.005363634    0.000000001
   2   C   :   -0.001672989    0.001793093    0.000000015
   3   C   :   -0.011321369   -0.004645292   -0.000000015
   4   C   :   -0.000253469   -0.005835252    0.000000009
   5   C   :    0.010846086   -0.005604853    0.000000001
   6   C   :    0.001849148    0.001653341   -0.000000017
   7   H   :    0.004562937   -0.004984984   -0.000000002
   8   H   :    0.006849589    0.002393843   -0.000000002
   9   H   :    0.000344205    0.007401705    0.000000001
  10   H   :   -0.006616339    0.002990111   -0.000000000
  11   H   :   -0.004990631   -0.004547063    0.000000004
  12   Cl  :    0.000173991    0.004040288    0.000000001

Difference to translation invariance:
           :   -0.0000079239    0.0000185685   -0.0000000042

Difference to rotation invariance:
           :    0.0000000088   -0.0000000453   -0.0000210741

Norm of the cartesian gradient     ...    0.0253333269
RMS gradient                       ...    0.0042222211
MAX gradient                       ...    0.0113213689

-------
TIMINGS
-------

Total SCF gradient time            ...       45.635 sec

One electron gradient       ....       0.347 sec  (  0.8%)
RI-J Coulomb gradient       ....       2.227 sec  (  4.9%)
COSX gradient               ....      29.361 sec  ( 64.3%)
XC gradient                 ....      11.913 sec  ( 26.1%)

Maximum memory used throughout the entire SCFGRAD-calculation: 49.1 MB
------------------------------------------------------------------------------
                         ORCA GEOMETRY RELAXATION STEP
------------------------------------------------------------------------------

Reading the OPT-File                    .... done
Getting information on internals        .... done
Copying old internal coords+grads       .... done
Making the new internal coordinates     .... (new redundants).... done
Validating the new internal coordinates .... (new redundants).... done
Calculating the B-matrix                .... done
Calculating the G,G- and P matrices     .... done
Transforming gradient to internals      .... done
Projecting the internal gradient        .... done
Number of atoms                         ....  12
Number of internal coordinates          ....  54
Current Energy                          ....  -691.355205789 Eh
Current gradient norm                   ....     0.025333327 Eh/bohr
Maximum allowed component of the step   ....  0.300
Current trust radius                    ....  0.300
Evaluating the initial hessian          ....  (Almloef) done
Projecting the Hessian                  .... done
Forming the augmented Hessian           .... done
Diagonalizing the augmented Hessian     .... done
Last element of RFO vector              ....  0.998753888
Lowest eigenvalues of augmented Hessian:
 -0.000955989  0.024979129  0.025031519  0.025091639  0.025114915
Length of the computed step             ....  0.049968892
The final length of the internal step   ....  0.049968892
Converting the step to cartesian space:
 Initial RMS(Int)=    0.0067999050
Transforming coordinates:
 Iter   0:  RMS(Cart)=    0.0092725955 RMS(Int)=    2.0944061162
 Iter   1:  RMS(Cart)=    0.0000425163 RMS(Int)=    0.0000222014
 Iter   2:  RMS(Cart)=    0.0000003139 RMS(Int)=    0.0000002311
 Iter   3:  RMS(Cart)=    0.0000000017 RMS(Int)=    0.0000000013
done
Storing new coordinates                 .... done

                                .--------------------.
          ----------------------|Geometry convergence|-------------------------
          Item                value                   Tolerance       Converged
          ---------------------------------------------------------------------
          RMS gradient        0.0026167352            0.0001000000      NO
          MAX gradient        0.0074081829            0.0003000000      NO
          RMS step            0.0067999050            0.0020000000      NO
          MAX step            0.0199496178            0.0040000000      NO
          ........................................................
          Max(Bonds)      0.0106      Max(Angles)    0.64
          Max(Dihed)        0.00      Max(Improp)    0.00
          ---------------------------------------------------------------------

The optimization has not yet converged - more geometry cycles are needed


    ---------------------------------------------------------------------------
                         Redundant Internal Coordinates
                            (Angstroem and degrees)

        Definition                    Value    dE/dq     Step     New-Value
    ----------------------------------------------------------------------------
     1. B(C   1,C   0)                1.4002  0.002838 -0.0025    1.3976   
     2. B(C   2,C   1)                1.3989  0.001653 -0.0014    1.3975   
     3. B(C   3,C   2)                1.3987  0.000276 -0.0002    1.3985   
     4. B(C   4,C   3)                1.3987  0.000274 -0.0002    1.3985   
     5. B(C   5,C   4)                1.3989  0.001655 -0.0014    1.3975   
     6. B(C   5,C   0)                1.4002  0.002852 -0.0025    1.3976   
     7. B(H   6,C   1)                1.0826 -0.006522  0.0093    1.0919   
     8. B(H   7,C   2)                1.0823 -0.007182  0.0102    1.0926   
     9. B(H   8,C   3)                1.0823 -0.007408  0.0106    1.0929   
    10. B(H   9,C   4)                1.0823 -0.007183  0.0102    1.0926   
    11. B(H  10,C   5)                1.0826 -0.006515  0.0093    1.0919   
    12. B(Cl 11,C   0)                1.7541  0.004043 -0.0058    1.7483   
    13. A(C   1,C   0,Cl 11)          120.05  0.002402   -0.32    119.73   
    14. A(C   5,C   0,Cl 11)          120.05  0.002407   -0.32    119.73   
    15. A(C   1,C   0,C   5)          119.91 -0.004809    0.64    120.55   
    16. A(C   0,C   1,C   2)          120.02  0.003099   -0.44    119.58   
    17. A(C   2,C   1,H   6)          119.74 -0.003360    0.51    120.25   
    18. A(C   0,C   1,H   6)          120.24  0.000261   -0.07    120.17   
    19. A(C   3,C   2,H   7)          119.98 -0.000386    0.07    120.05   
    20. A(C   1,C   2,H   7)          119.99  0.001712   -0.27    119.72   
    21. A(C   1,C   2,C   3)          120.03 -0.001327    0.20    120.23   
    22. A(C   2,C   3,C   4)          120.00  0.001267   -0.16    119.84   
    23. A(C   4,C   3,H   8)          120.00 -0.000637    0.08    120.08   
    24. A(C   2,C   3,H   8)          120.00 -0.000630    0.08    120.08   
    25. A(C   5,C   4,H   9)          119.99  0.001729   -0.27    119.72   
    26. A(C   3,C   4,H   9)          119.98 -0.000427    0.08    120.06   
    27. A(C   3,C   4,C   5)          120.03 -0.001302    0.20    120.22   
    28. A(C   0,C   5,H  10)          120.24  0.000285   -0.08    120.16   
    29. A(C   0,C   5,C   4)          120.02  0.003071   -0.44    119.58   
    30. A(C   4,C   5,H  10)          119.74 -0.003356    0.51    120.25   
    31. D(H   6,C   1,C   0,C   5)    180.00  0.000000   -0.00    180.00   
    32. D(H   6,C   1,C   0,Cl 11)      0.00  0.000000   -0.00     -0.00   
    33. D(C   2,C   1,C   0,Cl 11)    180.00 -0.000000    0.00    180.00   
    34. D(C   2,C   1,C   0,C   5)      0.00 -0.000000    0.00      0.00   
    35. D(H   7,C   2,C   1,C   0)    180.00  0.000000   -0.00    180.00   
    36. D(C   3,C   2,C   1,C   0)      0.00  0.000000   -0.00     -0.00   
    37. D(C   3,C   2,C   1,H   6)    180.00  0.000000   -0.00    180.00   
    38. D(H   7,C   2,C   1,H   6)      0.00 -0.000000    0.00      0.00   
    39. D(H   8,C   3,C   2,H   7)      0.00 -0.000000    0.00      0.00   
    40. D(H   8,C   3,C   2,C   1)    180.00 -0.000000    0.00    180.00   
    41. D(C   4,C   3,C   2,H   7)    180.00 -0.000000    0.00    180.00   
    42. D(C   4,C   3,C   2,C   1)      0.00 -0.000000    0.00      0.00   
    43. D(H   9,C   4,C   3,C   2)    180.00  0.000000   -0.00    180.00   
    44. D(C   5,C   4,C   3,H   8)    180.00 -0.000000    0.00    180.00   
    45. D(C   5,C   4,C   3,C   2)      0.00  0.000000   -0.00     -0.00   
    46. D(H   9,C   4,C   3,H   8)      0.00 -0.000000    0.00      0.00   
    47. D(H  10,C   5,C   4,H   9)      0.00 -0.000000    0.00      0.00   
    48. D(C   0,C   5,C   4,H   9)    180.00  0.000000   -0.00    180.00   
    49. D(C   0,C   5,C   4,C   3)      0.00  0.000000   -0.00     -0.00   
    50. D(H  10,C   5,C   0,Cl 11)      0.00  0.000000   -0.00     -0.00   
    51. D(H  10,C   5,C   0,C   1)    180.00  0.000000   -0.00    180.00   
    52. D(H  10,C   5,C   4,C   3)    180.00 -0.000000    0.00    180.00   
    53. D(C   4,C   5,C   0,Cl 11)    180.00 -0.000000    0.00    180.00   
    54. D(C   4,C   5,C   0,C   1)      0.00 -0.000000    0.00      0.00   
    ----------------------------------------------------------------------------

         *************************************************************
         *                GEOMETRY OPTIMIZATION CYCLE   2            *
         *************************************************************
---------------------------------
CARTESIAN COORDINATES (ANGSTROEM)
---------------------------------
  C     -6.486518    0.784033   -0.000000
  C     -7.730419    0.146743   -0.000000
  C     -7.790134   -1.249460    0.000000
  C     -6.612981   -2.004508   -0.000000
  C     -5.372294   -1.359137   -0.000000
  C     -5.305440    0.036726    0.000000
  H     -8.649198    0.736669   -0.000000
  H     -8.761284   -1.750063    0.000000
  H     -6.662525   -3.096273   -0.000000
  H     -4.450400   -1.945514   -0.000000
  H     -4.337067    0.541104    0.000000
  Cl    -6.407271    2.530529   -0.000000

----------------------------
CARTESIAN COORDINATES (A.U.)
----------------------------
  NO LB      ZA    FRAG     MASS         X           Y           Z
   0 C     6.0000    0    12.011  -12.257743    1.481608   -0.000000
   1 C     6.0000    0    12.011  -14.608374    0.277304   -0.000000
   2 C     6.0000    0    12.011  -14.721220   -2.361137    0.000000
   3 C     6.0000    0    12.011  -12.496723   -3.787972   -0.000000
   4 C     6.0000    0    12.011  -10.152164   -2.568396   -0.000000
   5 C     6.0000    0    12.011  -10.025829    0.069402    0.000000
   6 H     1.0000    0     1.008  -16.344615    1.392103   -0.000000
   7 H     1.0000    0     1.008  -16.556428   -3.307139    0.000000
   8 H     1.0000    0     1.008  -12.590348   -5.851108   -0.000000
   9 H     1.0000    0     1.008   -8.410036   -3.676489   -0.000000
  10 H     1.0000    0     1.008   -8.195868    1.022539    0.000000
  11 Cl   17.0000    0    35.453  -12.107987    4.782007   -0.000000

--------------------------------
INTERNAL COORDINATES (ANGSTROEM)
--------------------------------
 C      0   0   0     0.000000000000     0.00000000     0.00000000
 C      1   0   0     1.397650844783     0.00000000     0.00000000
 C      2   1   0     1.397479384112   119.57655977     0.00000000
 C      3   2   1     1.398494792512   120.22783071     0.00000000
 C      4   3   2     1.398502808314   119.84090386     0.00000000
 C      5   4   3     1.397462561655   120.22425511     0.00000000
 H      2   1   3     1.091864560964   120.16891202   179.99999208
 H      3   2   1     1.092581825381   119.71897754   179.99999467
 H      4   3   2     1.092888445018   120.07857934   180.00000951
 H      5   4   3     1.092578221887   120.05907642   179.99999730
 H      6   5   4     1.091853585364   120.25483392   180.00000400
 Cl     1   2   3     1.748293185344   119.72553026   180.00000331

---------------------------
INTERNAL COORDINATES (A.U.)
---------------------------
 C      0   0   0     0.000000000000     0.00000000     0.00000000
 C      1   0   0     2.641177327484     0.00000000     0.00000000
 C      2   1   0     2.640853313772   119.57655977     0.00000000
 C      3   2   1     2.642772157562   120.22783071     0.00000000
 C      4   3   2     2.642787305234   119.84090386     0.00000000
 C      5   4   3     2.640821523937   120.22425511     0.00000000
 H      2   1   3     2.063324995557   120.16891202   179.99999208
 H      3   2   1     2.064680428871   119.71897754   179.99999467
 H      4   3   2     2.065259856011   120.07857934   180.00000951
 H      5   4   3     2.064673619254   120.05907642   179.99999730
 H      6   5   4     2.063304254678   120.25483392   180.00000400
 Cl     1   2   3     3.303795322102   119.72553026   180.00000331

------------------------------------------------------------------------------
                   ___                                                        
                  /   \      - P O W E R E D   B Y -                         
                 /     \                                                     
                 |  |  |   _    _      __       _____    __    __             
                 |  |  |  | |  | |    /  \     |  _  \  |  |  /  |          
                  \  \/   | |  | |   /    \    | | | |  |  | /  /          
                 / \  \   | |__| |  /  /\  \   | |_| |  |  |/  /          
                |  |  |   |  __  | /  /__\  \  |    /   |      \           
                |  |  |   | |  | | |   __   |  |    \   |  |\   \          
                \     /   | |  | | |  |  |  |  | |\  \  |  | \   \       
                 \___/    |_|  |_| |__|  |__|  |_| \__\ |__|  \__/        
                                                                              
                      - O R C A' S   B I G   F R I E N D -                    
                                      &                                       
                       - I N T E G R A L  F E E D E R -                       
                                                                              
 v1 FN, 2020, v2 2021                                                         
------------------------------------------------------------------------------


Reading SHARK input file opt.SHARKINP.tmp ... ok
----------------------
SHARK INTEGRAL PACKAGE
----------------------

Number of atoms                             ...     12
Number of basis functions                   ...    127
Number of shells                            ...     59
Maximum angular momentum                    ...      2
Integral batch strategy                     ... SHARK/LIBINT Hybrid
RI-J (if used) integral strategy            ... SPLIT-RIJ (Revised 2003 algorithm where possible)
Printlevel                                  ...      1
Contraction scheme used                     ... SEGMENTED contraction
Coulomb Range Separation                    ... NOT USED
Exchange Range Separation                   ... NOT USED
Finite Nucleus Model                        ... NOT USED
Auxiliary Coulomb fitting basis             ... AVAILABLE
   # of basis functions in Aux-J            ...    400
   # of shells in Aux-J                     ...    132
   Maximum angular momentum in Aux-J        ...      4
Auxiliary J/K fitting basis                 ... NOT available
Auxiliary Correlation fitting basis         ... NOT available
Auxiliary 'external' fitting basis          ... NOT available
Integral threshold                          ...     2.500000e-11
Primitive cut-off                           ...     2.500000e-12
Primitive pair pre-selection threshold      ...     2.500000e-12

Calculating pre-screening integrals         ... done (  0.1 sec) Dimension = 59
Organizing shell pair data                  ... done (  0.0 sec)
Shell pair information
Total number of shell pairs                 ...      1770
Shell pairs after pre-screening             ...      1691
Total number of primitive shell pairs       ...      6786
Primitive shell pairs kept                  ...      4829
          la=0 lb=0:    500 shell pairs
          la=1 lb=0:    612 shell pairs
          la=1 lb=1:    201 shell pairs
          la=2 lb=0:    214 shell pairs
          la=2 lb=1:    136 shell pairs
          la=2 lb=2:     28 shell pairs

Calculating one electron integrals          ... done (  0.0 sec)
Calculating RI/J V-Matrix + Cholesky decomp.... done (  0.0 sec)
Calculating Nuclear repulsion               ... done (  0.0 sec) ENN=    314.300130934518 Eh

SHARK setup successfully completed in   0.4 seconds

Maximum memory used throughout the entire GTOINT-calculation: 16.3 MB

Diagonalization of the overlap matrix:
Smallest eigenvalue                        ... 2.956e-04
Time for diagonalization                   ...    0.009 sec
Threshold for overlap eigenvalues          ... 1.000e-08
Number of eigenvalues below threshold      ... 0
Time for construction of square roots      ...    0.005 sec
Total time needed                          ...    0.015 sec

-------------------
DFT GRID GENERATION
-------------------

General Integration Accuracy     IntAcc      ... 4.388
Radial Grid Type                 RadialGrid  ... OptM3 with GC (2021)
Angular Grid (max. ang.)         AngularGrid ... 4 (Lebedev-302)
Angular grid pruning method      GridPruning ... 4 (adaptive)
Weight generation scheme         WeightScheme... Becke
Basis function cutoff            BFCut       ... 1.0000e-11
Integration weight cutoff        WCut        ... 1.0000e-14
Angular grids for H and He will be reduced by one unit
Partially contracted basis set               ... off
Rotationally invariant grid construction     ... off

Total number of grid points                  ...    59570
Total number of batches                      ...      935
Average number of points per batch           ...       63
Average number of grid points per atom       ...     4964
Time for grid setup =    2.022 sec

--------------------
COSX GRID GENERATION
--------------------

GRIDX 1
-------
General Integration Accuracy     IntAcc      ... 3.816
Radial Grid Type                 RadialGrid  ... OptM3 with GC (2021)
Angular Grid (max. ang.)         AngularGrid ... 1 (Lebedev-50)
Angular grid pruning method      GridPruning ... 4 (adaptive)
Weight generation scheme         WeightScheme... Becke
Basis function cutoff            BFCut       ... 1.0000e-11
Integration weight cutoff        WCut        ... 1.0000e-14
Angular grids for H and He will be reduced by one unit
Partially contracted basis set               ... on
Rotationally invariant grid construction     ... off

Total number of grid points                  ...     7528
Total number of batches                      ...      121
Average number of points per batch           ...       62
Average number of grid points per atom       ...      627
UseSFitting                                  ... on

GRIDX 2
-------
General Integration Accuracy     IntAcc      ... 4.020
Radial Grid Type                 RadialGrid  ... OptM3 with GC (2021)
Angular Grid (max. ang.)         AngularGrid ... 2 (Lebedev-110)
Angular grid pruning method      GridPruning ... 4 (adaptive)
Weight generation scheme         WeightScheme... Becke
Basis function cutoff            BFCut       ... 1.0000e-11
Integration weight cutoff        WCut        ... 1.0000e-14
Angular grids for H and He will be reduced by one unit
Partially contracted basis set               ... on
Rotationally invariant grid construction     ... off

Total number of grid points                  ...    16625
Total number of batches                      ...      263
Average number of points per batch           ...       63
Average number of grid points per atom       ...     1385
UseSFitting                                  ... on

GRIDX 3
-------
General Integration Accuracy     IntAcc      ... 4.338
Radial Grid Type                 RadialGrid  ... OptM3 with GC (2021)
Angular Grid (max. ang.)         AngularGrid ... 3 (Lebedev-194)
Angular grid pruning method      GridPruning ... 4 (adaptive)
Weight generation scheme         WeightScheme... Becke
Basis function cutoff            BFCut       ... 1.0000e-11
Integration weight cutoff        WCut        ... 1.0000e-14
Angular grids for H and He will be reduced by one unit
Partially contracted basis set               ... on
Rotationally invariant grid construction     ... off

Total number of grid points                  ...    37261
Total number of batches                      ...      588
Average number of points per batch           ...       63
Average number of grid points per atom       ...     3105
UseSFitting                                  ... on

Time for X-Grid setup             =    2.590 sec

--------------
SCF ITERATIONS
--------------
ITER       Energy         Delta-E        Max-DP      RMS-DP      [F,P]     Damp
               ***  Starting incremental Fock matrix formation  ***
                      *** Initiating the SOSCF procedure ***
                      *** Re-Reading the Fockian *** 
                      *** Removing any level shift *** 
ITER      Energy       Delta-E        Grad      Rot      Max-DP    RMS-DP
[...]
     22       0.000001   0.417556  -0.000000  -0.000000  -0.000000   0.000000
     23       0.044028  -0.000000  -0.563148   0.449175   0.069723   0.535269
     24       0.000000  -0.013005  -0.000000   0.000000   0.000000   0.000000
     25      -0.000001  -0.288056   0.000000  -0.000000  -0.000000  -0.000000
     26       0.594064  -0.000003  -0.515577   0.000250   0.566723   0.000544
     27      -0.000000  -0.059419   0.000000  -0.000000  -0.000000   0.000000
     28       0.000001   0.424907   0.000000   0.000000  -0.000000   0.000000
     29       0.044162  -0.000000  -0.563506  -0.449069   0.069597  -0.536101
     30      -0.000000  -0.119987  -0.000000   0.000000   0.000000  -0.000000
     31      -0.000000  -0.137828   0.000000   0.000000   0.000000   0.000000
     32       0.524128  -0.000003  -0.156230  -0.535975  -0.563298   0.443852
     33      -0.000000  -0.005896   0.000000   0.000000  -0.000000   0.000000
     34      -0.000000  -0.130451   0.000000   0.000000   0.000000  -0.000000
     35      -0.001666   0.000000   0.007611  -0.000000   0.004496  -0.000000
                 18         19         20         21         22         23    
      0       0.005528   0.000000  -0.002996  -0.043216  -0.016109   0.001012
      1       0.121376   0.000000  -0.065955   0.000946  -0.362108   0.000060
      2      -0.000000  -0.002725   0.000000   0.000000   0.000000  -0.000000
      3       0.339372   0.000000  -0.029920   0.042039   0.084866  -0.008168
      4      -0.194448  -0.000000  -0.064936  -0.094596  -0.025175   0.005772
      5       0.000000   0.036703   0.000000  -0.000000   0.000000   0.000000
      6      -0.120904  -0.000000   0.198277   0.054659   0.082220  -0.021228
      7      -0.050860  -0.000000   0.034781   0.051783   0.085543   0.032360
      8       0.000000  -0.087561  -0.000000  -0.000000  -0.000000   0.000000
      9       0.016377  -0.000000   0.007806  -0.079979  -0.000653   0.059553
     10       0.360436  -0.000000   0.171275   0.003631  -0.024600  -0.002721
     11      -0.000000   0.104618   0.000000   0.000000   0.000000  -0.000000
     12       0.115767   0.000000  -0.194338   0.049263  -0.074738  -0.024184
     13      -0.061490  -0.000000   0.052614  -0.055992   0.093201  -0.030578
     14       0.000000  -0.087371  -0.000000  -0.000000   0.000000  -0.000000
     15      -0.355644  -0.000000   0.023872   0.049805  -0.087401  -0.008800
     16      -0.163068  -0.000000  -0.067447   0.090260  -0.018445  -0.004743
     17      -0.000000   0.036589  -0.000000  -0.000000  -0.000000   0.000000
     18       0.385217   0.000000  -0.226458  -0.194635   0.377685  -0.103408
     19      -0.150609   0.000000  -0.377112  -0.470762   0.385475  -0.138891
     20       0.000000  -0.233817  -0.000000   0.000000  -0.000000  -0.000000
     21      -0.130100  -0.000000   0.379542  -0.055372  -0.040899  -0.217728
     22      -0.005622   0.000000  -0.284982   0.283376   0.345602   0.413544
     23      -0.000000   0.509024   0.000000  -0.000000   0.000000   0.000000
     24       0.017030  -0.000000   0.009063  -0.520443   0.002295   0.701145
     25       0.371738   0.000000   0.191636   0.023647  -0.019554  -0.031851
     26       0.000001  -0.587400  -0.000000   0.000000  -0.000000  -0.000000
     27       0.129312   0.000000  -0.403841  -0.080639   0.073014  -0.255723
     28      -0.016810   0.000000  -0.249631  -0.275690   0.343910  -0.394757
     29      -0.000001   0.507820   0.000000  -0.000000   0.000000   0.000000
     30      -0.397034  -0.000000   0.191548  -0.153313  -0.339646  -0.091751
     31      -0.115833   0.000000  -0.396437   0.488704   0.412612   0.150183
     32      -0.000000  -0.233163  -0.000000   0.000000  -0.000000  -0.000000
     33      -0.000294  -0.000000   0.000511   0.003971   0.001943  -0.000311
     34      -0.006403  -0.000000   0.011305  -0.000057   0.043494  -0.000000
     35       0.000000   0.000981  -0.000000  -0.000000  -0.000000   0.000000
                 24         25         26         27         28         29    
      0       0.001265   0.159347   0.254108   0.146299   0.006230   0.331755
      1       0.027750  -0.007169  -0.011480  -0.006711   0.136160  -0.015283
      2       0.000000   0.000000   0.000000  -0.000000  -0.000000   0.000000
      3       0.021006  -0.013310  -0.174713  -0.052144  -0.121515  -0.213840
      4       0.041896   0.040292  -0.261089   0.104995  -0.096570  -0.092319
      5       0.000000  -0.000000   0.000000  -0.000000  -0.000000  -0.000000
      6       0.025449  -0.049436  -0.104470  -0.017739   0.105516   0.218944
      7      -0.046988   0.037979   0.206828  -0.156216  -0.089556  -0.098457
      8      -0.000000   0.000000   0.000000   0.000000  -0.000000  -0.000000
      9      -0.000326  -0.012495   0.302618   0.139788   0.004499  -0.394428
     10      -0.003721   0.000590  -0.013733  -0.006375   0.098645   0.018119
     11       0.000000  -0.000000  -0.000000  -0.000000   0.000000   0.000000
     12      -0.029453  -0.052696  -0.122724  -0.003470  -0.113138   0.226674
     13      -0.044266  -0.033400  -0.196466   0.157242  -0.079552   0.077316
     14      -0.000000  -0.000000  -0.000000   0.000000  -0.000000   0.000000
     15      -0.017112  -0.016864  -0.150375  -0.061516   0.112226  -0.204821
     16       0.043597  -0.038924   0.275779  -0.099766  -0.107190   0.112240
     17       0.000000  -0.000000  -0.000000  -0.000000   0.000000  -0.000000
     18       0.252722  -0.325497   0.208306  -0.203345   0.199238   0.003443
     19       0.399139  -0.428456   0.327426  -0.088028   0.420153   0.276606
     20      -0.000000   0.000000  -0.000000   0.000000   0.000000  -0.000000
     21       0.239063   0.160919  -0.020660  -0.279287  -0.153912   0.063086
     22      -0.465121  -0.381314   0.041483   0.312341   0.442096   0.259453
     23      -0.000000  -0.000000   0.000000   0.000000  -0.000000  -0.000000
     24      -0.002242   0.203803  -0.482466  -0.657174   0.005269   0.462371
     25      -0.003152  -0.009228   0.021929   0.029807   0.121670  -0.020798
     26      -0.000000   0.000000   0.000000   0.000000  -0.000000  -0.000000
     27      -0.278524   0.194602  -0.024486  -0.306346   0.192869   0.040284
     28      -0.439188   0.365139  -0.039609  -0.285977   0.426015  -0.263431
     29      -0.000000   0.000000   0.000000  -0.000000   0.000000  -0.000000
     30      -0.214999  -0.285323   0.177874  -0.194402  -0.160555  -0.020769
     31       0.419235   0.456032  -0.344971   0.105674   0.436486  -0.276612
     32       0.000000   0.000000   0.000000  -0.000000   0.000000  -0.000000
     33      -0.000168  -0.003464   0.002515  -0.004586  -0.000263  -0.003493
     34      -0.003656   0.000153  -0.000123   0.000216  -0.005724   0.000157
     35       0.000000  -0.000000  -0.000000  -0.000000   0.000000  -0.000000
                 30         31         32         33         34         35    
      0      -0.007451  -0.000032   0.000424  -0.000065   0.004456  -0.000089
      1      -0.153713  -0.000676  -0.000018  -0.001367  -0.000132  -0.003743
      2       0.000000  -0.000000  -0.000000  -0.000000   0.000000  -0.000000
      3       0.087568   0.010743  -0.015186   0.022043  -0.050522   0.045554
      4       0.292595  -0.005343   0.007542  -0.012345   0.034031  -0.030250
      5      -0.000000   0.000000  -0.000000   0.000000  -0.000000   0.000000
      6       0.079720  -0.041630   0.052449  -0.028376  -0.016385   0.023042
      7      -0.319608  -0.022402   0.026527  -0.010370  -0.011142   0.013105
      8      -0.000000   0.000000  -0.000000   0.000000   0.000000  -0.000000
      9       0.008114   0.002238  -0.004043  -0.003172   0.002091   0.001009
     10       0.165906   0.048961   0.000456  -0.069589  -0.000571   0.021295
     11       0.000000   0.000000  -0.000000  -0.000000   0.000000   0.000000
     12      -0.108947   0.039102   0.050021   0.027512  -0.014434  -0.022336
     13      -0.311390  -0.025861  -0.031287  -0.013008   0.011974   0.015599
     14      -0.000000  -0.000000  -0.000000  -0.000000   0.000000   0.000000
     15      -0.060174  -0.011081  -0.015822  -0.023009  -0.051597  -0.050069
     16       0.299068  -0.004311  -0.006141  -0.010257  -0.028349  -0.027090
     17       0.000000   0.000000   0.000000  -0.000000  -0.000000  -0.000000
     18      -0.249209  -0.125034   0.173284  -0.247333   0.573112  -0.511172
     19      -0.200970   0.080228  -0.111020   0.159505  -0.375926   0.335015
     20       0.000000  -0.000000   0.000000  -0.000000   0.000000  -0.000000
     21      -0.248172   0.492987  -0.598423   0.294517   0.185408  -0.249511
     22       0.299660   0.253620  -0.306475   0.146582   0.097569  -0.128772
     23       0.000000  -0.000000   0.000000  -0.000000  -0.000000   0.000000
     24       0.008066  -0.026442   0.003917   0.035181  -0.002094  -0.010302
     25       0.192681  -0.581995  -0.003340   0.774557   0.005175  -0.225908
     26       0.000000  -0.000000  -0.000000   0.000000   0.000000  -0.000000
     27       0.274048  -0.464256  -0.570553  -0.282176   0.166294   0.243414
     28       0.276758   0.294655   0.360664   0.173891  -0.107830  -0.154998
     29       0.000000   0.000000   0.000000   0.000000  -0.000000  -0.000000
     30       0.230179   0.130600   0.182818   0.260053   0.584653   0.561673
     31      -0.222024   0.067983   0.095000   0.136110   0.311849   0.299321
     32       0.000000   0.000000   0.000000   0.000000   0.000000   0.000000
     33      -0.000028   0.000000   0.000016   0.000004  -0.000038   0.000009
     34      -0.000645   0.000008  -0.000001   0.000078  -0.000002   0.000211
     35       0.000000   0.000000  -0.000000   0.000000   0.000000   0.000000


-----------
IR SPECTRUM
-----------

 Mode   freq       eps      Int      T**2         TX        TY        TZ
       cm**-1   L/(mol*cm) km/mol    a.u.
----------------------------------------------------------------------------
  6:    190.01   0.000025    0.12  0.000040  ( 0.000000  0.000000 -0.006352)
  7:    298.08   0.000051    0.26  0.000053  (-0.007271  0.000330  0.000000)
  8:    417.76   0.000785    3.97  0.000586  ( 0.001093  0.024191 -0.000000)
  9:    421.91   0.000000    0.00  0.000000  (-0.000000 -0.000000  0.000016)
 10:    487.37   0.001234    6.23  0.000790  ( 0.000000  0.000000  0.028105)
 11:    626.62   0.000046    0.23  0.000023  ( 0.004793 -0.000227 -0.000000)
 12:    712.71   0.004185   21.15  0.001833  (-0.000000  0.000000  0.042808)
 13:    715.32   0.004304   21.75  0.001878  ( 0.001961  0.043290 -0.000000)
 14:    762.75   0.007749   39.16  0.003170  ( 0.000000 -0.000000 -0.056306)
 15:    849.55   0.000000    0.00  0.000000  (-0.000000 -0.000000  0.000018)
 16:    930.70   0.000395    1.99  0.000132  ( 0.000000  0.000000 -0.011503)
 17:    997.37   0.000000    0.00  0.000000  (-0.000000  0.000000 -0.000005)
 18:   1012.93   0.000927    4.68  0.000286  ( 0.000775  0.016881 -0.000000)
 19:   1024.31   0.000012    0.06  0.000004  (-0.000000 -0.000000 -0.001897)
 20:   1044.27   0.001807    9.13  0.000540  (-0.001056 -0.023215  0.000000)
 21:   1090.89   0.001238    6.25  0.000354  (-0.018804  0.000636 -0.000000)
 22:   1108.50   0.008038   40.62  0.002263  (-0.002057 -0.047526  0.000000)
 23:   1168.21   0.000027    0.13  0.000007  (-0.002665  0.000142 -0.000000)
 24:   1180.97   0.000029    0.15  0.000008  ( 0.000136  0.002778 -0.000000)
 25:   1314.11   0.000045    0.23  0.000011  (-0.003279  0.000168 -0.000000)
 26:   1359.50   0.000028    0.14  0.000007  ( 0.002552 -0.000100 -0.000000)
 27:   1474.82   0.000941    4.75  0.000199  (-0.014094  0.000625 -0.000000)
 28:   1505.83   0.008808   44.51  0.001825  ( 0.001957  0.042680 -0.000000)
 29:   1640.94   0.000691    3.49  0.000131  ( 0.011451 -0.000554 -0.000000)
 30:   1643.27   0.004435   22.41  0.000842  (-0.001322 -0.028991  0.000000)
 31:   3176.90   0.000025    0.13  0.000002  (-0.000108 -0.001562  0.000000)
 32:   3185.36   0.001540    7.78  0.000151  ( 0.012273 -0.000518 -0.000000)
 33:   3197.83   0.002303   11.64  0.000225  (-0.000612 -0.014977 -0.000000)
 34:   3208.20   0.000840    4.24  0.000082  (-0.009033  0.000306 -0.000000)
 35:   3210.02   0.000104    0.53  0.000010  (-0.000006  0.003186 -0.000000)

* The epsilon (eps) is given for a Dirac delta lineshape.
** The dipole moment derivative (T) already includes vibrational overlap.

The first frequency considered to be a vibration is 6
The total number of vibrations considered is 30


--------------------------
THERMOCHEMISTRY AT 298.15K
--------------------------

Temperature         ... 298.15 K
Pressure            ... 1.00 atm
Total Mass          ... 112.56 AMU

Throughout the following assumptions are being made:
  (1) The electronic state is orbitally nondegenerate
  (2) There are no thermally accessible electronically excited states
  (3) Hindered rotations indicated by low frequency modes are not
      treated as such but are treated as vibrations and this may
      cause some error
  (4) All equations used are the standard statistical mechanics
      equations for an ideal gas
  (5) All vibrations are strictly harmonic

freq.     190.01  E(vib)   ...       0.36 
freq.     298.08  E(vib)   ...       0.27 
freq.     417.76  E(vib)   ...       0.18 
freq.     421.91  E(vib)   ...       0.18 
freq.     487.37  E(vib)   ...       0.15 
freq.     626.62  E(vib)   ...       0.09 
freq.     712.71  E(vib)   ...       0.07 
freq.     715.32  E(vib)   ...       0.07 
freq.     762.75  E(vib)   ...       0.06 
freq.     849.55  E(vib)   ...       0.04 
freq.     930.70  E(vib)   ...       0.03 
freq.     997.37  E(vib)   ...       0.02 
freq.    1012.93  E(vib)   ...       0.02 
freq.    1024.31  E(vib)   ...       0.02 
freq.    1044.27  E(vib)   ...       0.02 
freq.    1090.89  E(vib)   ...       0.02 
freq.    1108.50  E(vib)   ...       0.02 
freq.    1168.21  E(vib)   ...       0.01 
freq.    1180.97  E(vib)   ...       0.01 
freq.    1314.11  E(vib)   ...       0.01 
freq.    1359.50  E(vib)   ...       0.01 
freq.    1474.82  E(vib)   ...       0.00 
freq.    1505.83  E(vib)   ...       0.00 
freq.    1640.94  E(vib)   ...       0.00 
freq.    1643.27  E(vib)   ...       0.00 
freq.    3176.90  E(vib)   ...       0.00 
freq.    3185.36  E(vib)   ...       0.00 
freq.    3197.83  E(vib)   ...       0.00 
freq.    3208.20  E(vib)   ...       0.00 
freq.    3210.02  E(vib)   ...       0.00 

------------
INNER ENERGY
------------

The inner energy is: U= E(el) + E(ZPE) + E(vib) + E(rot) + E(trans)
    E(el)   - is the total energy from the electronic structure calculation
              = E(kin-el) + E(nuc-el) + E(el-el) + E(nuc-nuc)
    E(ZPE)  - the the zero temperature vibrational energy from the frequency calculation
    E(vib)  - the the finite temperature correction to E(ZPE) due to population
              of excited vibrational states
    E(rot)  - is the rotational thermal energy
    E(trans)- is the translational thermal energy

Summary of contributions to the inner energy U:
Electronic energy                ...   -691.35580553 Eh
Zero point energy                ...      0.09102874 Eh      57.12 kcal/mol
Thermal vibrational correction   ...      0.00263631 Eh       1.65 kcal/mol
Thermal rotational correction    ...      0.00141627 Eh       0.89 kcal/mol
Thermal translational correction ...      0.00141627 Eh       0.89 kcal/mol
-----------------------------------------------------------------------
Total thermal energy                   -691.25930794 Eh


Summary of corrections to the electronic energy:
(perhaps to be used in another calculation)
Total thermal correction                  0.00546885 Eh       3.43 kcal/mol
Non-thermal (ZPE) correction              0.09102874 Eh      57.12 kcal/mol
-----------------------------------------------------------------------
Total correction                          0.09649759 Eh      60.55 kcal/mol


--------
ENTHALPY
--------

The enthalpy is H = U + kB*T
                kB is Boltzmann's constant
Total free energy                 ...   -691.25930794 Eh 
Thermal Enthalpy correction       ...      0.00094421 Eh       0.59 kcal/mol
-----------------------------------------------------------------------
Total Enthalpy                    ...   -691.25836373 Eh


Note: Rotational entropy computed according to Herzberg 
Infrared and Raman Spectra, Chapter V,1, Van Nostrand Reinhold, 1945 
Point Group:  Cs, Symmetry Number:   1  
Rotational constants in cm-1:     0.188469     0.051636     0.040531 

Vibrational entropy computed according to the QRRHO of S. Grimme
Chem.Eur.J. 2012 18 9955


-------
ENTROPY
-------

The entropy contributions are T*S = T*(S(el)+S(vib)+S(rot)+S(trans))
     S(el)   - electronic entropy
     S(vib)  - vibrational entropy
     S(rot)  - rotational entropy
     S(trans)- translational entropy
The entropies will be listed as multiplied by the temperature to get
units of energy

Electronic entropy                ...      0.00000000 Eh      0.00 kcal/mol
Vibrational entropy               ...      0.00394757 Eh      2.48 kcal/mol
Rotational entropy                ...      0.01321107 Eh      8.29 kcal/mol
Translational entropy             ...      0.01903880 Eh     11.95 kcal/mol
-----------------------------------------------------------------------
Final entropy term                ...      0.03619744 Eh     22.71 kcal/mol

In case the symmetry of your molecule has not been determined correctly
or in case you have a reason to use a different symmetry number we print 
out the resulting rotational entropy values for sn=1,12 :
 --------------------------------------------------------
|  sn= 1 | S(rot)=       0.01321107 Eh      8.29 kcal/mol|
|  sn= 2 | S(rot)=       0.01255662 Eh      7.88 kcal/mol|
|  sn= 3 | S(rot)=       0.01217378 Eh      7.64 kcal/mol|
|  sn= 4 | S(rot)=       0.01190216 Eh      7.47 kcal/mol|
|  sn= 5 | S(rot)=       0.01169147 Eh      7.34 kcal/mol|
|  sn= 6 | S(rot)=       0.01151933 Eh      7.23 kcal/mol|
|  sn= 7 | S(rot)=       0.01137378 Eh      7.14 kcal/mol|
|  sn= 8 | S(rot)=       0.01124770 Eh      7.06 kcal/mol|
|  sn= 9 | S(rot)=       0.01113650 Eh      6.99 kcal/mol|
|  sn=10 | S(rot)=       0.01103702 Eh      6.93 kcal/mol|
|  sn=11 | S(rot)=       0.01094703 Eh      6.87 kcal/mol|
|  sn=12 | S(rot)=       0.01086487 Eh      6.82 kcal/mol|
 --------------------------------------------------------


-------------------
GIBBS FREE ENERGY
-------------------

The Gibbs free energy is G = H - T*S

Total enthalpy                    ...   -691.25836373 Eh 
Total entropy correction          ...     -0.03619744 Eh    -22.71 kcal/mol
-----------------------------------------------------------------------
Final Gibbs free energy         ...   -691.29456117 Eh

For completeness - the Gibbs free energy minus the electronic energy
G-E(el)                           ...      0.06124436 Eh     38.43 kcal/mol


Timings for individual modules:

Sum of individual times         ...     1588.991 sec (=  26.483 min)
GTO integral calculation        ...        4.974 sec (=   0.083 min)   0.3 %
SCF iterations                  ...      595.998 sec (=   9.933 min)  37.5 %
SCF Gradient evaluation         ...      237.966 sec (=   3.966 min)  15.0 %
Geometry relaxation             ...        1.810 sec (=   0.030 min)   0.1 %
Analytical frequency calculation...      748.243 sec (=  12.471 min)  47.1 %
                             ****ORCA TERMINATED NORMALLY****
TOTAL RUN TIME: 0 days 0 hours 26 minutes 40 seconds 100 msec
