
                                 *****************
                                 * O   R   C   A *
                                 *****************

           --- An Ab Initio, DFT and Semiempirical electronic structure package ---

                  #######################################################
                  #                        -***-                        #
                  #          Department of theory and spectroscopy      #
                  #               Directorship: Frank Neese             #
                  #        Max Planck Institute fuer Kohlenforschung    #
                  #                Kaiser Wilhelm Platz 1               #
                  #                 D-45470 Muelheim/Ruhr               #
                  #                      Germany                        #
                  #                                                     #
                  #                  All rights reserved                #
                  #                        -***-                        #
                  #######################################################


                         Program Version 4.2.1 -  RELEASE  -


 With contributions from (in alphabetic order):
   Daniel Aravena         : Magnetic Suceptibility
   Michael Atanasov       : Ab Initio Ligand Field Theory (pilot matlab implementation)
   Alexander A. Auer      : GIAO ZORA, VPT2
   Ute Becker             : Parallelization
   Giovanni Bistoni       : ED, misc. LED, open-shell LED, HFLD
   Martin Brehm           : Molecular dynamics
   Dmytro Bykov           : SCF Hessian
   Vijay G. Chilkuri      : MRCI spin determinant printing, contributions to CSF-ICE
   Dipayan Datta          : RHF DLPNO-CCSD density
   Achintya Kumar Dutta   : EOM-CC, STEOM-CC
   Dmitry Ganyushin       : Spin-Orbit,Spin-Spin,Magnetic field MRCI
   Miquel Garcia          : C-PCM Hessian, Gaussian charge scheme
   Yang Guo               : DLPNO-NEVPT2, CIM, IAO-localization
   Andreas Hansen         : Spin unrestricted coupled pair/coupled cluster methods
   Benjamin Helmich-Paris : CASSCF linear response (MC-RPA)
   Lee Huntington         : MR-EOM, pCC
   Robert Izsak           : Overlap fitted RIJCOSX, COSX-SCS-MP3, EOM
   Christian Kollmar      : KDIIS, OOCD, Brueckner-CCSD(T), CCSD density
   Simone Kossmann        : Meta GGA functionals, TD-DFT gradient, OOMP2, MP2 Hessian
   Martin Krupicka        : AUTO-CI
   Lucas Lang             : DCDCAS
   Dagmar Lenk            : GEPOL surface, SMD
   Dimitrios Liakos       : Extrapolation schemes; Compound Job, initial MDCI parallelization
   Dimitrios Manganas     : Further ROCIS development; embedding schemes
   Dimitrios Pantazis     : SARC Basis sets
   Taras Petrenko         : DFT Hessian,TD-DFT gradient, ASA, ECA, R-Raman, ABS, FL, XAS/XES, NRVS
   Peter Pinski           : DLPNO-MP2, DLPNO-MP2 Gradient
   Christoph Reimann      : Effective Core Potentials
   Marius Retegan         : Local ZFS, SOC
   Christoph Riplinger    : Optimizer, TS searches, QM/MM, DLPNO-CCSD(T), (RO)-DLPNO pert. Triples
   Tobias Risthaus        : Range-separated hybrids, TD-DFT gradient, RPA, STAB
   Michael Roemelt        : Original ROCIS implementation
   Masaaki Saitow         : Open-shell DLPNO-CCSD energy and density
   Barbara Sandhoefer     : DKH picture change effects
   Avijit Sen             : IP-ROCIS
   Kantharuban Sivalingam : CASSCF convergence, NEVPT2, FIC-MRCI
   Bernardo de Souza      : ESD, SOC TD-DFT
   Georgi Stoychev        : AutoAux, RI-MP2 NMR
   Willem Van den Heuvel  : Paramagnetic NMR
   Boris Wezisla          : Elementary symmetry handling
   Frank Wennmohs         : Technical directorship


 We gratefully acknowledge several colleagues who have allowed us to
 interface, adapt or use parts of their codes:
   Stefan Grimme, W. Hujo, H. Kruse,             : VdW corrections, initial TS optimization,
                  C. Bannwarth                     DFT functionals, gCP, sTDA/sTD-DF
   Ed Valeev, F. Pavosevic, A. Kumar             : LibInt (2-el integral package), F12 methods
   Garnet Chan, S. Sharma, J. Yang, R. Olivares  : DMRG
   Ulf Ekstrom                                   : XCFun DFT Library
   Mihaly Kallay                                 : mrcc  (arbitrary order and MRCC methods)
   Andreas Klamt, Michael Diedenhofen            : otool_cosmo (COSMO solvation model)
   Jiri Pittner, Ondrej Demel                    : Mk-CCSD
   Frank Weinhold                                : gennbo (NPA and NBO analysis)
   Christopher J. Cramer and Donald G. Truhlar   : smd solvation model
   Lars Goerigk                                  : TD-DFT with DH, B97 family of functionals
   V. Asgeirsson, H. Jonsson                     : NEB implementation
   FAccTs GmbH                                   : IRC, NEB, NEB-TS, Multilevel, MM, QM/MM, CI optimization
   S Lehtola, MJT Oliveira, MAL Marques          : LibXC Library


 Your calculation uses the libint2 library for the computation of 2-el integrals
 For citations please refer to: http://libint.valeyev.net

 Your ORCA version has been built with support for libXC version: 4.2.3
 For citations please refer to: https://tddft.org/programs/libxc/

 This ORCA versions uses:
   CBLAS   interface :  Fast vector & matrix operations
   LAPACKE interface :  Fast linear algebra routines


Your calculation utilizes the atom-pairwise dispersion correction
based on tight binding partial charges (D4)
Cite in your paper:
E.Caldeweyher, C.Bannwarth, S.Grimme, J.Chem.Phys., (2017), 147, 034112.
E.Caldeweyher, S.Ehlert, A.Hansen, H.Neugebauer, S.Grimme, J.Chem.Phys., (2018), in progress.
   

----- Orbital basis set information -----
Your calculation utilizes the basis: def2-SVP
   F. Weigend and R. Ahlrichs, Phys. Chem. Chem. Phys. 7, 3297 (2005).

================================================================================
                                        WARNINGS
                       Please study these warnings very carefully!
================================================================================


INFO   : the flag for use of LIBINT has been found!

================================================================================
                                       INPUT FILE
================================================================================
NAME = products_freq.inp
|  1> !B3LYP DEF2-SVP D4 FREQ
|  2> 
|  3> %scf
|  4> maxIter 2000
|  5> end
|  6> 
|  7> * xyz 1 1
|  8>    C       -0.98285        2.23360        0.49556
|  9>    C       -2.13806        2.71422       -0.19847
| 10>    C       -3.10001        1.77032       -0.62520
| 11>    C       -2.93616        0.40738       -0.38112
| 12>    C       -1.81049       -0.05060        0.29399
| 13>    C       -0.84248        0.85193        0.72873
| 14>    C        0.11056        3.14198        0.99913
| 15>    H       -3.68672       -0.29628       -0.71778
| 16>    H       -3.99004        2.08693       -1.15388
| 17>    H        0.91923        2.57742        1.51064
| 18>    H        0.57388        3.68529        0.14913
| 19>    H       -0.30405        3.86354        1.73384
| 20>    H        0.02347        0.46498        1.25198
| 21>    H       -1.68655       -1.10944        0.48174
| 22>    N       -2.36332        4.10667       -0.47990
| 23>    O       -1.58316        4.94322       -0.14187
| 24>    O       -3.34783        4.44868       -1.06373
| 25>    H       -6.99345        2.33724        5.45863
| 26> *
| 27> 
| 28>                          ****END OF INPUT****
================================================================================

                       ****************************
                       * Single Point Calculation *
                       ****************************

---------------------------------
CARTESIAN COORDINATES (ANGSTROEM)
---------------------------------
  C     -0.982850    2.233600    0.495560
  C     -2.138060    2.714220   -0.198470
  C     -3.100010    1.770320   -0.625200
  C     -2.936160    0.407380   -0.381120
  C     -1.810490   -0.050600    0.293990
  C     -0.842480    0.851930    0.728730
  C      0.110560    3.141980    0.999130
  H     -3.686720   -0.296280   -0.717780
  H     -3.990040    2.086930   -1.153880
  H      0.919230    2.577420    1.510640
  H      0.573880    3.685290    0.149130
  H     -0.304050    3.863540    1.733840
  H      0.023470    0.464980    1.251980
  H     -1.686550   -1.109440    0.481740
  N     -2.363320    4.106670   -0.479900
  O     -1.583160    4.943220   -0.141870
  O     -3.347830    4.448680   -1.063730
  H     -6.993450    2.337240    5.458630

----------------------------
CARTESIAN COORDINATES (A.U.)
----------------------------
  NO LB      ZA    FRAG     MASS         X           Y           Z
   0 C     6.0000    0    12.011   -1.857317    4.220892    0.936473
   1 C     6.0000    0    12.011   -4.040348    5.129132   -0.375054
   2 C     6.0000    0    12.011   -5.858170    3.345420   -1.181457
   3 C     6.0000    0    12.011   -5.548538    0.769837   -0.720212
   4 C     6.0000    0    12.011   -3.421330   -0.095620    0.555561
   5 C     6.0000    0    12.011   -1.592056    1.609914    1.377100
   6 C     6.0000    0    12.011    0.208928    5.937482    1.888082
   7 H     1.0000    0     1.008   -6.966891   -0.559888   -1.356408
   8 H     1.0000    0     1.008   -7.540083    3.943726   -2.180517
   9 H     1.0000    0     1.008    1.737093    4.870618    2.854696
  10 H     1.0000    0     1.008    1.084476    6.964189    0.281815
  11 H     1.0000    0     1.008   -0.574571    7.301033    3.276483
  12 H     1.0000    0     1.008    0.044352    0.878685    2.365899
  13 H     1.0000    0     1.008   -3.187118   -2.096538    0.910357
  14 N     7.0000    0    14.007   -4.466028    7.760482   -0.906880
  15 O     8.0000    0    15.999   -2.991739    9.341332   -0.268095
  16 O     8.0000    0    15.999   -6.326482    8.406787   -2.010158
  17 H     1.0000    0     1.008  -13.215705    4.416744   10.315316

--------------------------------
INTERNAL COORDINATES (ANGSTROEM)
--------------------------------
 C      0   0   0     0.000000000000     0.00000000     0.00000000
 C      1   0   0     1.430798158162     0.00000000     0.00000000
 C      2   1   0     1.413645466657   118.13444176     0.00000000
 C      3   2   1     1.394283799124   121.32460666     0.00000000
 C      4   3   2     1.390198597827   120.14535431     0.00000000
 C      5   4   3     1.393055141981   120.05142060     0.00000000
 C      1   2   3     1.508072411193   123.02634275   180.00070380
 H      4   3   2     1.082505272412   119.96648800   180.00070329
 H      3   2   1     1.082542301899   120.77057046   180.00021719
 H      7   1   2     1.110998489018   112.04844498   179.99910426
 H      7   1   2     1.110113137703   109.98214164   299.25645232
 H      7   1   2     1.110112187934   109.98193035    60.74227787
 H      6   5   4     1.083231400717   118.34711713   179.99954858
 H      5   4   3     1.082475557091   119.94580652   180.00074279
 N      2   1   3     1.438353890738   123.13018728   180.00041063
 O     15   2   1     1.192782381241   121.40457012     0.00000000
 O     15   2   1     1.194607989719   120.12233580   180.00207223
 H      3   2   1     7.245223308422    93.43698500    91.60007573

---------------------------
INTERNAL COORDINATES (A.U.)
---------------------------
 C      0   0   0     0.000000000000     0.00000000     0.00000000
 C      1   0   0     2.703816671845     0.00000000     0.00000000
 C      2   1   0     2.671402782441   118.13444176     0.00000000
 C      3   2   1     2.634814533308   121.32460666     0.00000000
 C      4   3   2     2.627094621654   120.14535431     0.00000000
 C      5   4   3     2.632492707795   120.05142060     0.00000000
 C      1   2   3     2.849843847276   123.02634275   180.00070380
 H      4   3   2     2.045638503385   119.96648800   180.00070329
 H      3   2   1     2.045708478973   120.77057046   180.00021719
 H      7   1   2     2.099482879444   112.04844498   179.99910426
 H      7   1   2     2.097809807926   109.98214164   299.25645232
 H      7   1   2     2.097808013124   109.98193035    60.74227787
 H      6   5   4     2.047010687020   118.34711713   179.99954858
 H      5   4   3     2.045582349566   119.94580652   180.00074279
 N      2   1   3     2.718094937154   123.13018728   180.00041063
 O     15   2   1     2.254032037913   121.40457012     0.00000000
 O     15   2   1     2.257481937963   120.12233580   180.00207223
 H      3   2   1    13.691487832020    93.43698500    91.60007573

---------------------
BASIS SET INFORMATION
---------------------
There are 4 groups of distinct atoms

 Group   1 Type C   : 7s4p1d contracted to 3s2p1d pattern {511/31/1}
 Group   2 Type H   : 4s1p contracted to 2s1p pattern {31/1}
 Group   3 Type N   : 7s4p1d contracted to 3s2p1d pattern {511/31/1}
 Group   4 Type O   : 7s4p1d contracted to 3s2p1d pattern {511/31/1}

Atom   0C    basis set group =>   1
Atom   1C    basis set group =>   1
Atom   2C    basis set group =>   1
Atom   3C    basis set group =>   1
Atom   4C    basis set group =>   1
Atom   5C    basis set group =>   1
Atom   6C    basis set group =>   1
Atom   7H    basis set group =>   2
Atom   8H    basis set group =>   2
Atom   9H    basis set group =>   2
Atom  10H    basis set group =>   2
Atom  11H    basis set group =>   2
Atom  12H    basis set group =>   2
Atom  13H    basis set group =>   2
Atom  14N    basis set group =>   3
Atom  15O    basis set group =>   4
Atom  16O    basis set group =>   4
Atom  17H    basis set group =>   2

Checking for AutoStart:
The File: products_freq.gbw exists
Trying to determine its content:
     ... Fine, the file contains calculation information
     ... Fine, the calculation information was read
     ... Fine, the file contains a basis set
     ... Fine, the basis set was read
     ... Fine, the file contains a geometry
     ... Fine, the geometry was read
     ... Fine, the file contains a set of orbitals
     ... Fine, the orbitals can be read
     => possible old guess file was deleted
     => GBW file was renamed to GES file
     => GES file is set as startup file
     => Guess is set to MORead
     ... now leaving AutoStart

------------------------------------------------------------------------------
                           ORCA GTO INTEGRAL CALCULATION
------------------------------------------------------------------------------

                         BASIS SET STATISTICS AND STARTUP INFO

 # of primitive gaussian shells          ...  160
 # of primitive gaussian functions       ...  296
 # of contracted shells                  ...   84
 # of contracted basis functions         ...  180
 Highest angular momentum                ...    2
 Maximum contraction depth               ...    5
 Integral package used                   ... LIBINT
 Integral threshhold            Thresh   ...  1.000e-10
 Primitive cut-off              TCut     ...  1.000e-11


------------------------------ INTEGRAL EVALUATION ----------------------------


 * One electron integrals 
 Pre-screening matrix                    ... done
 Shell pair data                         ... done (   0.002 sec)

Timings:
 Total evaluation time               ...     0.002 sec (   0.000 min)
 One electron matrix time            ...     0.024 sec (   0.000 min) =1200.0%
 Schwartz matrix evaluation time     ...     0.124 sec (   0.002 min) =6200.0%

-------------------------------------------------------------------------------
                                 ORCA SCF
-------------------------------------------------------------------------------

------------
SCF SETTINGS
------------
Hamiltonian:
 Density Functional     Method          .... DFT(GTOs)
 Exchange Functional    Exchange        .... B88
   X-Alpha parameter    XAlpha          ....  0.666667
   Becke's b parameter  XBeta           ....  0.004200
 Correlation Functional Correlation     .... LYP
 LDA part of GGA corr.  LDAOpt          .... VWN-5
 Gradients option       PostSCFGGA      .... off
 Hybrid DFT is turned on
   Fraction HF Exchange ScalHFX         ....  0.200000
   Scaling of DF-GGA-X  ScalDFX         ....  0.720000
   Scaling of DF-GGA-C  ScalDFC         ....  0.810000
   Scaling of DF-LDA-C  ScalLDAC        ....  1.000000
   Perturbative correction              ....  0.000000
   Density functional embedding theory  .... OFF
   NL short-range parameter             ....  4.800000


General Settings:
 Integral files         IntName         .... products_freq
 Hartree-Fock type      HFTyp           .... RHF
 Total Charge           Charge          ....    1
 Multiplicity           Mult            ....    1
 Number of Electrons    NEL             ....   72
 Basis Dimension        Dim             ....  180
 Nuclear Repulsion      ENuc            ....    510.5379557293 Eh

Convergence Acceleration:
 DIIS                   CNVDIIS         .... on
   Start iteration      DIISMaxIt       ....    12
   Startup error        DIISStart       ....  0.200000
   # of expansion vecs  DIISMaxEq       ....     5
   Bias factor          DIISBfac        ....   1.050
   Max. coefficient     DIISMaxC        ....  10.000
 Newton-Raphson         CNVNR           .... off
 SOSCF                  CNVSOSCF        .... on
   Start iteration      SOSCFMaxIt      ....   150
   Startup grad/error   SOSCFStart      ....  0.003300
 Level Shifting         CNVShift        .... on
   Level shift para.    LevelShift      ....    0.2500
   Turn off err/grad.   ShiftErr        ....    0.0010
 Zerner damping         CNVZerner       .... off
 Static damping         CNVDamp         .... on
   Fraction old density DampFac         ....    0.7000
   Max. Damping (<1)    DampMax         ....    0.9800
   Min. Damping (>=0)   DampMin         ....    0.0000
   Turn off err/grad.   DampErr         ....    0.1000
 Fernandez-Rico         CNVRico         .... off

SCF Procedure:
 Maximum # iterations   MaxIter         ....  2000
 SCF integral mode      SCFMode         .... Direct
   Integral package                     .... LIBINT
 Reset frequency        DirectResetFreq ....    20
 Integral Threshold     Thresh          ....  1.000e-10 Eh
 Primitive CutOff       TCut            ....  1.000e-11 Eh

Convergence Tolerance:
 Convergence Check Mode ConvCheckMode   .... Total+1el-Energy
 Convergence forced     ConvForced      .... 0
 Energy Change          TolE            ....  1.000e-06 Eh
 1-El. energy change                    ....  1.000e-03 Eh
 Orbital Gradient       TolG            ....  5.000e-05
 Orbital Rotation angle TolX            ....  5.000e-05
 DIIS Error             TolErr          ....  1.000e-06


Diagonalization of the overlap matrix:
Smallest eigenvalue                        ... 2.539e-04
Time for diagonalization                   ...    0.007 sec
Threshold for overlap eigenvalues          ... 1.000e-08
Number of eigenvalues below threshold      ... 0
Time for construction of square roots      ...    0.005 sec
Total time needed                          ...    0.013 sec

---------------------
INITIAL GUESS: MOREAD
---------------------
Guess MOs are being read from file: products_freq.ges
Input Geometry matches current geometry (good)
Input basis set matches current basis set (good)
MOs were renormalized
MOs were reorthogonalized (Cholesky)
                      ------------------
                      INITIAL GUESS DONE (   0.0 sec)
                      ------------------
-------------------
DFT GRID GENERATION
-------------------

General Integration Accuracy     IntAcc      ...  4.340
Radial Grid Type                 RadialGrid  ... Gauss-Chebyshev
Angular Grid (max. acc.)         AngularGrid ... Lebedev-110
Angular grid pruning method      GridPruning ... 3 (G Style)
Weight generation scheme         WeightScheme... Becke
Basis function cutoff            BFCut       ...    1.0000e-10
Integration weight cutoff        WCut        ...    1.0000e-14
Grids for H and He will be reduced by one unit

# of grid points (after initial pruning)     ...  23078 (   0.0 sec)
# of grid points (after weights+screening)   ...  21438 (   0.1 sec)
nearest neighbour list constructed           ...    0.0 sec
Grid point re-assignment to atoms done       ...    0.0 sec
Grid point division into batches done        ...    0.0 sec
Reduced shell lists constructed in    0.2 sec

Total number of grid points                  ...    21438
Total number of batches                      ...      345
Average number of points per batch           ...       62
Average number of grid points per atom       ...     1191
Average number of shells per batch           ...    52.80 (62.86%)
Average number of basis functions per batch  ...   111.54 (61.97%)
Average number of large shells per batch     ...    39.75 (75.28%)
Average number of large basis fcns per batch ...    83.20 (74.60%)
Maximum spatial batch extension              ...  18.26, 21.99, 20.05 au
Average spatial batch extension              ...   3.80,  3.77,  4.02 au

Time for grid setup =    0.254 sec

--------------
SCF ITERATIONS
--------------
ITER       Energy         Delta-E        Max-DP      RMS-DP      [F,P]     Damp
               ***  Starting incremental Fock matrix formation  ***
  0   -473.6857376859   0.000000000000 0.59341700  0.01350965  0.6157057 0.7000
  1   -474.0504495593  -0.364711873423 0.27039300  0.00428829  0.1062544 0.7000
                               ***Turning on DIIS***
  2   -474.5864117571  -0.535962197748 0.18927510  0.00313819  0.1476040 0.7000
  3   -474.8593240365  -0.272912279456 0.13249257  0.00235081  0.1570990 0.7000
  4   -475.0295389386  -0.170214902093 0.09274480  0.00181465  0.1307649 0.7000
  5   -475.1495261878  -0.119987249216 0.21640395  0.00491858  0.0986654 0.0000
  6   -475.4331412447  -0.283615056831 0.02438280  0.00088277  0.0166236 0.0000
  7   -475.4391914844  -0.006050239715 0.01306466  0.00039626  0.0113961 0.0000
  8   -475.4406032818  -0.001411797401 0.04467268  0.00089077  0.0080215 0.0000
  9   -475.4510898351  -0.010486553299 0.26355587  0.00349307  0.0302413 0.0000
 10   -475.5321125352  -0.081022700150 0.33509237  0.00330067  0.0432046 0.0000
 11   -475.2862320416   0.245880493687 0.04110663  0.00054939  0.2119348 0.7000
 12   -475.2239804353   0.062251606288 0.04378621  0.00067212  0.2079667 0.7000
 13   -475.1521549442   0.071825491039 0.03503609  0.00062267  0.2156056 0.7000
 14   -475.0918343381   0.060320606112 0.03045874  0.00057504  0.2424395 0.7000
 15   -475.0562400855   0.035594252639 0.22932606  0.00264454  0.2646129 0.7000
 16   -475.3981864449  -0.341946359421 0.16074169  0.00167506  0.1107713 0.7000
 17   -475.5046678861  -0.106481441249 0.37514190  0.00379669  0.0428143 0.0000
 18   -475.4167042933   0.087963592843 0.00611875  0.00022064  0.0601541 0.0000
 19   -475.4165652545   0.000139038778 0.00344421  0.00011391  0.0626341 0.0000
               *** Restarting incremental Fock matrix formation ***
                                   *** Resetting DIIS ***
 20   -475.4168453665  -0.000280111943 0.82196905  0.00935484  0.0622662 0.0000
 21   -474.4693539839   0.947491382565 0.03382694  0.00047966  0.3153551 0.7000
 22   -474.5200784318  -0.050724447923 0.03441875  0.00049901  0.3017480 0.7000
 23   -474.5713290612  -0.051250629409 0.02932935  0.00043836  0.2875887 0.7000
 24   -474.6158174192  -0.044488357976 0.02460037  0.00037776  0.2753380 0.7000
 25   -474.6538319425  -0.038014523291 0.20993397  0.00328434  0.2648889 0.7000
 26   -475.2645657573  -0.610733814758 0.14698121  0.00199373  0.1001694 0.7000
 27   -475.4462574211  -0.181691663879 0.34297096  0.00443785  0.0303753 0.0000
 28   -475.3178523755   0.128405045606 0.00322664  0.00013097  0.1691459 0.7000
 29   -475.3246636431  -0.006811267522 0.00402169  0.00015240  0.1660564 0.7000
 30   -475.3323509207  -0.007687277662 0.00453841  0.00014020  0.1630060 0.7000
 31   -475.3390957664  -0.006744845646 0.00399616  0.00012057  0.1611150 0.7000
 32   -475.3448674933  -0.005771726963 0.23350581  0.00298617  0.1591133 0.7000
 33   -475.4941506012  -0.149283107860 0.50410759  0.00651535  0.0506914 0.0000
 34   -474.5899997195   0.904150881731 0.02864757  0.00044623  0.2827340 0.7000
 35   -474.6222072614  -0.032207541913 0.03675376  0.00055113  0.2702561 0.7000
 36   -474.6538024903  -0.031595228933 0.03950311  0.00055216  0.2575713 0.7000
 37   -474.6779553050  -0.024152814710 0.05255213  0.00063242  0.2481962 0.7000
 38   -474.6872528663  -0.009297561239 0.19745175  0.00376269  0.2478290 0.7000
 39   -475.2457255960  -0.558472729738 0.46073434  0.00687202  0.0888405 0.0000
               *** Restarting incremental Fock matrix formation ***
                                   *** Resetting DIIS ***
 40   -474.9715051288   0.274220467167 0.23617223  0.00475388  0.3224630 0.7000
 41   -475.3169417185  -0.345436589636 0.49561777  0.00792935  0.0529887 0.0000
 42   -474.3600054475   0.956936270933 0.03166936  0.00092265  0.3310074 0.7000
 43   -474.4320526022  -0.072047154651 0.03172151  0.00103495  0.3297686 0.7000
 44   -474.4886111650  -0.056558562796 0.02738008  0.00090530  0.3304680 0.7000
 45   -474.5272624521  -0.038651287116 0.02412480  0.00073630  0.3291968 0.7000
 46   -474.5532413331  -0.025978880969 0.26802426  0.00417577  0.3271881 0.7000
 47   -475.1860143833  -0.632773050266 0.45242320  0.00715588  0.0854148 0.0000
 48   -474.9232695127   0.262744870650 0.02088978  0.00062964  0.3904101 0.7000
 49   -475.0016514945  -0.078381981835 0.02836763  0.00078633  0.3657124 0.7000
 50   -475.0841785043  -0.082527009775 0.02514963  0.00073972  0.3409833 0.7000
 51   -475.1540389180  -0.069860413721 0.02137878  0.00063245  0.3137792 0.7000
 52   -475.2105897245  -0.056550806458 0.25988202  0.00324177  0.2840693 0.7000
 53   -475.4465644903  -0.235974765802 0.50379353  0.00680958  0.0592746 0.0000
 54   -474.4672296845   0.979334805814 0.03987861  0.00063655  0.3565254 0.7000
 55   -474.5285765097  -0.061346825201 0.06681988  0.00092232  0.3191364 0.7000
 56   -474.5932823000  -0.064705790347 0.07138618  0.00093015  0.2664438 0.7000
 57   -474.6392246785  -0.045942378463 0.06868903  0.00086966  0.2525007 0.7000
 58   -474.6677517746  -0.028527096100 0.20545139  0.00378164  0.2450854 0.7000
 59   -475.2406730801  -0.572921305554 0.45632593  0.00686373  0.0870502 0.0000
               *** Restarting incremental Fock matrix formation ***
                                   *** Resetting DIIS ***
 60   -474.9434883839   0.297184696219 0.22909220  0.00565253  0.3055033 0.7000
 61   -475.1822867471  -0.238798363166 0.50240212  0.00794293  0.0631065 0.0000
 62   -474.4842108274   0.698075919668 0.02688025  0.00083240  0.2801807 0.7000
 63   -474.5646515731  -0.080440745707 0.03195767  0.00091557  0.2684398 0.7000
 64   -474.6421756931  -0.077524120016 0.03008044  0.00081978  0.2544228 0.7000
 65   -474.7096325929  -0.067456899809 0.03826864  0.00093470  0.2406790 0.7000
 66   -474.7816035985  -0.071971005590 0.18917843  0.00311486  0.2350859 0.7000
 67   -475.2864164498  -0.504812851311 0.44141880  0.00631759  0.0806931 0.0000
 68   -475.1796441546   0.106772295266 0.01340202  0.00029212  0.2485972 0.7000
 69   -475.2045028373  -0.024858682752 0.01405207  0.00033026  0.2307444 0.7000
 70   -475.2314822953  -0.026979458018 0.01180559  0.00030590  0.2131047 0.7000
 71   -475.2554607655  -0.023978470186 0.00911689  0.00028065  0.1989527 0.7000
 72   -475.2763317949  -0.020871029405 0.22762790  0.00299987  0.1883676 0.7000
 73   -475.4935979476  -0.217266152707 0.49008675  0.00639822  0.0355877 0.0000
 74   -474.6747319493   0.818865998371 0.01945454  0.00028303  0.2743650 0.7000
 75   -474.6939745090  -0.019242559731 0.02022820  0.00032996  0.2658553 0.7000
 76   -474.7150640297  -0.021089520741 0.01653768  0.00031975  0.2568852 0.7000
 77   -474.7344052574  -0.019341227638 0.01479361  0.00029597  0.2495044 0.7000
 78   -474.7521983981  -0.017793140703 0.19401001  0.00340345  0.2428353 0.7000
 79   -475.2841039246  -0.531905526575 0.45269063  0.00649564  0.0856034 0.0000
               *** Restarting incremental Fock matrix formation ***
                                   *** Resetting DIIS ***
 80   -475.0974194222   0.186684502497 0.23109676  0.00399196  0.2981073 0.7000
 81   -475.4010189786  -0.303599556445 0.49571456  0.00753654  0.0593638 0.0000
 82   -474.4666289312   0.934390047360 0.02984582  0.00079750  0.2782126 0.7000
 83   -474.5282569731  -0.061628041845 0.03556325  0.00093791  0.2650920 0.7000
 84   -474.5805548424  -0.052297869288 0.03291744  0.00085490  0.2691265 0.7000
 85   -474.6154104922  -0.034855649860 0.03230041  0.00073094  0.2746034 0.7000
 86   -474.6348066564  -0.019396164192 0.21856855  0.00404965  0.2802160 0.7000
 87   -475.2180459461  -0.583239289694 0.44022563  0.00709722  0.0802395 0.0000
 88   -474.8777025603   0.340343385810 0.02150386  0.00057444  0.3533900 0.7000
 89   -474.9571358295  -0.079433269183 0.02983618  0.00074303  0.3343289 0.7000
 90   -475.0454806196  -0.088344790110 0.03125423  0.00074319  0.3181744 0.7000
 91   -475.1229205289  -0.077439909328 0.02362838  0.00064896  0.3005064 0.7000
 92   -475.1861594774  -0.063238948506 0.25815217  0.00326957  0.2769207 0.7000
 93   -475.4305077497  -0.244348272272 0.49952312  0.00702037  0.0843003 0.0000
 94   -474.5014128731   0.929094876644 0.05029263  0.00074043  0.3284262 0.7000
 95   -474.5639906252  -0.062577752136 0.07500203  0.00099901  0.2816563 0.7000
 96   -474.6210666799  -0.057076054661 0.07385222  0.00096090  0.2488844 0.7000
 97   -474.6573268631  -0.036260183194 0.07125469  0.00089153  0.2347014 0.7000
 98   -474.6754414065  -0.018114543439 0.18371439  0.00378708  0.2447432 0.7000
 99   -475.2365567408  -0.561115334358 0.42866738  0.00685089  0.0751738 0.0000
               *** Restarting incremental Fock matrix formation ***
                                   *** Resetting DIIS ***
100   -474.9290758921   0.307480848714 0.23061244  0.00573037  0.2969932 0.7000
101   -475.1829590113  -0.253883119198 0.50236636  0.00795799  0.0625340 0.0000
102   -474.4465953693   0.736363642009 0.02562249  0.00084442  0.2808028 0.7000
103   -474.5372871107  -0.090691741351 0.02813277  0.00092273  0.2722017 0.7000
104   -474.6244045947  -0.087117484047 0.03060939  0.00082652  0.2605764 0.7000
105   -474.6991523340  -0.074747739256 0.02460667  0.00089666  0.2466803 0.7000
106   -474.7780920702  -0.078939736267 0.19235314  0.00298502  0.2400221 0.7000
107   -475.2920031776  -0.513911107325 0.44882739  0.00630848  0.0838357 0.0000
108   -475.2102926750   0.081710502558 0.00935296  0.00023155  0.2071481 0.7000
109   -475.2289981258  -0.018705450813 0.01013766  0.00026487  0.1941747 0.7000
110   -475.2496046317  -0.020606505915 0.00898144  0.00024610  0.1826376 0.7000
111   -475.2680451818  -0.018440550050 0.00674387  0.00023364  0.1760362 0.7000
112   -475.2847392559  -0.016694074121 0.22738315  0.00298433  0.1681400 0.7000
113   -475.4837752806  -0.199036024669 0.49592943  0.00675441  0.0593731 0.0000
114   -474.6196947902   0.864080490337 0.03514229  0.00048976  0.2767365 0.7000
115   -474.6528190363  -0.033124246073 0.03468145  0.00054957  0.2631207 0.7000
116   -474.6845096724  -0.031690636090 0.02669305  0.00050514  0.2556181 0.7000
117   -474.7091025249  -0.024592852453 0.02200710  0.00050745  0.2518885 0.7000
118   -474.7225564913  -0.013453966480 0.21453765  0.00360702  0.2550471 0.7000
119   -475.2634968085  -0.540940317174 0.42897518  0.00667943  0.0753750 0.0000
               *** Restarting incremental Fock matrix formation ***
                                   *** Resetting DIIS ***
120   -475.0493732037   0.214123604788 0.25974355  0.00415658  0.3330646 0.7000
121   -475.3795276510  -0.330154447259 0.49396188  0.00766989  0.0554431 0.0000
122   -474.4417400225   0.937787628453 0.04619397  0.00080828  0.2797411 0.7000
123   -474.5030302360  -0.061290213510 0.06045156  0.00094954  0.2763675 0.7000
124   -474.5528278384  -0.049797602329 0.05805383  0.00087559  0.2791590 0.7000
125   -474.5840057795  -0.031177941175 0.05125151  0.00075612  0.2833375 0.7000
126   -474.6013826361  -0.017376856566 0.20401281  0.00418212  0.2869190 0.7000
127   -475.1968349879  -0.595452351741 0.44144768  0.00718815  0.0807555 0.0000
128   -474.8267233930   0.370111594897 0.02526891  0.00066943  0.3673428 0.7000
129   -474.9224836026  -0.095760209641 0.03615329  0.00088938  0.3472445 0.7000
130   -475.0280888368  -0.105605234226 0.03616191  0.00087733  0.3294090 0.7000
131   -475.1183964143  -0.090307577469 0.02542561  0.00074636  0.3069082 0.7000
132   -475.1900807263  -0.071684312051 0.23009646  0.00323008  0.2775716 0.7000
133   -475.4321016176  -0.242020891282 0.50044811  0.00679562  0.0754364 0.0000
134   -474.4717663704   0.960335247261 0.03369010  0.00067093  0.3261377 0.7000
135   -474.5381936527  -0.066427282376 0.04959321  0.00096561  0.2909720 0.7000
136   -474.6039471717  -0.065753518969 0.04825662  0.00093902  0.2619342 0.7000
137   -474.6474330687  -0.043485897025 0.04621681  0.00085477  0.2502064 0.7000
138   -474.6721814826  -0.024748413903 0.19362314  0.00379372  0.2420283 0.7000
139   -475.2417575842  -0.569576101519 0.45178743  0.00683340  0.0851068 0.0000
               *** Restarting incremental Fock matrix formation ***
                                   *** Resetting DIIS ***
140   -474.9587618110   0.282995773161 0.22877451  0.00528173  0.2890930 0.7000
141   -475.2523273324  -0.293565521372 0.50040189  0.00774388  0.0507054 0.0000
142   -474.2931172305   0.959210101835 0.03615605  0.00095498  0.3063757 0.7000
143   -474.3968132702  -0.103696039628 0.03512045  0.00104631  0.3047321 0.7000
144   -474.4871328918  -0.090319621586 0.02488349  0.00089514  0.3024791 0.7000
145   -474.5619876593  -0.074854767595 0.02101615  0.00075454  0.2913562 0.7000
146   -474.6245216905  -0.062534031160 0.23822658  0.00362991  0.2769598 0.7000
147   -475.2309928197  -0.606471129152 0.47320747  0.00676326  0.0940756 0.0000
148   -475.0816513183   0.149341501373 0.01470875  0.00036943  0.3208611 0.7000
149   -475.1192751892  -0.037623870958 0.01555225  0.00042092  0.2991734 0.7000
                      *** Initiating the SOSCF procedure ***
                           *** Shutting down DIIS ***
                      *** Re-Reading the Fockian *** 
                      *** Removing any level shift *** 
ITER      Energy       Delta-E        Grad      Rot      Max-DP    RMS-DP
150   -475.15969197  -0.0404167844  0.012220  0.012220  0.046606  0.001306
               *** Restarting incremental Fock matrix formation ***
151   -475.27091128  -0.1112193103  0.121699  0.867625  0.088459  0.003263
152   -475.29625816  -0.0253468734  0.115358  0.419270  0.066067  0.001969
153   -475.33277558  -0.0365174235  0.050727  0.268045  0.120569  0.002853
154   -475.40094900  -0.0681734155  0.054202  0.182118  0.149755  0.002618
155   -475.42499089  -0.0240418938  0.041209  0.053961  0.056316  0.001591
156   -475.43894396  -0.0139530658  0.012635  0.051670  0.048987  0.001160
157   -475.43604490   0.0028990542  0.017368  0.029969  0.031847  0.000742
158   -475.44100900  -0.0049640971  0.001667  0.010790  0.006316  0.000190
159   -475.44095729   0.0000517058  0.003328  0.003128  0.004030  0.000102
160   -475.44108513  -0.0001278347  0.000526  0.004089  0.001752  0.000059
161   -475.44108188   0.0000032507  0.000452  0.001603  0.001171  0.000031
162   -475.44109250  -0.0000106248  0.000239  0.000865  0.000374  0.000013
163   -475.44109370  -0.0000012011  0.000402  0.003436  0.001059  0.000029
164   -475.44110304  -0.0000093349  0.001166  0.005219  0.001611  0.000042
165   -475.44109204   0.0000109963  0.000051  0.000552  0.000345  0.000009
166   -475.44109187   0.0000001752  0.000075  0.000306  0.000218  0.000005
167   -475.44109221  -0.0000003401  0.000054  0.000148  0.000092  0.000002
168   -475.44109232  -0.0000001130  0.000085  0.012606  0.007845  0.000230
169   -475.44105356   0.0000387612  0.003495  0.014165  0.008793  0.000254
170   -475.44109203  -0.0000384768  0.000289  0.000959  0.000608  0.000017
               *** Restarting incremental Fock matrix formation ***
171   -475.44109217  -0.0000001352  0.000039  0.000197  0.000121  0.000004
172   -475.44109214   0.0000000333  0.000019  0.001552  0.000968  0.000026
173   -475.44109274  -0.0000006035  0.000324  0.001446  0.000915  0.000024
174   -475.44109216   0.0000005825  0.000038  0.000079  0.000055  0.000001
175   -475.44109217  -0.0000000102  0.000036  0.000532  0.000316  0.000007
176   -475.44109234  -0.0000001756  0.000081  0.000492  0.000241  0.000005
177   -475.44109213   0.0000002119  0.000060  0.000448  0.000297  0.000008
178   -475.44109208   0.0000000493  0.000080  0.000173  0.000119  0.000004
                 **** Energy Check signals convergence ****
              ***Rediagonalizing the Fockian in SOSCF/NRSCF***

               *****************************************************
               *                     SUCCESS                       *
               *           SCF CONVERGED AFTER 179 CYCLES          *
               *****************************************************

Setting up the final grid:

General Integration Accuracy     IntAcc      ...  4.670
Radial Grid Type                 RadialGrid  ... Gauss-Chebyshev
Angular Grid (max. acc.)         AngularGrid ... Lebedev-302
Angular grid pruning method      GridPruning ... 3 (G Style)
Weight generation scheme         WeightScheme... Becke
Basis function cutoff            BFCut       ...    1.0000e-10
Integration weight cutoff        WCut        ...    1.0000e-14
Grids for H and He will be reduced by one unit

# of grid points (after initial pruning)     ...  89272 (   0.0 sec)
# of grid points (after weights+screening)   ...  81609 (   0.3 sec)
nearest neighbour list constructed           ...    0.0 sec
Grid point re-assignment to atoms done       ...    0.0 sec
Grid point division into batches done        ...    0.3 sec
Reduced shell lists constructed in    1.3 sec

Total number of grid points                  ...    81609
Total number of batches                      ...     1284
Average number of points per batch           ...       63
Average number of grid points per atom       ...     4534
Average number of shells per batch           ...    47.79 (56.89%)
Average number of basis functions per batch  ...   100.24 (55.69%)
Average number of large shells per batch     ...    35.37 (74.03%)
Average number of large basis fcns per batch ...    73.29 (73.12%)
Maximum spatial batch extension              ...  17.72, 18.48, 20.81 au
Average spatial batch extension              ...   2.51,  2.49,  2.61 au

Final grid set up in    1.6 sec
Final integration                            ... done (   1.1 sec)
Change in XC energy                          ...     0.000933417
Integrated number of electrons               ...    71.999945196
Previous integrated no of electrons          ...    72.005938582

----------------
TOTAL SCF ENERGY
----------------

Total Energy       :         -475.44015875 Eh          -12937.38444 eV

Components:
Nuclear Repulsion  :          510.53795573 Eh           13892.44405 eV
Electronic Energy  :         -985.97811447 Eh          -26829.82850 eV
One Electron Energy:        -1652.57220346 Eh          -44968.77582 eV
Two Electron Energy:          666.59408899 Eh           18138.94733 eV

Virial components:
Potential Energy   :         -946.90709640 Eh          -25766.65204 eV
Kinetic Energy     :          471.46693765 Eh           12829.26760 eV
Virial Ratio       :            2.00842736


DFT components:
N(Alpha)           :       35.999972597980 electrons
N(Beta)            :       35.999972597980 electrons
N(Total)           :       71.999945195961 electrons
E(X)               :      -49.091459551021 Eh       
E(C)               :       -2.910107030961 Eh       
E(XC)              :      -52.001566581982 Eh       
DFET-embed. en.    :        0.000000000000 Eh       

---------------
SCF CONVERGENCE
---------------

  Last Energy change         ...   -7.9997e-08  Tolerance :   1.0000e-06
  Last MAX-Density change    ...    6.7701e-05  Tolerance :   1.0000e-05
  Last RMS-Density change    ...    1.2538e-06  Tolerance :   1.0000e-06
  Last Orbital Gradient      ...    2.4016e-05  Tolerance :   5.0000e-05
  Last Orbital Rotation      ...    1.2632e-04  Tolerance :   5.0000e-05

             **** THE GBW FILE WAS UPDATED (products_freq.gbw) ****
             **** DENSITY FILE WAS UPDATED (products_freq.scfp) ****
             **** ENERGY FILE WAS UPDATED (products_freq.en.tmp) ****
             **** THE GBW FILE WAS UPDATED (products_freq.gbw) ****
             **** DENSITY FILE WAS UPDATED (products_freq.scfp) ****
----------------
ORBITAL ENERGIES
----------------

  NO   OCC          E(Eh)            E(eV) 
   0   2.0000     -19.213554      -522.8274 
   1   2.0000     -19.211409      -522.7690 
   2   2.0000     -14.622567      -397.9003 
   3   2.0000     -10.320179      -280.8263 
   4   2.0000     -10.300265      -280.2845 
   5   2.0000     -10.287905      -279.9481 
   6   2.0000     -10.283164      -279.8191 
   7   2.0000     -10.278636      -279.6959 
   8   2.0000     -10.277938      -279.6769 
   9   2.0000     -10.259959      -279.1877 
  10   2.0000      -1.311807       -35.6961 
  11   2.0000      -1.114643       -30.3310 
  12   2.0000      -0.953792       -25.9540 
  13   2.0000      -0.879287       -23.9266 
  14   2.0000      -0.850594       -23.1458 
  15   2.0000      -0.784342       -21.3430 
  16   2.0000      -0.744540       -20.2600 
  17   2.0000      -0.682287       -18.5660 
  18   2.0000      -0.652027       -17.7426 
  19   2.0000      -0.618974       -16.8431 
  20   2.0000      -0.609102       -16.5745 
  21   2.0000      -0.577115       -15.7041 
  22   2.0000      -0.570828       -15.5330 
  23   2.0000      -0.546596       -14.8736 
  24   2.0000      -0.527669       -14.3586 
  25   2.0000      -0.496949       -13.5227 
  26   2.0000      -0.496198       -13.5022 
  27   2.0000      -0.466031       -12.6813 
  28   2.0000      -0.447362       -12.1733 
  29   2.0000      -0.441629       -12.0173 
  30   2.0000      -0.434566       -11.8251 
  31   2.0000      -0.377689       -10.2775 
  32   2.0000      -0.369486       -10.0542 
  33   2.0000      -0.353850        -9.6288 
  34   2.0000      -0.340639        -9.2693 
  35   2.0000      -0.338926        -9.2227 
  36   0.0000      -0.531160       -14.4536 
  37   0.0000      -0.152186        -4.1412 
  38   0.0000      -0.097844        -2.6625 
  39   0.0000      -0.065480        -1.7818 
  40   0.0000      -0.011051        -0.3007 
  41   0.0000       0.012077         0.3286 
  42   0.0000       0.027173         0.7394 
  43   0.0000       0.049355         1.3430 
  44   0.0000       0.053138         1.4459 
  45   0.0000       0.061809         1.6819 
  46   0.0000       0.086151         2.3443 
  47   0.0000       0.098142         2.6706 
  48   0.0000       0.122022         3.3204 
  49   0.0000       0.152218         4.1421 
  50   0.0000       0.153105         4.1662 
  51   0.0000       0.182907         4.9772 
  52   0.0000       0.194234         5.2854 
  53   0.0000       0.215375         5.8607 
  54   0.0000       0.224322         6.1041 
  55   0.0000       0.249522         6.7898 
  56   0.0000       0.278923         7.5899 
  57   0.0000       0.307419         8.3653 
  58   0.0000       0.329763         8.9733 
  59   0.0000       0.333904         9.0860 
  60   0.0000       0.353561         9.6209 
  61   0.0000       0.365695         9.9511 
  62   0.0000       0.384499        10.4628 
  63   0.0000       0.391547        10.6545 
  64   0.0000       0.397334        10.8120 
  65   0.0000       0.413616        11.2551 
  66   0.0000       0.434517        11.8238 
  67   0.0000       0.447628        12.1806 
  68   0.0000       0.486007        13.2249 
  69   0.0000       0.491522        13.3750 
  70   0.0000       0.511607        13.9215 
  71   0.0000       0.516537        14.0557 
  72   0.0000       0.548654        14.9296 
  73   0.0000       0.549776        14.9602 
  74   0.0000       0.553513        15.0619 
  75   0.0000       0.569342        15.4926 
  76   0.0000       0.581721        15.8294 
  77   0.0000       0.594479        16.1766 
  78   0.0000       0.600703        16.3460 
  79   0.0000       0.608432        16.5563 
  80   0.0000       0.623989        16.9796 
  81   0.0000       0.642032        17.4706 
  82   0.0000       0.648859        17.6564 
  83   0.0000       0.651443        17.7267 
  84   0.0000       0.668549        18.1922 
  85   0.0000       0.714158        19.4332 
  86   0.0000       0.722408        19.6577 
  87   0.0000       0.740507        20.1502 
  88   0.0000       0.753937        20.5157 
  89   0.0000       0.829829        22.5808 
  90   0.0000       0.832278        22.6474 
  91   0.0000       0.870679        23.6924 
  92   0.0000       0.902161        24.5491 
  93   0.0000       0.930611        25.3232 
  94   0.0000       0.948194        25.8017 
  95   0.0000       0.966917        26.3112 
  96   0.0000       0.987719        26.8772 
  97   0.0000       1.018050        27.7025 
  98   0.0000       1.018054        27.7026 
  99   0.0000       1.018083        27.7034 
 100   0.0000       1.019967        27.7547 
 101   0.0000       1.063660        28.9437 
 102   0.0000       1.118481        30.4354 
 103   0.0000       1.123814        30.5805 
 104   0.0000       1.148472        31.2515 
 105   0.0000       1.151252        31.3271 
 106   0.0000       1.182831        32.1865 
 107   0.0000       1.206434        32.8287 
 108   0.0000       1.209883        32.9226 
 109   0.0000       1.231681        33.5157 
 110   0.0000       1.265263        34.4296 
 111   0.0000       1.327684        36.1281 
 112   0.0000       1.367110        37.2010 
 113   0.0000       1.412822        38.4448 
 114   0.0000       1.452666        39.5290 
 115   0.0000       1.456934        39.6452 
 116   0.0000       1.467017        39.9196 
 117   0.0000       1.493669        40.6448 
 118   0.0000       1.599865        43.5345 
 119   0.0000       1.610157        43.8146 
 120   0.0000       1.622002        44.1369 
 121   0.0000       1.653361        44.9902 
 122   0.0000       1.655389        45.0454 
 123   0.0000       1.667049        45.3627 
 124   0.0000       1.672799        45.5192 
 125   0.0000       1.701664        46.3046 
 126   0.0000       1.715698        46.6865 
 127   0.0000       1.717088        46.7243 
 128   0.0000       1.727166        46.9986 
 129   0.0000       1.739818        47.3429 
 130   0.0000       1.767791        48.1040 
 131   0.0000       1.824090        49.6360 
 132   0.0000       1.845796        50.2267 
 133   0.0000       1.866614        50.7931 
 134   0.0000       1.867611        50.8203 
 135   0.0000       1.921798        52.2948 
 136   0.0000       1.924141        52.3585 
 137   0.0000       1.959225        53.3132 
 138   0.0000       2.004593        54.5478 
 139   0.0000       2.010511        54.7088 
 140   0.0000       2.038306        55.4651 
 141   0.0000       2.050299        55.7915 
 142   0.0000       2.097398        57.0731 
 143   0.0000       2.167477        58.9800 
 144   0.0000       2.192470        59.6601 
 145   0.0000       2.199956        59.8638 
 146   0.0000       2.217248        60.3344 
 147   0.0000       2.218379        60.3652 
 148   0.0000       2.263730        61.5992 
 149   0.0000       2.299865        62.5825 
 150   0.0000       2.350795        63.9684 
 151   0.0000       2.363789        64.3220 
 152   0.0000       2.390905        65.0598 
 153   0.0000       2.407234        65.5042 
 154   0.0000       2.487420        67.6861 
 155   0.0000       2.491776        67.8047 
 156   0.0000       2.539677        69.1081 
 157   0.0000       2.544637        69.2431 
 158   0.0000       2.550804        69.4109 
 159   0.0000       2.567719        69.8712 
 160   0.0000       2.598205        70.7008 
 161   0.0000       2.648751        72.0762 
 162   0.0000       2.650016        72.1106 
 163   0.0000       2.666770        72.5665 
 164   0.0000       2.700246        73.4774 
 165   0.0000       2.746078        74.7246 
 166   0.0000       2.772543        75.4447 
 167   0.0000       2.820571        76.7516 
 168   0.0000       2.831453        77.0478 
 169   0.0000       2.891891        78.6923 
 170   0.0000       2.943380        80.0935 
 171   0.0000       2.990387        81.3726 
 172   0.0000       3.059211        83.2454 
 173   0.0000       3.074271        83.6552 
 174   0.0000       3.245525        88.3152 
 175   0.0000       3.253372        88.5287 
 176   0.0000       3.393061        92.3299 
 177   0.0000       3.523443        95.8778 
 178   0.0000       3.733929       101.6054 
 179   0.0000       3.778176       102.8094 

                    ********************************
                    * MULLIKEN POPULATION ANALYSIS *
                    ********************************

-----------------------
MULLIKEN ATOMIC CHARGES
-----------------------
   0 C :   -0.108675
   1 C :    0.151044
   2 C :   -0.032900
   3 C :    0.019193
   4 C :    0.054548
   5 C :   -0.032086
   6 C :    0.109277
   7 H :   -0.004503
   8 H :   -0.000429
   9 H :    0.009007
  10 H :    0.054395
  11 H :    0.033975
  12 H :   -0.010585
  13 H :   -0.000978
  14 N :    0.239885
  15 O :   -0.238204
  16 O :   -0.242961
  17 H :    1.000000
Sum of atomic charges:    1.0000000

--------------------------------
MULLIKEN REDUCED ORBITAL CHARGES
--------------------------------
  0 C s       :     3.134104  s :     3.134104
      pz      :     0.951510  p :     2.932652
      px      :     1.023752
      py      :     0.957391
      dz2     :     0.005175  d :     0.041919
      dxz     :     0.006348
      dyz     :     0.007937
      dx2y2   :     0.011393
      dxy     :     0.011067
  1 C s       :     3.037121  s :     3.037121
      pz      :     1.044205  p :     2.765533
      px      :     0.936538
      py      :     0.784789
      dz2     :     0.006215  d :     0.046303
      dxz     :     0.005788
      dyz     :     0.007274
      dx2y2   :     0.016429
      dxy     :     0.010597
  2 C s       :     3.286550  s :     3.286550
      pz      :     0.915594  p :     2.712442
      px      :     0.877012
      py      :     0.919836
      dz2     :     0.003113  d :     0.033908
      dxz     :     0.003839
      dyz     :     0.007723
      dx2y2   :     0.008687
      dxy     :     0.010545
  3 C s       :     3.159697  s :     3.159697
      pz      :     0.972233  p :     2.786160
      px      :     0.908451
      py      :     0.905476
      dz2     :     0.003955  d :     0.034950
      dxz     :     0.004308
      dyz     :     0.006335
      dx2y2   :     0.009268
      dxy     :     0.011083
  4 C s       :     3.159330  s :     3.159330
      pz      :     0.941497  p :     2.750171
      px      :     0.962545
      py      :     0.846130
      dz2     :     0.004799  d :     0.035951
      dxz     :     0.005965
      dyz     :     0.004800
      dx2y2   :     0.011359
      dxy     :     0.009027
  5 C s       :     3.235145  s :     3.235145
      pz      :     0.953234  p :     2.763045
      px      :     0.868126
      py      :     0.941685
      dz2     :     0.003082  d :     0.033897
      dxz     :     0.004162
      dyz     :     0.006483
      dx2y2   :     0.010029
      dxy     :     0.010141
  6 C s       :     2.930823  s :     2.930823
      pz      :     1.003070  p :     2.932333
      px      :     0.949973
      py      :     0.979289
      dz2     :     0.002746  d :     0.027568
      dxz     :     0.006595
      dyz     :     0.007470
      dx2y2   :     0.002482
      dxy     :     0.008274
  7 H s       :     0.981266  s :     0.981266
      pz      :     0.005647  p :     0.023237
      px      :     0.009195
      py      :     0.008395
  8 H s       :     0.976823  s :     0.976823
      pz      :     0.007166  p :     0.023606
      px      :     0.011481
      py      :     0.004959
  9 H s       :     0.968556  s :     0.968556
      pz      :     0.006656  p :     0.022437
      px      :     0.009342
      py      :     0.006440
 10 H s       :     0.922194  s :     0.922194
      pz      :     0.009942  p :     0.023411
      px      :     0.006138
      py      :     0.007330
 11 H s       :     0.942660  s :     0.942660
      pz      :     0.008607  p :     0.023365
      px      :     0.005601
      py      :     0.009157
 12 H s       :     0.987406  s :     0.987406
      pz      :     0.007065  p :     0.023179
      px      :     0.011374
      py      :     0.004739
 13 H s       :     0.977943  s :     0.977943
      pz      :     0.004432  p :     0.023035
      px      :     0.003791
      py      :     0.014812
 14 N s       :     3.273258  s :     3.273258
      pz      :     1.155399  p :     3.360619
      px      :     1.080996
      py      :     1.124224
      dz2     :     0.017213  d :     0.126239
      dxz     :     0.021492
      dyz     :     0.017064
      dx2y2   :     0.039053
      dxy     :     0.031417
 15 O s       :     3.856877  s :     3.856877
      pz      :     1.460029  p :     4.357523
      px      :     1.436636
      py      :     1.460858
      dz2     :     0.003130  d :     0.023803
      dxz     :     0.003193
      dyz     :     0.004610
      dx2y2   :     0.004788
      dxy     :     0.008082
 16 O s       :     3.845634  s :     3.845634
      pz      :     1.349292  p :     4.373613
      px      :     1.263787
      py      :     1.760534
      dz2     :     0.004232  d :     0.023714
      dxz     :     0.007259
      dyz     :     0.002116
      dx2y2   :     0.005394
      dxy     :     0.004714
 17 H s       :     0.000000  s :     0.000000
      pz      :     0.000000  p :     0.000000
      px      :     0.000000
      py      :     0.000000


                     *******************************
                     * LOEWDIN POPULATION ANALYSIS *
                     *******************************

----------------------
LOEWDIN ATOMIC CHARGES
----------------------
   0 C :    0.008702
   1 C :   -0.042113
   2 C :    0.004315
   3 C :   -0.030407
   4 C :    0.005640
   5 C :   -0.023250
   6 C :   -0.046595
   7 H :    0.032573
   8 H :    0.037334
   9 H :    0.027844
  10 H :    0.048921
  11 H :    0.039006
  12 H :    0.033854
  13 H :    0.034046
  14 N :    0.260122
  15 O :   -0.186498
  16 O :   -0.203493
  17 H :    1.000000

-------------------------------
LOEWDIN REDUCED ORBITAL CHARGES
-------------------------------
  0 C s       :     2.867518  s :     2.867518
      pz      :     0.940547  p :     3.021291
      px      :     1.013249
      py      :     1.067495
      dz2     :     0.010997  d :     0.102490
      dxz     :     0.014797
      dyz     :     0.017666
      dx2y2   :     0.029990
      dxy     :     0.029038
  1 C s       :     2.863848  s :     2.863848
      pz      :     1.066380  p :     3.059083
      px      :     1.076687
      py      :     0.916016
      dz2     :     0.013761  d :     0.119183
      dxz     :     0.014376
      dyz     :     0.017891
      dx2y2   :     0.042349
      dxy     :     0.030806
  2 C s       :     2.866951  s :     2.866951
      pz      :     0.958572  p :     3.040523
      px      :     1.020309
      py      :     1.061642
      dz2     :     0.007188  d :     0.088211
      dxz     :     0.008975
      dyz     :     0.018259
      dx2y2   :     0.025058
      dxy     :     0.028730
  3 C s       :     2.856347  s :     2.856347
      pz      :     0.996626  p :     3.082915
      px      :     1.035964
      py      :     1.050326
      dz2     :     0.008833  d :     0.091144
      dxz     :     0.010995
      dyz     :     0.015484
      dx2y2   :     0.026067
      dxy     :     0.029765
  4 C s       :     2.861411  s :     2.861411
      pz      :     0.956612  p :     3.040365
      px      :     1.038104
      py      :     1.045649
      dz2     :     0.010698  d :     0.092584
      dxz     :     0.015543
      dyz     :     0.011281
      dx2y2   :     0.029930
      dxy     :     0.025131
  5 C s       :     2.860481  s :     2.860481
      pz      :     0.997067  p :     3.073695
      px      :     1.031530
      py      :     1.045099
      dz2     :     0.007145  d :     0.089073
      dxz     :     0.009797
      dyz     :     0.015630
      dx2y2   :     0.028322
      dxy     :     0.028179
  6 C s       :     2.841552  s :     2.841552
      pz      :     1.060187  p :     3.133939
      px      :     1.026221
      py      :     1.047531
      dz2     :     0.006361  d :     0.071105
      dxz     :     0.017200
      dyz     :     0.019434
      dx2y2   :     0.005947
      dxy     :     0.022162
  7 H s       :     0.898645  s :     0.898645
      pz      :     0.017113  p :     0.068782
      px      :     0.027227
      py      :     0.024442
  8 H s       :     0.890108  s :     0.890108
      pz      :     0.021580  p :     0.072559
      px      :     0.034995
      py      :     0.015984
  9 H s       :     0.909621  s :     0.909621
      pz      :     0.017607  p :     0.062535
      px      :     0.026545
      py      :     0.018382
 10 H s       :     0.886499  s :     0.886499
      pz      :     0.029049  p :     0.064581
      px      :     0.016094
      py      :     0.019437
 11 H s       :     0.896939  s :     0.896939
      pz      :     0.023337  p :     0.064055
      px      :     0.015610
      py      :     0.025107
 12 H s       :     0.897051  s :     0.897051
      pz      :     0.021372  p :     0.069095
      px      :     0.033030
      py      :     0.014692
 13 H s       :     0.897519  s :     0.897519
      pz      :     0.013829  p :     0.068435
      px      :     0.012460
      py      :     0.042146
 14 N s       :     3.026101  s :     3.026101
      pz      :     1.131770  p :     3.446429
      px      :     1.136691
      py      :     1.177968
      dz2     :     0.031995  d :     0.267348
      dxz     :     0.046931
      dyz     :     0.033949
      dx2y2   :     0.083051
      dxy     :     0.071422
 15 O s       :     3.595265  s :     3.595265
      pz      :     1.480020  p :     4.544947
      px      :     1.513326
      py      :     1.551601
      dz2     :     0.006329  d :     0.046286
      dxz     :     0.005999
      dyz     :     0.007691
      dx2y2   :     0.007592
      dxy     :     0.018675
 16 O s       :     3.598198  s :     3.598198
      pz      :     1.401560  p :     4.559234
      px      :     1.385990
      py      :     1.771684
      dz2     :     0.006273  d :     0.046060
      dxz     :     0.015991
      dyz     :     0.003835
      dx2y2   :     0.010658
      dxy     :     0.009303
 17 H s       :     0.000000  s :     0.000000
      pz      :     0.000000  p :     0.000000
      px      :     0.000000
      py      :     0.000000


                      *****************************
                      * MAYER POPULATION ANALYSIS *
                      *****************************

  NA   - Mulliken gross atomic population
  ZA   - Total nuclear charge
  QA   - Mulliken gross atomic charge
  VA   - Mayer's total valence
  BVA  - Mayer's bonded valence
  FA   - Mayer's free valence

  ATOM       NA         ZA         QA         VA         BVA        FA
  0 C      6.1087     6.0000    -0.1087     4.0022     4.0022    -0.0000
  1 C      5.8490     6.0000     0.1510     3.7939     3.7939    -0.0000
  2 C      6.0329     6.0000    -0.0329     3.8402     3.8402     0.0000
  3 C      5.9808     6.0000     0.0192     3.7989     3.7989     0.0000
  4 C      5.9455     6.0000     0.0545     3.7987     3.7987    -0.0000
  5 C      6.0321     6.0000    -0.0321     3.8694     3.8694    -0.0000
  6 C      5.8907     6.0000     0.1093     3.9349     3.9349    -0.0000
  7 H      1.0045     1.0000    -0.0045     0.9797     0.9797    -0.0000
  8 H      1.0004     1.0000    -0.0004     1.0181     1.0181     0.0000
  9 H      0.9910     1.0000     0.0090     0.9885     0.9885     0.0000
 10 H      0.9456     1.0000     0.0544     1.0036     1.0036    -0.0000
 11 H      0.9660     1.0000     0.0340     1.0034     1.0034    -0.0000
 12 H      1.0106     1.0000    -0.0106     0.9898     0.9898    -0.0000
 13 H      1.0010     1.0000    -0.0010     0.9785     0.9785    -0.0000
 14 N      6.7601     7.0000     0.2399     4.0022     4.0022    -0.0000
 15 O      8.2382     8.0000    -0.2382     1.9414     1.9414    -0.0000
 16 O      8.2430     8.0000    -0.2430     1.9520     1.9520    -0.0000
 17 H      0.0000     1.0000     1.0000     0.0000     0.0000    -0.0000

  Mayer bond orders larger than 0.100000
B(  0-C ,  1-C ) :   1.3456 B(  0-C ,  5-C ) :   1.3822 B(  0-C ,  6-C ) :   1.1005 
B(  1-C ,  2-C ) :   1.3456 B(  1-C , 14-N ) :   0.8984 B(  2-C ,  3-C ) :   1.3727 
B(  2-C ,  8-H ) :   0.9859 B(  3-C ,  4-C ) :   1.3546 B(  3-C ,  7-H ) :   0.9873 
B(  4-C ,  5-C ) :   1.3715 B(  4-C , 13-H ) :   0.9876 B(  5-C , 12-H ) :   0.9893 
B(  6-C ,  9-H ) :   0.9441 B(  6-C , 10-H ) :   0.9369 B(  6-C , 11-H ) :   0.9402 
B( 14-N , 15-O ) :   1.5245 B( 14-N , 16-O ) :   1.5532 B( 15-O , 16-O ) :   0.2543 


-------
TIMINGS
-------

Total SCF time: 0 days 10 hours 34 min 12 sec 

Total time                  ....   38052.125 sec
Sum of individual times     ....   38050.488 sec  (100.0%)

Fock matrix formation       ....   38044.423 sec  (100.0%)
  XC integration            ....      66.633 sec  (  0.2% of F)
    Basis function eval.    ....      19.755 sec  ( 29.6% of XC)
    Density eval.           ....      16.887 sec  ( 25.3% of XC)
    XC-Functional eval.     ....       3.889 sec  (  5.8% of XC)
    XC-Potential eval.      ....      21.373 sec  ( 32.1% of XC)
Diagonalization             ....       1.412 sec  (  0.0%)
Density matrix formation    ....       0.158 sec  (  0.0%)
Population analysis         ....       0.022 sec  (  0.0%)
Initial guess               ....       0.009 sec  (  0.0%)
Orbital Transformation      ....       0.000 sec  (  0.0%)
Orbital Orthonormalization  ....       0.005 sec  (  0.0%)
DIIS solution               ....       2.394 sec  (  0.0%)
SOSCF solution              ....       0.226 sec  (  0.0%)
Grid generation             ....       1.844 sec  (  0.0%)


-------------------------------------------------------------------------------
                          DFT DISPERSION CORRECTION                            
                                                                               
                                 DFTD4 V2.0                                    
-------------------------------------------------------------------------------
The B3LYP functional is recognized
Active option DFTDOPT                   ...         5   

-------------------------   ----------------
Dispersion correction           -0.027330169
-------------------------   ----------------


-------------------------   --------------------
FINAL SINGLE POINT ENERGY      -475.467488914357
-------------------------   --------------------


                            ***************************************
                            *     ORCA property calculations      *
                            ***************************************

                                    ---------------------
                                    Active property flags
                                    ---------------------
   (+) Dipole Moment


------------------------------------------------------------------------------
                       ORCA ELECTRIC PROPERTIES CALCULATION
------------------------------------------------------------------------------

Dipole Moment Calculation                       ... on
Quadrupole Moment Calculation                   ... off
Polarizability Calculation                      ... off
GBWName                                         ... products_freq.gbw
Electron density file                           ... products_freq.scfp
The origin for moment calculation is the CENTER OF MASS  = (-3.663041,  4.848583 -0.019978)

-------------
DIPOLE MOMENT
-------------
                                X             Y             Z
Electronic contribution:     -9.26843       4.31147       2.42203
Nuclear contribution   :      0.32258      -6.41731       8.23480
                        -----------------------------------------
Total Dipole Moment    :     -8.94585      -2.10584      10.65683
                        -----------------------------------------
Magnitude (a.u.)       :     14.07234
Magnitude (Debye)      :     35.76904



--------------------
Rotational spectrum 
--------------------
 
Rotational constants in cm-1:     0.061444     0.036625     0.026796 
Rotational constants in MHz :  1842.050832  1097.997740   803.313740 

 Dipole components along the rotational axes: 
x,y,z [a.u.] :     3.059503    -4.333012    13.034382 
x,y,z [Debye]:     7.776638   -11.013641    33.130766 

 

-------------------------------------------------------------------------------
                               ORCA SCF HESSIAN
-------------------------------------------------------------------------------

Hessian of the Kohn-Sham DFT energy:
Kohn-Sham wavefunction type                      ... RKS
Hartree-Fock exchange scaling                    ...    0.200
Number of operators                              ...    1
Number of atoms                                  ...   18
Basis set dimensions                             ...  180
Integral neglect threshold                       ... 1.0e-10
Integral primitive cutoff                        ... 1.0e-11

Setting up DFT Hessian calculations              ... 
Electron density on the grid                     ... found on disk
Electron density on the final grid               ... found on disk
Building xc-kernel on the grid                   ... done   (      0.0 sec)
Building xc-kernel on the final grid             ... done   (      0.2 sec)
                                                     done   (      0.4 sec)

Nuclear repulsion Hessian                        ... done   (      0.0 sec)

----------------------------------------------
Forming right-hand sides of CP-SCF equations     ...
----------------------------------------------
One electron integral derivatives                ... done   (      0.8 sec)
Transforming the overlap derivative matrices     ... done   (      0.1 sec)
Making the Q(x) pseudodensities                  ... done   (      0.1 sec)
Adding the E*S(x)*S(y) terms to the Hessian      ... done   (      0.2 sec)
Calculating energy weighted overlap derivatives  ... done   (      1.6 sec)
Two electron integral derivatives                ... done   (     37.5 sec)
Exchange-correlation integral derivatives        ... done   (     76.6 sec)
tr(F(y)Q(x)) contribution to the Hessian         ... done   (      0.0 sec)
Response fock operator R(S(x))                   ... done   (    382.6 sec)
XC Response fock operator R(S(x))                ... done   (     41.5 sec)
tr(F(y)S(x)) contribution to the Hessian         ... done   (      0.0 sec)
Transforming and finalizing RHSs                 ... done   (      0.1 sec)

----------------------------------------------
Solving the CP-SCF equations                     ...
----------------------------------------------
     CP-SCF ITERATION   0: 
     CP-SCF ITERATION   1:      0.008940792332
     CP-SCF ITERATION   2:      0.001130142924
     CP-SCF ITERATION   3:      0.000281032160
     CP-SCF ITERATION   4:      0.000064460735
     CP-SCF ITERATION   5:      0.000017654590
     CP-SCF ITERATION   6:      0.000001441570
     CP-SCF ITERATION   7:      0.000000976301

                                                 ... done   (   3816.3 sec)
Forming perturbed density Hessian contributions  ... done   (      0.1 sec)
Making the perturbed densities                   ... done   (      0.2 sec)
2nd integral derivative contribs                 ... done   (    403.0 sec)
Exchange-correlation Hessian                     ... done   (    186.6 sec)
Dispersion correction in the Hessian             ... 

------------------- 
Dispersion Gradient 
------------------- 
   1  :    0.000364769   -0.000056088    0.000206612
   2  :   -0.000202919    0.000244424   -0.000140571
   3  :   -0.000492615   -0.000243858   -0.000247155
   4  :   -0.000333704   -0.000520469   -0.000127071
   5  :   -0.000036641   -0.000600037    0.000046895
   6  :    0.000285940   -0.000486000    0.000212370
   7  :    0.000648668    0.000242181    0.000332926
   8  :   -0.000117626   -0.000124997   -0.000049564
   9  :   -0.000193316    0.000004111   -0.000106202
  10  :    0.000173908    0.000034256    0.000092977
  11  :    0.000196852    0.000105341   -0.000001538
  12  :    0.000113847    0.000123290    0.000149590
  13  :    0.000139825   -0.000132097    0.000093251
  14  :    0.000009496   -0.000172605    0.000026088
  15  :   -0.000262938    0.000612452   -0.000214857
  16  :    0.000000298    0.000571061   -0.000064428
  17  :   -0.000294458    0.000396976   -0.000208012
  18  :    0.000001346   -0.000000815   -0.000000615

  |G| =    0.010860951



------------------- 
Dispersion Gradient 
------------------- 
   1  :    0.000362108   -0.000056695    0.000206145
   2  :   -0.000202900    0.000244402   -0.000140586
   3  :   -0.000492009   -0.000243756   -0.000246908
   4  :   -0.000333120   -0.000520149   -0.000126917
   5  :   -0.000036432   -0.000599895    0.000046916
   6  :    0.000285952   -0.000486035    0.000212382
   7  :    0.000648600    0.000242132    0.000332905
   8  :   -0.000117699   -0.000125114   -0.000049620
   9  :   -0.000193386    0.000004115   -0.000106289
  10  :    0.000174075    0.000034248    0.000093033
  11  :    0.000196972    0.000105395   -0.000001578
  12  :    0.000113913    0.000123340    0.000149633
  13  :    0.000139905   -0.000132136    0.000093261
  14  :    0.000009574   -0.000172639    0.000026085
  15  :   -0.000262596    0.000612200   -0.000214733
  16  :    0.000000554    0.000570943   -0.000064398
  17  :   -0.000294523    0.000397254   -0.000208203
  18  :    0.000001346   -0.000000816   -0.000000615

  |G| =    0.010857139



------------------- 
Dispersion Gradient 
------------------- 
   1  :    0.000363743   -0.000054772    0.000206461
   2  :   -0.000202909    0.000244385   -0.000140578
   3  :   -0.000492352   -0.000243892   -0.000247053
   4  :   -0.000333569   -0.000520578   -0.000127064
   5  :   -0.000036620   -0.000600271    0.000046885
   6  :    0.000285941   -0.000486042    0.000212375
   7  :    0.000648653    0.000242181    0.000332926
   8  :   -0.000117603   -0.000125026   -0.000049564
   9  :   -0.000193345    0.000004070   -0.000106243
  10  :    0.000173975    0.000034234    0.000092994
  11  :    0.000196895    0.000105315   -0.000001536
  12  :    0.000113887    0.000123255    0.000149587
  13  :    0.000139889   -0.000132178    0.000093272
  14  :    0.000009554   -0.000172563    0.000026086
  15  :   -0.000262646    0.000612063   -0.000214708
  16  :    0.000000479    0.000570639   -0.000064356
  17  :   -0.000294625    0.000397142   -0.000208198
  18  :    0.000001346   -0.000000816   -0.000000615

  |G| =    0.010857954



------------------- 
Dispersion Gradient 
------------------- 
   1  :    0.000363135   -0.000058010    0.000206298
   2  :   -0.000202911    0.000244441   -0.000140579
   3  :   -0.000492272   -0.000243722   -0.000247011
   4  :   -0.000333255   -0.000520041   -0.000126924
   5  :   -0.000036453   -0.000599662    0.000046926
   6  :    0.000285951   -0.000485993    0.000212377
   7  :    0.000648615    0.000242133    0.000332905
   8  :   -0.000117723   -0.000125084   -0.000049619
   9  :   -0.000193356    0.000004156   -0.000106249
  10  :    0.000174009    0.000034271    0.000093016
  11  :    0.000196929    0.000105421   -0.000001580
  12  :    0.000113873    0.000123374    0.000149635
  13  :    0.000139841   -0.000132055    0.000093240
  14  :    0.000009516   -0.000172681    0.000026087
  15  :   -0.000262888    0.000612590   -0.000214883
  16  :    0.000000374    0.000571365   -0.000064470
  17  :   -0.000294356    0.000397088   -0.000208017
  18  :    0.000001346   -0.000000816   -0.000000616

  |G| =    0.010860140



------------------- 
Dispersion Gradient 
------------------- 
   1  :    0.000363674   -0.000056309    0.000207345
   2  :   -0.000202901    0.000244418   -0.000140598
   3  :   -0.000492435   -0.000243834   -0.000247169
   4  :   -0.000333490   -0.000520382   -0.000127149
   5  :   -0.000036545   -0.000599978    0.000046830
   6  :    0.000285942   -0.000486004    0.000212374
   7  :    0.000648645    0.000242170    0.000332933
   8  :   -0.000117635   -0.000125029   -0.000049605
   9  :   -0.000193309    0.000004112   -0.000106265
  10  :    0.000173966    0.000034253    0.000092956
  11  :    0.000196907    0.000105363   -0.000001587
  12  :    0.000113879    0.000123294    0.000149561
  13  :    0.000139860   -0.000132103    0.000093216
  14  :    0.000009536   -0.000172625    0.000026043
  15  :   -0.000262828    0.000612416   -0.000214924
  16  :    0.000000412    0.000571063   -0.000064540
  17  :   -0.000294396    0.000397023   -0.000208156
  18  :    0.000001345   -0.000000816   -0.000000615

  |G| =    0.010860762



------------------- 
Dispersion Gradient 
------------------- 
   1  :    0.000363207   -0.000056472    0.000205415
   2  :   -0.000202919    0.000244408   -0.000140560
   3  :   -0.000492188   -0.000243781   -0.000246895
   4  :   -0.000333334   -0.000520237   -0.000126840
   5  :   -0.000036528   -0.000599953    0.000046981
   6  :    0.000285950   -0.000486030    0.000212378
   7  :    0.000648624    0.000242144    0.000332899
   8  :   -0.000117691   -0.000125082   -0.000049578
   9  :   -0.000193393    0.000004114   -0.000106227
  10  :    0.000174017    0.000034252    0.000093053
  11  :    0.000196917    0.000105373   -0.000001529
  12  :    0.000113881    0.000123335    0.000149661
  13  :    0.000139870   -0.000132130    0.000093296
  14  :    0.000009534   -0.000172620    0.000026130
  15  :   -0.000262706    0.000612236   -0.000214666
  16  :    0.000000441    0.000570941   -0.000064286
  17  :   -0.000294585    0.000397208   -0.000208059
  18  :    0.000001347   -0.000000816   -0.000000615

  |G| =    0.010857333



------------------- 
Dispersion Gradient 
------------------- 
   1  :    0.000363439   -0.000056397    0.000206394
   2  :   -0.000201893    0.000244431   -0.000140428
   3  :   -0.000492318   -0.000243810   -0.000247030
   4  :   -0.000333518   -0.000520403   -0.000127006
   5  :   -0.000036660   -0.000599929    0.000046896
   6  :    0.000285783   -0.000485884    0.000212309
   7  :    0.000648310    0.000242112    0.000332777
   8  :   -0.000117682   -0.000125013   -0.000049583
   9  :   -0.000193401    0.000004108   -0.000106252
  10  :    0.000174038    0.000034249    0.000093055
  11  :    0.000196829    0.000105356   -0.000001560
  12  :    0.000113813    0.000123300    0.000149591
  13  :    0.000139861   -0.000132162    0.000093283
  14  :    0.000009510   -0.000172636    0.000026088
  15  :   -0.000262785    0.000612321   -0.000214794
  16  :    0.000000371    0.000570944   -0.000064415
  17  :   -0.000294579    0.000397175   -0.000208141
  18  :    0.000001347   -0.000000816   -0.000000616

  |G| =    0.010857406



------------------- 
Dispersion Gradient 
------------------- 
   1  :    0.000363442   -0.000056384    0.000206366
   2  :   -0.000203927    0.000244394   -0.000140729
   3  :   -0.000492305   -0.000243804   -0.000247034
   4  :   -0.000333306   -0.000520216   -0.000126983
   5  :   -0.000036412   -0.000600002    0.000046915
   6  :    0.000286109   -0.000486151    0.000212443
   7  :    0.000648959    0.000242202    0.000333055
   8  :   -0.000117643   -0.000125097   -0.000049600
   9  :   -0.000193301    0.000004118   -0.000106240
  10  :    0.000173944    0.000034256    0.000092954
  11  :    0.000196994    0.000105379   -0.000001555
  12  :    0.000113947    0.000123329    0.000149631
  13  :    0.000139868   -0.000132071    0.000093229
  14  :    0.000009560   -0.000172609    0.000026085
  15  :   -0.000262749    0.000612331   -0.000214796
  16  :    0.000000482    0.000571061   -0.000064412
  17  :   -0.000294403    0.000397057   -0.000208074
  18  :    0.000001345   -0.000000816   -0.000000614

  |G| =    0.010860686



------------------- 
Dispersion Gradient 
------------------- 
   1  :    0.000363447   -0.000056414    0.000206382
   2  :   -0.000202891    0.000245997   -0.000140661
   3  :   -0.000492317   -0.000243826   -0.000247034
   4  :   -0.000333502   -0.000520650   -0.000127014
   5  :   -0.000036500   -0.000600398    0.000046961
   6  :    0.000286071   -0.000486280    0.000212467
   7  :    0.000648585    0.000242075    0.000332891
   8  :   -0.000117619   -0.000125016   -0.000049576
   9  :   -0.000193369    0.000004082   -0.000106257
  10  :    0.000173985    0.000034211    0.000093001
  11  :    0.000196906    0.000105319   -0.000001562
  12  :    0.000113873    0.000123266    0.000149606
  13  :    0.000139818   -0.000132110    0.000093225
  14  :    0.000009520   -0.000172525    0.000026065
  15  :   -0.000262770    0.000612304   -0.000214797
  16  :    0.000000386    0.000570749   -0.000064411
  17  :   -0.000294447    0.000396981   -0.000208072
  18  :    0.000001346   -0.000000816   -0.000000615

  |G| =    0.010860973



------------------- 
Dispersion Gradient 
------------------- 
   1  :    0.000363434   -0.000056367    0.000206378
   2  :   -0.000202928    0.000242825   -0.000140496
   3  :   -0.000492305   -0.000243789   -0.000247029
   4  :   -0.000333322   -0.000519969   -0.000126975
   5  :   -0.000036573   -0.000599533    0.000046849
   6  :    0.000285821   -0.000485755    0.000212285
[...]
      1       0.063113  -0.100185  -0.158475   0.216908  -0.034040  -0.000522
      2       0.094346   0.005302   0.106702   0.011995  -0.014461  -0.000101
      3      -0.137635  -0.034365  -0.194308  -0.131646   0.078501  -0.000733
      4       0.108431   0.128507   0.000353  -0.158366   0.026729   0.000551
      5      -0.088878  -0.032627  -0.108047  -0.054721   0.040478  -0.000492
      6      -0.024161   0.029313   0.114343   0.094329  -0.026744   0.000163
      7      -0.196144  -0.034685  -0.066625   0.331076   0.000311  -0.000002
      8       0.008917   0.020550   0.071027   0.014811  -0.015180   0.000098
      9       0.065281  -0.075770  -0.277611  -0.010780   0.019657  -0.000099
     10       0.091201   0.078457   0.228793  -0.233303  -0.008333   0.000005
     11       0.026044  -0.050764  -0.179817   0.019946   0.011947  -0.000049
     12      -0.079863   0.045196   0.341649   0.189546  -0.016266   0.000169
     13       0.047625  -0.057761  -0.046203   0.181225  -0.004392   0.000297
     14      -0.049459   0.031876   0.194511   0.084554  -0.008479   0.000057
     15      -0.054523   0.017075  -0.120390  -0.158387   0.014732  -0.000755
     16      -0.174211   0.109622   0.078320  -0.331351   0.020797  -0.000723
     17      -0.010777  -0.002860  -0.075393  -0.050424   0.005856  -0.000351
     18      -0.057121  -0.005023  -0.018039  -0.019562  -0.005013   0.036417
     19      -0.018897   0.020196   0.016241  -0.022091   0.010573   0.029218
     20      -0.029241  -0.005006  -0.011771  -0.008417  -0.004002   0.018950
     21       0.063901   0.097679   0.126144  -0.248926  -0.009358  -0.000381
     22       0.132111  -0.172628  -0.376753   0.063713   0.034509  -0.000244
     23       0.019706   0.073737   0.112878  -0.142469  -0.009099  -0.000163
     24       0.195565   0.033449   0.107743  -0.120101  -0.027537   0.000479
     25       0.469332  -0.056625  -0.147113  -0.334850   0.064873   0.000538
     26       0.053771   0.024107   0.075293  -0.027468  -0.021857   0.000220
     27      -0.040371   0.025801  -0.094627   0.056415   0.033105  -0.423907
     28      -0.001560   0.059843  -0.118631   0.104447   0.050659   0.317259
     29      -0.026692   0.007473  -0.040085   0.021170   0.011648  -0.269006
     30       0.076230   0.117934   0.037870   0.013908   0.074459  -0.218759
     31      -0.019834  -0.032541   0.074736  -0.087630  -0.032410  -0.275438
     32       0.037181   0.024503   0.055194  -0.039006   0.021126   0.426514
     33       0.063609   0.081143   0.072213  -0.033046   0.054259   0.225799
     34      -0.019273  -0.024909   0.066883  -0.079628  -0.028166  -0.384123
     35       0.044559   0.091078  -0.010409   0.047273   0.055636  -0.374860
     36       0.224116  -0.101721  -0.203998   0.098653  -0.008519   0.006022
     37       0.552986  -0.188360  -0.089956   0.367608  -0.033956  -0.001086
     38       0.061876  -0.035064  -0.103922   0.012812  -0.000886   0.003527
     39       0.323263  -0.054718  -0.343559  -0.271758   0.014240   0.000371
     40       0.148704  -0.092119  -0.213818   0.107489   0.002356   0.000536
     41       0.161860  -0.019924  -0.165594  -0.162307   0.007724   0.000154
     42       0.002402   0.128749  -0.034064  -0.006144  -0.696206   0.000107
     43      -0.030107  -0.609170   0.070201  -0.067987  -0.218898  -0.000188
     44       0.004871   0.138592  -0.026567   0.004000  -0.361033   0.000091
     45       0.007878   0.266644  -0.021970   0.043514   0.269850  -0.000187
     46       0.015275   0.310454  -0.019290   0.055655   0.272036   0.000093
     47       0.002584   0.112981  -0.010105   0.017856   0.118054  -0.000150
     48       0.012216  -0.366014   0.066315  -0.028339   0.307881  -0.000143
     49      -0.009222   0.146954  -0.030825   0.006891  -0.092763   0.000013
     50       0.007761  -0.219588   0.040262  -0.016407   0.182099  -0.000072
     51       0.000463   0.002617  -0.000198  -0.000031  -0.001919   0.000024
     52      -0.000234  -0.005379   0.000165   0.000313  -0.000286   0.000019
     53       0.000311  -0.000170   0.000377  -0.000019  -0.004002   0.000052
                 48         49         50         51         52         53    
      0       0.000552   0.000319   0.000091   0.000151  -0.000302   0.000307
      1       0.001407   0.000133   0.002235   0.001910   0.001703   0.000515
      2       0.000208  -0.000291  -0.000211  -0.000154  -0.000375   0.000108
      3       0.000088  -0.000232  -0.000427   0.000063  -0.001464   0.001663
      4       0.000366   0.000098  -0.000358   0.000575  -0.001237   0.001804
      5      -0.000036   0.000339  -0.000205  -0.000032  -0.000648   0.000686
      6       0.000149   0.000064   0.010557  -0.023244   0.044897  -0.049991
      7       0.000094  -0.000022  -0.002704   0.005975  -0.015021   0.019925
      8       0.000083  -0.000104   0.006137  -0.013490   0.026496  -0.029896
      9       0.000051   0.000018  -0.022452   0.042596  -0.012750  -0.035643
     10      -0.000052   0.000006  -0.022135   0.039318  -0.006416  -0.033897
     11       0.000048  -0.000081  -0.009924   0.019146  -0.006337  -0.015963
     12       0.000132   0.000099  -0.006357  -0.001634   0.006562   0.005744
     13      -0.000096  -0.000016   0.046569  -0.015864  -0.060027  -0.036741
     14       0.000096  -0.000074  -0.008829   0.000894   0.010423   0.007305
     15       0.000910   0.000261   0.048325   0.042732   0.024747   0.013023
     16      -0.000522  -0.000165  -0.022782  -0.018250  -0.008228  -0.003717
     17       0.000613  -0.000399   0.029348   0.025734   0.014614   0.007624
     18      -0.050371   0.041566   0.000546   0.000458   0.000253   0.000099
     19       0.073655  -0.001756  -0.000217  -0.000252  -0.000169  -0.000009
     20      -0.026468  -0.083831   0.000311   0.000274   0.000163   0.000071
     21      -0.000144  -0.000038   0.270726  -0.488563   0.116530   0.392202
     22      -0.000493  -0.000056   0.253065  -0.455090   0.103733   0.365396
     23      -0.000014  -0.000037   0.121757  -0.219892   0.052943   0.176631
     24      -0.000209   0.000033  -0.124200   0.268320  -0.512700   0.566661
     25       0.000293  -0.000002   0.043897  -0.094634   0.183569  -0.206036
     26      -0.000131  -0.000057  -0.073703   0.159186  -0.304535   0.336979
     27       0.571691   0.049094  -0.007057  -0.005752  -0.002957  -0.001295
     28      -0.417434  -0.032674   0.003672   0.002773   0.001763   0.000421
     29       0.365200   0.016012  -0.004326  -0.003514  -0.001851  -0.000753
     30      -0.156140  -0.301990  -0.000455  -0.000551  -0.000365  -0.000268
     31      -0.166151  -0.385256  -0.000189  -0.000042  -0.000215  -0.000309
     32       0.270057   0.570355  -0.000230  -0.000644  -0.000269   0.000049
     33       0.176028  -0.244016  -0.000538  -0.000834  -0.000408  -0.000127
     34      -0.310702   0.437670  -0.000041   0.000028  -0.000247  -0.000403
     35      -0.323029   0.414104  -0.000103  -0.000145  -0.000192  -0.000233
     36      -0.008309  -0.000582  -0.565831  -0.481982  -0.261958  -0.132996
     37       0.001371   0.000130   0.246265   0.208462   0.110824   0.055555
     38      -0.004702  -0.000274  -0.340794  -0.290126  -0.157368  -0.079816
     39      -0.000058  -0.000132   0.066435  -0.017333  -0.078660  -0.048852
     40      -0.000693   0.000118  -0.553647   0.175599   0.670575   0.401811
     41       0.000047   0.000147   0.099122  -0.029374  -0.119036  -0.072237
     42       0.000678  -0.000015   0.000210  -0.000368   0.000762  -0.000813
     43       0.000237  -0.000028   0.000150   0.000131  -0.000051   0.000214
     44       0.000342   0.000136   0.000102  -0.000217   0.000428  -0.000470
     45      -0.000511  -0.000249  -0.000075   0.000014  -0.000135   0.000089
     46      -0.000087   0.000072  -0.000034  -0.000039   0.000034  -0.000126
     47      -0.000337   0.000356  -0.000037   0.000008  -0.000080   0.000068
     48      -0.000402   0.000013  -0.000104   0.000202  -0.000379   0.000419
     49      -0.000003   0.000005  -0.000114   0.000118  -0.000288   0.000233
     50      -0.000215  -0.000100  -0.000041   0.000102  -0.000169   0.000198
     51      -0.000010  -0.000014   0.000014   0.000060   0.000002   0.000040
     52       0.000045  -0.000217  -0.000007   0.000020  -0.000053  -0.000062
     53      -0.000085  -0.000029  -0.000002   0.000052   0.000026  -0.000058


-----------
IR SPECTRUM
-----------

 Mode    freq (cm**-1)   T**2         TX         TY         TZ
-------------------------------------------------------------------
   8:        21.72  846.780512  (-23.072154  16.978509   5.117271)
   9:        24.24  696.262259  ( 12.976190  15.061849  17.349970)
  10:       126.66    2.489908  (  0.354230   1.377045   0.684234)
  11:       211.30    2.777568  (  1.380779   0.057800   0.931491)
  12:       231.79    1.423275  (  0.554075  -0.058548   1.054916)
  13:       363.48    1.399857  ( -0.584470   0.916433  -0.467336)
  14:       374.34    0.867809  (  0.817424  -0.429283   0.123867)
  15:       398.10    0.628655  ( -0.292566  -0.729064  -0.107356)
  16:       438.46    0.488217  (  0.109325   0.341087  -0.599938)
  17:       514.50    6.056257  (  1.011021  -0.422322  -2.203574)
  18:       529.91    0.181919  ( -0.222280  -0.361850  -0.039687)
  19:       563.32    0.229388  (  0.079259   0.471054  -0.034854)
  20:       687.62    9.085300  (  0.644349  -2.867855   0.667473)
  21:       700.49   35.838973  ( -2.803769   0.693734   5.243719)
  22:       715.29   18.660439  (  2.134504  -0.375209  -3.736784)
  23:       777.71    0.903968  ( -0.417215   0.056900   0.852445)
  24:       810.93    3.166086  ( -0.812286   1.474251  -0.576941)
  25:       861.88    0.048212  ( -0.195045   0.008649  -0.100472)
  26:       930.94   52.276750  (  1.427456  -6.916722   1.548573)
  27:       970.83    0.642716  ( -0.335246  -0.042124   0.727016)
  28:      1005.10    0.011029  (  0.098864  -0.008988  -0.034271)
  29:      1018.10    0.670899  (  0.490341  -0.585168   0.296721)
  30:      1068.43    5.839490  (  1.153249   2.088964   0.381755)
  31:      1083.98    2.602585  (  0.740276  -0.181675  -1.421819)
  32:      1127.56    8.171637  ( -0.824741  -2.732221  -0.162500)
  33:      1159.78    5.608767  ( -1.277987   1.770691  -0.916608)
  34:      1193.85   17.348392  ( -1.328360   3.776238  -1.150600)
  35:      1210.98   16.891928  (  1.301199  -3.731464   1.129154)
  36:      1276.15    3.557315  ( -0.350712  -1.853187   0.003402)
  37:      1337.69   13.683617  ( -3.131650  -1.068121  -1.653935)
  38:      1408.04    5.637539  ( -0.552081   2.273037  -0.407488)
  39:      1448.60    4.033124  (  1.563771  -0.812430   0.963172)
  40:      1472.24    7.218441  ( -1.487024   0.281028   2.219960)
  41:      1479.25    5.731593  ( -2.153364  -0.132249  -1.037848)
  42:      1486.44   14.492899  (  3.331752  -0.056235   1.840968)
  43:      1588.77  284.248674  (  3.572186 -16.040925   3.765222)
  44:      1628.10    0.082332  ( -0.227748  -0.158161  -0.073813)
  45:      1643.93    3.782551  (  0.535587   1.867933   0.080768)
  46:      1854.02  261.800001  (-13.950514  -3.618388  -7.354619)
  47:      2955.41    8.426956  (  2.169333   0.521964   1.857015)
  48:      3026.19   18.159820  ( -3.521035   1.848549  -1.531339)
  49:      3048.33    2.403151  (  0.210820  -0.510761  -1.448389)
  50:      3274.06    0.366547  (  0.214214   0.559878   0.084828)
  51:      3282.75    5.194090  (  1.991303   0.199473   1.090419)
  52:      3293.47    2.077493  ( -0.199534  -1.425456   0.075866)
  53:      3300.44    4.407330  (  0.008004  -2.070923   0.344304)

The first frequency considered to be a vibration is 8
The total number of vibrations considered is 46


--------------------------
THERMOCHEMISTRY AT 298.15K
--------------------------

Temperature         ... 298.15 K
Pressure            ... 1.00 atm
Total Mass          ... 138.15 AMU

Throughout the following assumptions are being made:
  (1) The electronic state is orbitally nondegenerate
  (2) There are no thermally accessible electronically excited states
  (3) Hindered rotations indicated by low frequency modes are not
      treated as such but are treated as vibrations and this may
      cause some error
  (4) All equations used are the standard statistical mechanics
      equations for an ideal gas
  (5) All vibrations are strictly harmonic

freq.      21.72  E(vib)   ...       0.56 
freq.      24.24  E(vib)   ...       0.56 
freq.     126.66  E(vib)   ...       0.43 
freq.     211.30  E(vib)   ...       0.34 
freq.     231.79  E(vib)   ...       0.32 
freq.     363.48  E(vib)   ...       0.22 
freq.     374.34  E(vib)   ...       0.21 
freq.     398.10  E(vib)   ...       0.20 
freq.     438.46  E(vib)   ...       0.17 
freq.     514.50  E(vib)   ...       0.13 
freq.     529.91  E(vib)   ...       0.13 
freq.     563.32  E(vib)   ...       0.11 
freq.     687.62  E(vib)   ...       0.07 
freq.     700.49  E(vib)   ...       0.07 
freq.     715.29  E(vib)   ...       0.07 
freq.     777.71  E(vib)   ...       0.05 
freq.     810.93  E(vib)   ...       0.05 
freq.     861.88  E(vib)   ...       0.04 
freq.     930.94  E(vib)   ...       0.03 
freq.     970.83  E(vib)   ...       0.03 
freq.    1005.10  E(vib)   ...       0.02 
freq.    1018.10  E(vib)   ...       0.02 
freq.    1068.43  E(vib)   ...       0.02 
freq.    1083.98  E(vib)   ...       0.02 
freq.    1127.56  E(vib)   ...       0.01 
freq.    1159.78  E(vib)   ...       0.01 
freq.    1193.85  E(vib)   ...       0.01 
freq.    1210.98  E(vib)   ...       0.01 
freq.    1276.15  E(vib)   ...       0.01 
freq.    1337.69  E(vib)   ...       0.01 
freq.    1408.04  E(vib)   ...       0.00 
freq.    1448.60  E(vib)   ...       0.00 
freq.    1472.24  E(vib)   ...       0.00 
freq.    1479.25  E(vib)   ...       0.00 
freq.    1486.44  E(vib)   ...       0.00 
freq.    1588.77  E(vib)   ...       0.00 
freq.    1628.10  E(vib)   ...       0.00 
freq.    1643.93  E(vib)   ...       0.00 
freq.    1854.02  E(vib)   ...       0.00 
freq.    2955.41  E(vib)   ...       0.00 
freq.    3026.19  E(vib)   ...       0.00 
freq.    3048.33  E(vib)   ...       0.00 
freq.    3274.06  E(vib)   ...       0.00 
freq.    3282.75  E(vib)   ...       0.00 
freq.    3293.47  E(vib)   ...       0.00 
freq.    3300.44  E(vib)   ...       0.00 

------------
INNER ENERGY
------------

The inner energy is: U= E(el) + E(ZPE) + E(vib) + E(rot) + E(trans)
    E(el)   - is the total energy from the electronic structure calculation
              = E(kin-el) + E(nuc-el) + E(el-el) + E(nuc-nuc)
    E(ZPE)  - the the zero temperature vibrational energy from the frequency calculation
    E(vib)  - the the finite temperature correction to E(ZPE) due to population
              of excited vibrational states
    E(rot)  - is the rotational thermal energy
    E(trans)- is the translational thermal energy

Summary of contributions to the inner energy U:
Electronic energy                ...   -475.46748891 Eh
Zero point energy                ...      0.13196322 Eh      82.81 kcal/mol
Thermal vibrational correction   ...      0.00630185 Eh       3.95 kcal/mol
Thermal rotational correction    ...      0.00141627 Eh       0.89 kcal/mol
Thermal translational correction ...      0.00141627 Eh       0.89 kcal/mol
-----------------------------------------------------------------------
Total thermal energy                   -475.32639130 Eh


Summary of corrections to the electronic energy:
(perhaps to be used in another calculation)
Total thermal correction                  0.00913440 Eh       5.73 kcal/mol
Non-thermal (ZPE) correction              0.13196322 Eh      82.81 kcal/mol
-----------------------------------------------------------------------
Total correction                          0.14109762 Eh      88.54 kcal/mol


--------
ENTHALPY
--------

The enthalpy is H = U + kB*T
                kB is Boltzmann's constant
Total free energy                 ...   -475.32639130 Eh 
Thermal Enthalpy correction       ...      0.00094421 Eh       0.59 kcal/mol
-----------------------------------------------------------------------
Total Enthalpy                    ...   -475.32544709 Eh


Note: Only C1 symmetry has been detected, increase convergence thresholds 
      if your molecule has a higher symmetry. Symmetry factor of 1.0 is   
      used for the rotational entropy correction. 
 

Note: Rotational entropy computed according to Herzberg 
Infrared and Raman Spectra, Chapter V,1, Van Nostrand Reinhold, 1945 
Point Group:  C1, Symmetry Number:   1  
Rotational constants in cm-1:     0.061444     0.036625     0.026796 

Vibrational entropy computed according to the QRRHO of S. Grimme
Chem.Eur.J. 2012 18 9955


-------
ENTROPY
-------

The entropy contributions are T*S = T*(S(el)+S(vib)+S(rot)+S(trans))
     S(el)   - electronic entropy
     S(vib)  - vibrational entropy
     S(rot)  - rotational entropy
     S(trans)- translational entropy
The entropies will be listed as mutliplied by the temperature to get
units of energy

Electronic entropy                ...      0.00000000 Eh      0.00 kcal/mol
Vibrational entropy               ...      0.01118299 Eh      7.02 kcal/mol
Rotational entropy                ...      0.01409772 Eh      8.85 kcal/mol
Translational entropy             ...      0.01932890 Eh     12.13 kcal/mol
-----------------------------------------------------------------------
Final entropy term                ...      0.04460960 Eh     27.99 kcal/mol

In case the symmetry of your molecule has not been determined correctly
or in case you have a reason to use a different symmetry number we print 
out the resulting rotational entropy values for sn=1,12 :
 --------------------------------------------------------
|  sn= 1 | S(rot)=       0.01409772 Eh      8.85 kcal/mol|
|  sn= 2 | S(rot)=       0.01344326 Eh      8.44 kcal/mol|
|  sn= 3 | S(rot)=       0.01306043 Eh      8.20 kcal/mol|
|  sn= 4 | S(rot)=       0.01278880 Eh      8.03 kcal/mol|
|  sn= 5 | S(rot)=       0.01257812 Eh      7.89 kcal/mol|
|  sn= 6 | S(rot)=       0.01240597 Eh      7.78 kcal/mol|
|  sn= 7 | S(rot)=       0.01226042 Eh      7.69 kcal/mol|
|  sn= 8 | S(rot)=       0.01213435 Eh      7.61 kcal/mol|
|  sn= 9 | S(rot)=       0.01202314 Eh      7.54 kcal/mol|
|  sn=10 | S(rot)=       0.01192366 Eh      7.48 kcal/mol|
|  sn=11 | S(rot)=       0.01183367 Eh      7.43 kcal/mol|
|  sn=12 | S(rot)=       0.01175151 Eh      7.37 kcal/mol|
 --------------------------------------------------------


-------------------
GIBBS FREE ENERGY
-------------------

The Gibbs free energy is G = H - T*S

Total enthalpy                    ...   -475.32544709 Eh 
Total entropy correction          ...     -0.04460960 Eh    -27.99 kcal/mol
-----------------------------------------------------------------------
Final Gibbs free energy         ...   -475.37005669 Eh

For completeness - the Gibbs free energy minus the electronic energy
G-E(el)                           ...      0.09743223 Eh     61.14 kcal/mol


Timings for individual modules:

Sum of individual times         ...    43036.301 sec (= 717.272 min)
GTO integral calculation        ...        0.353 sec (=   0.006 min)   0.0 %
SCF iterations                  ...    38052.170 sec (= 634.203 min)  88.4 %
Analytical frequency calculation...     4983.778 sec (=  83.063 min)  11.6 %
                             ****ORCA TERMINATED NORMALLY****
TOTAL RUN TIME: 0 days 11 hours 57 minutes 18 seconds 925 msec
