
                                 *****************
                                 * O   R   C   A *
                                 *****************

                                            #,                                       
                                            ###                                      
                                            ####                                     
                                            #####                                    
                                            ######                                   
                                           ########,                                 
                                     ,,################,,,,,                         
                               ,,#################################,,                 
                          ,,##########################################,,             
                       ,#########################################, ''#####,          
                    ,#############################################,,   '####,        
                  ,##################################################,,,,####,       
                ,###########''''           ''''###############################       
              ,#####''   ,,,,##########,,,,          '''####'''          '####       
            ,##' ,,,,###########################,,,                        '##       
           ' ,,###''''                  '''############,,,                           
         ,,##''                                '''############,,,,        ,,,,,,###''
      ,#''                                            '''#######################'''  
     '                                                          ''''####''''         
             ,#######,   #######,   ,#######,      ##                                
            ,#'     '#,  ##    ##  ,#'     '#,    #''#        ######   ,####,        
            ##       ##  ##   ,#'  ##            #'  '#       #        #'  '#        
            ##       ##  #######   ##           ,######,      #####,   #    #        
            '#,     ,#'  ##    ##  '#,     ,#' ,#      #,         ##   #,  ,#        
             '#######'   ##     ##  '#######'  #'      '#     #####' # '####'        



                  #######################################################
                  #                        -***-                        #
                  #          Department of theory and spectroscopy      #
                  #    Directorship and core code : Frank Neese         #
                  #        Max Planck Institute fuer Kohlenforschung    #
                  #                Kaiser Wilhelm Platz 1               #
                  #                 D-45470 Muelheim/Ruhr               #
                  #                      Germany                        #
                  #                                                     #
                  #                  All rights reserved                #
                  #                        -***-                        #
                  #######################################################



                         Program Version 5.0.4 -  RELEASE  -

 With contributions from (in alphabetic order):
   Daniel Aravena         : Magnetic Suceptibility
   Michael Atanasov       : Ab Initio Ligand Field Theory (pilot matlab implementation)
   Alexander A. Auer      : GIAO ZORA, VPT2 properties, NMR spectrum
   Ute Becker             : Parallelization
   Giovanni Bistoni       : ED, misc. LED, open-shell LED, HFLD
   Martin Brehm           : Molecular dynamics
   Dmytro Bykov           : SCF Hessian
   Vijay G. Chilkuri      : MRCI spin determinant printing, contributions to CSF-ICE
   Dipayan Datta          : RHF DLPNO-CCSD density
   Achintya Kumar Dutta   : EOM-CC, STEOM-CC
   Dmitry Ganyushin       : Spin-Orbit,Spin-Spin,Magnetic field MRCI
   Miquel Garcia          : C-PCM and meta-GGA Hessian, CC/C-PCM, Gaussian charge scheme
   Yang Guo               : DLPNO-NEVPT2, F12-NEVPT2, CIM, IAO-localization
   Andreas Hansen         : Spin unrestricted coupled pair/coupled cluster methods
   Benjamin Helmich-Paris : MC-RPA, TRAH-SCF, COSX integrals
   Lee Huntington         : MR-EOM, pCC
   Robert Izsak           : Overlap fitted RIJCOSX, COSX-SCS-MP3, EOM
   Marcus Kettner         : VPT2
   Christian Kollmar      : KDIIS, OOCD, Brueckner-CCSD(T), CCSD density, CASPT2, CASPT2-K
   Simone Kossmann        : Meta GGA functionals, TD-DFT gradient, OOMP2, MP2 Hessian
   Martin Krupicka        : Initial AUTO-CI
   Lucas Lang             : DCDCAS
   Marvin Lechner         : AUTO-CI (C++ implementation), FIC-MRCC
   Dagmar Lenk            : GEPOL surface, SMD
   Dimitrios Liakos       : Extrapolation schemes; Compound Job, initial MDCI parallelization
   Dimitrios Manganas     : Further ROCIS development; embedding schemes
   Dimitrios Pantazis     : SARC Basis sets
   Anastasios Papadopoulos: AUTO-CI, single reference methods and gradients
   Taras Petrenko         : DFT Hessian,TD-DFT gradient, ASA, ECA, R-Raman, ABS, FL, XAS/XES, NRVS
   Peter Pinski           : DLPNO-MP2, DLPNO-MP2 Gradient
   Christoph Reimann      : Effective Core Potentials
   Marius Retegan         : Local ZFS, SOC
   Christoph Riplinger    : Optimizer, TS searches, QM/MM, DLPNO-CCSD(T), (RO)-DLPNO pert. Triples
   Tobias Risthaus        : Range-separated hybrids, TD-DFT gradient, RPA, STAB
   Michael Roemelt        : Original ROCIS implementation
   Masaaki Saitow         : Open-shell DLPNO-CCSD energy and density
   Barbara Sandhoefer     : DKH picture change effects
   Avijit Sen             : IP-ROCIS
   Kantharuban Sivalingam : CASSCF convergence, NEVPT2, FIC-MRCI
   Bernardo de Souza      : ESD, SOC TD-DFT
   Georgi Stoychev        : AutoAux, RI-MP2 NMR, DLPNO-MP2 response
   Willem Van den Heuvel  : Paramagnetic NMR
   Boris Wezisla          : Elementary symmetry handling
   Frank Wennmohs         : Technical directorship


 We gratefully acknowledge several colleagues who have allowed us to
 interface, adapt or use parts of their codes:
   Stefan Grimme, W. Hujo, H. Kruse, P. Pracht,  : VdW corrections, initial TS optimization,
                  C. Bannwarth, S. Ehlert          DFT functionals, gCP, sTDA/sTD-DF
   Ed Valeev, F. Pavosevic, A. Kumar             : LibInt (2-el integral package), F12 methods
   Garnet Chan, S. Sharma, J. Yang, R. Olivares  : DMRG
   Ulf Ekstrom                                   : XCFun DFT Library
   Mihaly Kallay                                 : mrcc  (arbitrary order and MRCC methods)
   Jiri Pittner, Ondrej Demel                    : Mk-CCSD
   Frank Weinhold                                : gennbo (NPA and NBO analysis)
   Christopher J. Cramer and Donald G. Truhlar   : smd solvation model
   Lars Goerigk                                  : TD-DFT with DH, B97 family of functionals
   V. Asgeirsson, H. Jonsson                     : NEB implementation
   FAccTs GmbH                                   : IRC, NEB, NEB-TS, DLPNO-Multilevel, CI-OPT
                                                   MM, QMMM, 2- and 3-layer-ONIOM, Crystal-QMMM,
                                                   LR-CPCM, SF, NACMEs, symmetry and pop. for TD-DFT,
                                                   nearIR, NL-DFT gradient (VV10), updates on ESD,
                                                   ML-optimized integration grids
   S Lehtola, MJT Oliveira, MAL Marques          : LibXC Library
   Liviu Ungur et al                             : ANISO software


 Your calculation uses the libint2 library for the computation of 2-el integrals
 For citations please refer to: http://libint.valeyev.net

 Your ORCA version has been built with support for libXC version: 5.1.0
 For citations please refer to: https://tddft.org/programs/libxc/

 This ORCA versions uses:
   CBLAS   interface :  Fast vector & matrix operations
   LAPACKE interface :  Fast linear algebra routines
   Shared memory     :  Shared parallel matrices


================================================================================

----- Orbital basis set information -----
Your calculation utilizes the basis: def2-TZVP
   F. Weigend and R. Ahlrichs, Phys. Chem. Chem. Phys. 7, 3297 (2005).

----- AuxJ basis set information -----
Your calculation utilizes the auxiliary basis: def2/J
   F. Weigend, Phys. Chem. Chem. Phys. 8, 1057 (2006).

================================================================================
                                        WARNINGS
                       Please study these warnings very carefully!
================================================================================


INFO   : the flag for use of the SHARK integral package has been found!


WARNING: TRAH does not support fractional occupations!
  ===> : Turning TRAH off
================================================================================
                                       INPUT FILE
================================================================================
NAME = benzen_FOD.inp
|  1> ! UKS B3LYP def2-TZVP tightscf
|  2> %scf
|  3> smeartemp 273.15
|  4> end
|  5> 
|  6> * xyz 0 1
|  7>   C      -4.127240      1.598090      0.000000
|  8>   C      -5.236140      0.753090      0.000000
|  9>   C      -5.058790     -0.629750      0.000000
| 10>   C      -3.772550     -1.167590      0.000000
| 11>   C      -2.663650     -0.322590      0.000000
| 12>   C      -2.840990      1.060250      0.000000
| 13>   H      -4.265550      2.676550      0.000000
| 14>   H      -1.976170      1.719260      0.000000
| 15>   H      -1.660520     -0.742040      0.000000
| 16>   H      -3.634240     -2.246050      0.000000
| 17>   H      -5.923620     -1.288760      0.000000
| 18>   H      -6.239270      1.172540      0.000000
| 19> **                         ****END OF INPUT****
================================================================================

                       ****************************
                       * Single Point Calculation *
                       ****************************

---------------------------------
CARTESIAN COORDINATES (ANGSTROEM)
---------------------------------
  C     -4.127240    1.598090    0.000000
  C     -5.236140    0.753090    0.000000
  C     -5.058790   -0.629750    0.000000
  C     -3.772550   -1.167590    0.000000
  C     -2.663650   -0.322590    0.000000
  C     -2.840990    1.060250    0.000000
  H     -4.265550    2.676550    0.000000
  H     -1.976170    1.719260    0.000000
  H     -1.660520   -0.742040    0.000000
  H     -3.634240   -2.246050    0.000000
  H     -5.923620   -1.288760    0.000000
  H     -6.239270    1.172540    0.000000

----------------------------
CARTESIAN COORDINATES (A.U.)
----------------------------
  NO LB      ZA    FRAG     MASS         X           Y           Z
   0 C     6.0000    0    12.011   -7.799353    3.019952    0.000000
   1 C     6.0000    0    12.011   -9.894871    1.423134    0.000000
   2 C     6.0000    0    12.011   -9.559728   -1.190055    0.000000
   3 C     6.0000    0    12.011   -7.129086   -2.206425    0.000000
   4 C     6.0000    0    12.011   -5.033569   -0.609607    0.000000
   5 C     6.0000    0    12.011   -5.368693    2.003582    0.000000
   6 H     1.0000    0     1.008   -8.060721    5.057946    0.000000
   7 H     1.0000    0     1.008   -3.734420    3.248931    0.000000
   8 H     1.0000    0     1.008   -3.137928   -1.402252    0.000000
   9 H     1.0000    0     1.008   -6.867718   -4.244419    0.000000
  10 H     1.0000    0     1.008  -11.194020   -2.435403    0.000000
  11 H     1.0000    0     1.008  -11.790512    2.215779    0.000000

--------------------------------
INTERNAL COORDINATES (ANGSTROEM)
--------------------------------
 C      0   0   0     0.000000000000     0.00000000     0.00000000
 C      1   0   0     1.394160754719     0.00000000     0.00000000
 C      2   1   0     1.394166234027   119.99967529     0.00000000
 C      3   2   1     1.394161110919   120.00051591     0.00000000
 C      4   3   2     1.394160754719   119.99980880     0.00000000
 C      5   4   3     1.394164961975   120.00008292     0.00000000
 H      1   2   3     1.087292797594   119.99983709   180.00000085
 H      6   5   4     1.087293802291   120.00020724   180.00000000
 H      5   4   3     1.087293934224   120.00018946   180.00000085
 H      4   3   2     1.087292797594   120.00035411   180.00000085
 H      3   2   1     1.087301756184   119.99948022   180.00000085
 H      2   1   3     1.087293934224   120.00018946   180.00000000

---------------------------
INTERNAL COORDINATES (A.U.)
---------------------------
 C      0   0   0     0.000000000000     0.00000000     0.00000000
 C      1   0   0     2.634582013081     0.00000000     0.00000000
 C      2   1   0     2.634592367471   119.99967529     0.00000000
 C      3   2   1     2.634582686201   120.00051591     0.00000000
 C      4   3   2     2.634582013081   119.99980880     0.00000000
 C      5   4   3     2.634589963642   120.00008292     0.00000000
 H      1   2   3     2.054685614838   119.99983709   180.00000085
 H      6   5   4     2.054687513440   120.00020724   180.00000000
 H      5   4   3     2.054687762757   120.00018946   180.00000085
 H      4   3   2     2.054685614838   120.00035411   180.00000085
 H      3   2   1     2.054702544119   119.99948022   180.00000085
 H      2   1   3     2.054687762757   120.00018946   180.00000000

---------------------
BASIS SET INFORMATION
---------------------
There are 2 groups of distinct atoms

 Group   1 Type C   : 11s6p2d1f contracted to 5s3p2d1f pattern {62111/411/11/1}
 Group   2 Type H   : 5s1p contracted to 3s1p pattern {311/1}

Atom   0C    basis set group =>   1
Atom   1C    basis set group =>   1
Atom   2C    basis set group =>   1
Atom   3C    basis set group =>   1
Atom   4C    basis set group =>   1
Atom   5C    basis set group =>   1
Atom   6H    basis set group =>   2
Atom   7H    basis set group =>   2
Atom   8H    basis set group =>   2
Atom   9H    basis set group =>   2
Atom  10H    basis set group =>   2
Atom  11H    basis set group =>   2
---------------------------------
AUXILIARY/J BASIS SET INFORMATION
---------------------------------
There are 2 groups of distinct atoms

 Group   1 Type C   : 12s5p4d2f1g contracted to 6s4p3d1f1g pattern {711111/2111/211/2/1}
 Group   2 Type H   : 5s2p1d contracted to 3s1p1d pattern {311/2/1}

Atom   0C    basis set group =>   1
Atom   1C    basis set group =>   1
Atom   2C    basis set group =>   1
Atom   3C    basis set group =>   1
Atom   4C    basis set group =>   1
Atom   5C    basis set group =>   1
Atom   6H    basis set group =>   2
Atom   7H    basis set group =>   2
Atom   8H    basis set group =>   2
Atom   9H    basis set group =>   2
Atom  10H    basis set group =>   2
Atom  11H    basis set group =>   2
------------------------------------------------------------------------------
                           ORCA GTO INTEGRAL CALCULATION
                           -- RI-GTO INTEGRALS CHOSEN --
------------------------------------------------------------------------------
------------------------------------------------------------------------------
                   ___                                                        
                  /   \      - P O W E R E D   B Y -                         
                 /     \                                                     
                 |  |  |   _    _      __       _____    __    __             
                 |  |  |  | |  | |    /  \     |  _  \  |  |  /  |          
                  \  \/   | |  | |   /    \    | | | |  |  | /  /          
                 / \  \   | |__| |  /  /\  \   | |_| |  |  |/  /          
                |  |  |   |  __  | /  /__\  \  |    /   |      \           
                |  |  |   | |  | | |   __   |  |    \   |  |\   \          
                \     /   | |  | | |  |  |  |  | |\  \  |  | \   \       
                 \___/    |_|  |_| |__|  |__|  |_| \__\ |__|  \__/        
                                                                              
                      - O R C A' S   B I G   F R I E N D -                    
                                      &                                       
                       - I N T E G R A L  F E E D E R -                       
                                                                              
 v1 FN, 2020, v2 2021                                                         
------------------------------------------------------------------------------


Reading SHARK input file benzen_FOD.SHARKINP.tmp ... ok
----------------------
SHARK INTEGRAL PACKAGE
----------------------

Number of atoms                             ...     12
Number of basis functions                   ...    222
Number of shells                            ...     90
Maximum angular momentum                    ...      3
Integral batch strategy                     ... SHARK/LIBINT Hybrid
RI-J (if used) integral strategy            ... SPLIT-RIJ (Revised 2003 algorithm where possible)
Printlevel                                  ...      1
Contraction scheme used                     ... SEGMENTED contraction
Coulomb Range Separation                    ... NOT USED
Exchange Range Separation                   ... NOT USED
Finite Nucleus Model                        ... NOT USED
Auxiliary Coulomb fitting basis             ... AVAILABLE
   # of basis functions in Aux-J            ...    360
   # of shells in Aux-J                     ...    120
   Maximum angular momentum in Aux-J        ...      4
Auxiliary J/K fitting basis                 ... NOT available
Auxiliary Correlation fitting basis         ... NOT available
Auxiliary 'external' fitting basis          ... NOT available
Integral threshold                          ...     2.500000e-11
Primitive cut-off                           ...     2.500000e-12
Primitive pair pre-selection threshold      ...     2.500000e-12

Calculating pre-screening integrals         ... done (  0.1 sec) Dimension = 90
Organizing shell pair data                  ... done (  0.1 sec)
Shell pair information
Total number of shell pairs                 ...      4095
Shell pairs after pre-screening             ...      3957
Total number of primitive shell pairs       ...     12396
Primitive shell pairs kept                  ...      9531
          la=0 lb=0:   1089 shell pairs
          la=1 lb=0:   1110 shell pairs
          la=1 lb=1:    297 shell pairs
          la=2 lb=0:    570 shell pairs
          la=2 lb=1:    288 shell pairs
          la=2 lb=2:     78 shell pairs
          la=3 lb=0:    288 shell pairs
          la=3 lb=1:    144 shell pairs
          la=3 lb=2:     72 shell pairs
          la=3 lb=3:     21 shell pairs

Calculating one electron integrals          ... done (  0.1 sec)
Calculating RI/J V-Matrix + Cholesky decomp.... done (  0.0 sec)
Calculating Nuclear repulsion               ... done (  0.0 sec) ENN=    203.482178309162 Eh

SHARK setup successfully completed in   0.6 seconds

Maximum memory used throughout the entire GTOINT-calculation: 60.1 MB
-------------------------------------------------------------------------------
                                 ORCA SCF
-------------------------------------------------------------------------------

------------
SCF SETTINGS
------------
Hamiltonian:
 Density Functional     Method          .... DFT(GTOs)
 Exchange Functional    Exchange        .... B88
   X-Alpha parameter    XAlpha          ....  0.666667
   Becke's b parameter  XBeta           ....  0.004200
 Correlation Functional Correlation     .... LYP
 LDA part of GGA corr.  LDAOpt          .... VWN-5
 Gradients option       PostSCFGGA      .... off
 Hybrid DFT is turned on
   Fraction HF Exchange ScalHFX         ....  0.200000
   Scaling of DF-GGA-X  ScalDFX         ....  0.720000
   Scaling of DF-GGA-C  ScalDFC         ....  0.810000
   Scaling of DF-LDA-C  ScalLDAC        ....  1.000000
   Perturbative correction              ....  0.000000
   Density functional embedding theory  .... OFF
   NL short-range parameter             ....  4.800000
 RI-approximation to the Coulomb term is turned on
   Number of AuxJ basis functions       .... 360
   RIJ-COSX (HFX calculated with COS-X)).... on


General Settings:
 Integral files         IntName         .... benzen_FOD
 Hartree-Fock type      HFTyp           .... UHF
 Total Charge           Charge          ....    0
 Multiplicity           Mult            ....    1
 Number of Electrons    NEL             ....   42
 Basis Dimension        Dim             ....  222
 Nuclear Repulsion      ENuc            ....    203.4821783092 Eh

Convergence Acceleration:
 DIIS                   CNVDIIS         .... on
   Start iteration      DIISMaxIt       ....    12
   Startup error        DIISStart       ....  0.200000
   # of expansion vecs  DIISMaxEq       ....     5
   Bias factor          DIISBfac        ....   1.050
   Max. coefficient     DIISMaxC        ....  10.000
 Trust-Rad. Augm. Hess. CNVTRAH         .... off
 SOSCF                  CNVSOSCF        .... off
 Level Shifting         CNVShift        .... on
   Level shift para.    LevelShift      ....    0.2500
   Turn off err/grad.   ShiftErr        ....    0.0010
 Zerner damping         CNVZerner       .... off
 Static damping         CNVDamp         .... on
   Fraction old density DampFac         ....    0.7000
   Max. Damping (<1)    DampMax         ....    0.9800
   Min. Damping (>=0)   DampMin         ....    0.0000
   Turn off err/grad.   DampErr         ....    0.1000
 Fernandez-Rico         CNVRico         .... off

SCF Procedure:
 Maximum # iterations   MaxIter         ....   125
 SCF integral mode      SCFMode         .... Direct
   Integral package                     .... SHARK and LIBINT hybrid scheme
 Reset frequency        DirectResetFreq ....    20
 Integral Threshold     Thresh          ....  2.500e-11 Eh
 Primitive CutOff       TCut            ....  2.500e-12 Eh

Convergence Tolerance:
 Convergence Check Mode ConvCheckMode   .... Total+1el-Energy
 Convergence forced     ConvForced      .... 0
 Energy Change          TolE            ....  1.000e-08 Eh
 1-El. energy change                    ....  1.000e-05 Eh
 DIIS Error             TolErr          ....  5.000e-07


Diagonalization of the overlap matrix:
Smallest eigenvalue                        ... 1.030e-05
Time for diagonalization                   ...    0.010 sec
Threshold for overlap eigenvalues          ... 1.000e-08
Number of eigenvalues below threshold      ... 0
Time for construction of square roots      ...    0.005 sec
Total time needed                          ...    0.015 sec

Time for model grid setup =    0.185 sec

------------------------------
INITIAL GUESS: MODEL POTENTIAL
------------------------------
Loading Hartree-Fock densities                     ... done
Calculating cut-offs                               ... done
Initializing the effective Hamiltonian             ... done
Setting up the integral package (SHARK)            ... done
Starting the Coulomb interaction                   ... done (   0.2 sec)
Reading the grid                                   ... done
Mapping shells                                     ... done
Starting the XC term evaluation                    ... done (   0.5 sec)
  promolecular density results
     # of electrons  =     41.996734249
     EX              =    -32.606761098
     EC              =     -1.377217072
     EX+EC           =    -33.983978169
Transforming the Hamiltonian                       ... done (   0.0 sec)
Diagonalizing the Hamiltonian                      ... done (   0.0 sec)
Back transforming the eigenvectors                 ... done (   0.0 sec)
Now organizing SCF variables                       ... done
                      ------------------
                      INITIAL GUESS DONE (   0.9 sec)
                      ------------------
-------------------
DFT GRID GENERATION
-------------------

General Integration Accuracy     IntAcc      ... 4.388
Radial Grid Type                 RadialGrid  ... OptM3 with GC (2021)
Angular Grid (max. ang.)         AngularGrid ... 4 (Lebedev-302)
Angular grid pruning method      GridPruning ... 4 (adaptive)
Weight generation scheme         WeightScheme... Becke
Basis function cutoff            BFCut       ... 1.0000e-11
Integration weight cutoff        WCut        ... 1.0000e-14
Angular grids for H and He will be reduced by one unit
Partially contracted basis set               ... off
Rotationally invariant grid construction     ... off

Total number of grid points                  ...    55560
Total number of batches                      ...      872
Average number of points per batch           ...       63
Average number of grid points per atom       ...     4630
Time for grid setup =    0.949 sec

--------------------
COSX GRID GENERATION
--------------------

GRIDX 1
-------
General Integration Accuracy     IntAcc      ... 3.816
Radial Grid Type                 RadialGrid  ... OptM3 with GC (2021)
Angular Grid (max. ang.)         AngularGrid ... 1 (Lebedev-50)
Angular grid pruning method      GridPruning ... 4 (adaptive)
Weight generation scheme         WeightScheme... Becke
Basis function cutoff            BFCut       ... 1.0000e-11
Integration weight cutoff        WCut        ... 1.0000e-14
Angular grids for H and He will be reduced by one unit
Partially contracted basis set               ... on
Rotationally invariant grid construction     ... off

Total number of grid points                  ...     7132
Total number of batches                      ...      114
Average number of points per batch           ...       62
Average number of grid points per atom       ...      594
UseSFitting                                  ... on

GRIDX 2
-------
General Integration Accuracy     IntAcc      ... 4.020
Radial Grid Type                 RadialGrid  ... OptM3 with GC (2021)
Angular Grid (max. ang.)         AngularGrid ... 2 (Lebedev-110)
Angular grid pruning method      GridPruning ... 4 (adaptive)
Weight generation scheme         WeightScheme... Becke
Basis function cutoff            BFCut       ... 1.0000e-11
Integration weight cutoff        WCut        ... 1.0000e-14
Angular grids for H and He will be reduced by one unit
Partially contracted basis set               ... on
Rotationally invariant grid construction     ... off

Total number of grid points                  ...    15506
Total number of batches                      ...      248
Average number of points per batch           ...       62
Average number of grid points per atom       ...     1292
UseSFitting                                  ... on

GRIDX 3
-------
General Integration Accuracy     IntAcc      ... 4.338
Radial Grid Type                 RadialGrid  ... OptM3 with GC (2021)
Angular Grid (max. ang.)         AngularGrid ... 3 (Lebedev-194)
Angular grid pruning method      GridPruning ... 4 (adaptive)
Weight generation scheme         WeightScheme... Becke
Basis function cutoff            BFCut       ... 1.0000e-11
Integration weight cutoff        WCut        ... 1.0000e-14
Angular grids for H and He will be reduced by one unit
Partially contracted basis set               ... on
Rotationally invariant grid construction     ... off

Total number of grid points                  ...    34078
Total number of batches                      ...      538
Average number of points per batch           ...       63
Average number of grid points per atom       ...     2840
UseSFitting                                  ... on

Time for X-Grid setup             =    0.997 sec

--------------
SCF ITERATIONS
--------------
ITER       Energy         Delta-E        Max-DP      RMS-DP      [F,P]     Damp
               ***  Starting incremental Fock matrix formation  ***
  0   -232.0165169432   0.000000000000 0.01435266  0.00058899  0.0754786 0.7000
  1   -232.0921791515  -0.075662208312 0.00895121  0.00041830  0.0394623 0.7000
                               ***Turning on DIIS***
  2   -232.1243251425  -0.032145990929 0.01445371  0.00070517  0.0158785 0.0000
  3   -232.1698522803  -0.045527137832 0.00544752  0.00026856  0.0219293 0.0000
  4   -232.1826602475  -0.012807967224 0.00183928  0.00008495  0.0041142 0.0000
  5   -232.1832278320  -0.000567584434 0.00148656  0.00005806  0.0006772 0.0000
               *** Restarting incremental Fock matrix formation ***
                                   *** Resetting DIIS ***
  6   -232.1832356164  -0.000007784446 0.00026890  0.00001341  0.0001595 0.0000
  7   -232.1832353674   0.000000248994 0.00005227  0.00000230  0.0001763 0.0000
  8   -232.1832362834  -0.000000916023 0.00000579  0.00000027  0.0000068 0.0000
  9   -232.1832362759   0.000000007548 0.00001350  0.00000064  0.0000025 0.0000
                 **** Energy Check signals convergence ****

 Fermi smearing  (ALPHA): E(HOMO(Eh)) = -0.255803 MUE = -0.133872 gap=   6.636 eV
 Fermi smearing   (BETA): E(HOMO(Eh)) = -0.255803 MUE = -0.133872 gap=   6.636 eV

N_FOD(alpha) =  0.000000
 N_FOD(beta) =  0.000000
       N_FOD =  0.000000

               *****************************************************
               *                     SUCCESS                       *
               *           SCF CONVERGED AFTER  10 CYCLES          *
               *****************************************************


 Fermi smearing  (ALPHA): E(HOMO(Eh)) = -0.255803 MUE = -0.133872 gap=   6.636 eV
 Fermi smearing   (BETA): E(HOMO(Eh)) = -0.255803 MUE = -0.133872 gap=   6.636 eV

N_FOD(alpha) =  0.000000
 N_FOD(beta) =  0.000000
       N_FOD =  0.000000
Old exchange energy                            =     -6.646641856 Eh
New exchange energy                            =     -6.646636538 Eh
Exchange energy change after final integration =      0.000005318 Eh
Total energy after final integration           =   -232.183230962 Eh
Final COS-X integration done in                =    17.396 sec

----------------
TOTAL SCF ENERGY
----------------

Total Energy       :         -232.18323096 Eh           -6318.02692 eV

Components:
Nuclear Repulsion  :          203.48217831 Eh            5537.03157 eV
Electronic Energy  :         -435.66540927 Eh          -11855.05849 eV
One Electron Energy:         -714.33025432 Eh          -19437.91442 eV
Two Electron Energy:          278.66484505 Eh            7582.85594 eV
Max COSX asymmetry :            0.00000014 Eh               0.00000 eV

Virial components:
Potential Energy   :         -463.20036064 Eh          -12604.32260 eV
Kinetic Energy     :          231.01712968 Eh            6286.29569 eV
Virial Ratio       :            2.00504768


DFT components:
N(Alpha)           :       20.999982959767 electrons
N(Beta)            :       20.999982959767 electrons
N(Total)           :       41.999965919534 electrons
E(X)               :      -26.387680510869 Eh       
E(C)               :       -1.635014071467 Eh       
E(XC)              :      -28.022694582336 Eh       
DFET-embed. en.    :        0.000000000000 Eh       

---------------
SCF CONVERGENCE
---------------

  Last Energy change         ...   -4.6213e-09  Tolerance :   1.0000e-08
  Last MAX-Density change    ...    0.0000e+00  Tolerance :   1.0000e-07
  Last RMS-Density change    ...    0.0000e+00  Tolerance :   5.0000e-09
  Last DIIS Error            ...    4.0646e-07  Tolerance :   5.0000e-07

             **** THE GBW FILE WAS UPDATED (benzen_FOD.gbw) ****
             **** DENSITY benzen_FOD.scfp WAS UPDATED ****
             **** ENERGY FILE WAS UPDATED (benzen_FOD.en.tmp) ****
             **** THE GBW FILE WAS UPDATED (benzen_FOD.gbw) ****
             **** DENSITY benzen_FOD.scfp WAS UPDATED ****
----------------
ORBITAL ENERGIES
----------------
                 SPIN UP ORBITALS
  NO   OCC          E(Eh)            E(eV) 
   0   1.0000     -10.174840      -276.8715 
   1   1.0000     -10.174611      -276.8652 
   2   1.0000     -10.174605      -276.8651 
   3   1.0000     -10.174041      -276.8497 
   4   1.0000     -10.174035      -276.8496 
   5   1.0000     -10.173766      -276.8422 
   6   1.0000      -0.853576       -23.2270 
   7   1.0000      -0.745256       -20.2794 
   8   1.0000      -0.745252       -20.2793 
   9   1.0000      -0.602193       -16.3865 
  10   1.0000      -0.602191       -16.3865 
  11   1.0000      -0.523791       -14.2531 
  12   1.0000      -0.460489       -12.5305 
  13   1.0000      -0.447566       -12.1789 
  14   1.0000      -0.421943       -11.4817 
  15   1.0000      -0.421937       -11.4815 
  16   1.0000      -0.369046       -10.0423 
  17   1.0000      -0.345177        -9.3927 
  18   1.0000      -0.345176        -9.3927 
  19   1.0000      -0.255808        -6.9609 
  20   1.0000      -0.255803        -6.9608 
  21   0.0000      -0.011941        -0.3249 
  22   0.0000      -0.011936        -0.3248 
  23   0.0000       0.046837         1.2745 
  24   0.0000       0.078873         2.1462 
  25   0.0000       0.078878         2.1464 
  26   0.0000       0.105728         2.8770 
  27   0.0000       0.105746         2.8775 
  28   0.0000       0.127748         3.4762 
  29   0.0000       0.141734         3.8568 
  30   0.0000       0.152139         4.1399 
  31   0.0000       0.208257         5.6670 
  32   0.0000       0.211884         5.7657 
  33   0.0000       0.216692         5.8965 
  34   0.0000       0.216700         5.8967 
  35   0.0000       0.234307         6.3758 
  36   0.0000       0.234318         6.3761 
  37   0.0000       0.249448         6.7878 
  38   0.0000       0.249479         6.7887 
  39   0.0000       0.269868         7.3435 
  40   0.0000       0.269887         7.3440 
  41   0.0000       0.327480         8.9112 
  42   0.0000       0.328389         8.9359 
  43   0.0000       0.328411         8.9365 
  44   0.0000       0.357285         9.7222 
  45   0.0000       0.357306         9.7228 
  46   0.0000       0.381395        10.3783 
  47   0.0000       0.404716        11.0129 
  48   0.0000       0.413723        11.2580 
  49   0.0000       0.413739        11.2584 
  50   0.0000       0.436869        11.8878 
  51   0.0000       0.436883        11.8882 
  52   0.0000       0.440635        11.9903 
  53   0.0000       0.463777        12.6200 
  54   0.0000       0.464868        12.6497 
  55   0.0000       0.489566        13.3218 
  56   0.0000       0.489577        13.3221 
  57   0.0000       0.492165        13.3925 
  58   0.0000       0.507473        13.8090 
  59   0.0000       0.507523        13.8104 
  60   0.0000       0.643669        17.5151 
  61   0.0000       0.643749        17.5173 
  62   0.0000       0.653047        17.7703 
  63   0.0000       0.678215        18.4552 
  64   0.0000       0.683818        18.6076 
  65   0.0000       0.747441        20.3389 
  66   0.0000       0.747463        20.3395 
  67   0.0000       0.754594        20.5335 
  68   0.0000       0.754611        20.5340 
  69   0.0000       0.798294        21.7227 
  70   0.0000       0.844724        22.9861 
  71   0.0000       0.844736        22.9864 
  72   0.0000       0.853559        23.2265 
  73   0.0000       0.889463        24.2035 
  74   0.0000       0.890182        24.2231 
  75   0.0000       1.001899        27.2631 
  76   0.0000       1.001914        27.2635 
  77   0.0000       1.012132        27.5415 
  78   0.0000       1.012176        27.5427 
  79   0.0000       1.051487        28.6124 
  80   0.0000       1.051520        28.6133 
  81   0.0000       1.167102        31.7585 
  82   0.0000       1.175143        31.9773 
  83   0.0000       1.175183        31.9784 
  84   0.0000       1.204083        32.7648 
  85   0.0000       1.204113        32.7656 
  86   0.0000       1.221331        33.2341 
  87   0.0000       1.221351        33.2347 
  88   0.0000       1.249775        34.0081 
  89   0.0000       1.249806        34.0089 
  90   0.0000       1.284427        34.9510 
  91   0.0000       1.374522        37.4026 
  92   0.0000       1.374886        37.4126 
  93   0.0000       1.386523        37.7292 
  94   0.0000       1.450582        39.4723 
  95   0.0000       1.450623        39.4735 
  96   0.0000       1.479468        40.2584 
  97   0.0000       1.479503        40.2593 
  98   0.0000       1.482757        40.3479 
  99   0.0000       1.482776        40.3484 
 100   0.0000       1.595546        43.4170 
 101   0.0000       1.607980        43.7554 
 102   0.0000       1.653284        44.9881 
 103   0.0000       1.664338        45.2889 
 104   0.0000       1.664342        45.2890 
 105   0.0000       1.677843        45.6564 
 106   0.0000       1.688621        45.9497 
 107   0.0000       1.688629        45.9499 
 108   0.0000       1.701264        46.2938 
 109   0.0000       1.701307        46.2949 
 110   0.0000       1.762303        47.9547 
 111   0.0000       1.838269        50.0218 
 112   0.0000       1.900930        51.7269 
 113   0.0000       1.900941        51.7272 
 114   0.0000       2.029887        55.2360 
 115   0.0000       2.029893        55.2362 
 116   0.0000       2.062573        56.1255 
 117   0.0000       2.075927        56.4888 
 118   0.0000       2.075950        56.4895 
 119   0.0000       2.079094        56.5750 
 120   0.0000       2.153787        58.6075 
 121   0.0000       2.153809        58.6081 
 122   0.0000       2.218780        60.3761 
 123   0.0000       2.232185        60.7408 
 124   0.0000       2.232206        60.7414 
 125   0.0000       2.317650        63.0665 
 126   0.0000       2.453857        66.7728 
 127   0.0000       2.484803        67.6149 
 128   0.0000       2.484829        67.6156 
 129   0.0000       2.549119        69.3650 
 130   0.0000       2.552775        69.4645 
 131   0.0000       2.552802        69.4653 
 132   0.0000       2.562173        69.7203 
 133   0.0000       2.584626        70.3312 
 134   0.0000       2.647955        72.0545 
 135   0.0000       2.647971        72.0550 
 136   0.0000       2.664057        72.4927 
 137   0.0000       2.666970        72.5720 
 138   0.0000       2.666976        72.5721 
 139   0.0000       2.670860        72.6778 
 140   0.0000       2.670868        72.6780 
 141   0.0000       2.735200        74.4286 
 142   0.0000       2.746373        74.7326 
 143   0.0000       2.746416        74.7338 
 144   0.0000       2.800575        76.2075 
 145   0.0000       2.801114        76.2222 
 146   0.0000       2.801144        76.2230 
 147   0.0000       2.838086        77.2282 
 148   0.0000       2.840613        77.2970 
 149   0.0000       2.840617        77.2971 
 150   0.0000       2.846587        77.4596 
 151   0.0000       2.846627        77.4607 
 152   0.0000       2.894388        78.7603 
 153   0.0000       3.009738        81.8991 
 154   0.0000       3.096209        84.2521 
 155   0.0000       3.096222        84.2525 
 156   0.0000       3.097592        84.2898 
 157   0.0000       3.097646        84.2912 
 158   0.0000       3.131861        85.2223 
 159   0.0000       3.131873        85.2226 
 160   0.0000       3.138800        85.4111 
 161   0.0000       3.138805        85.4112 
 162   0.0000       3.187231        86.7290 
 163   0.0000       3.209810        87.3434 
 164   0.0000       3.209858        87.3447 
 165   0.0000       3.244922        88.2988 
 166   0.0000       3.252807        88.5134 
 167   0.0000       3.252826        88.5139 
 168   0.0000       3.307369        89.9981 
 169   0.0000       3.348593        91.1199 
 170   0.0000       3.369041        91.6763 
 171   0.0000       3.369055        91.6766 
 172   0.0000       3.382074        92.0309 
 173   0.0000       3.441197        93.6397 
 174   0.0000       3.441224        93.6405 
 175   0.0000       3.463241        94.2396 
 176   0.0000       3.496441        95.1430 
 177   0.0000       3.520247        95.7908 
 178   0.0000       3.520274        95.7915 
 179   0.0000       3.593137        97.7742 
 180   0.0000       3.637642        98.9853 
 181   0.0000       3.637706        98.9870 
 182   0.0000       3.743015       101.8526 
 183   0.0000       3.752434       102.1089 
 184   0.0000       3.752457       102.1095 
 185   0.0000       3.792289       103.1934 
 186   0.0000       3.860306       105.0443 
 187   0.0000       3.988104       108.5218 
 188   0.0000       3.988108       108.5219 
 189   0.0000       4.058078       110.4259 
 190   0.0000       4.062445       110.5447 
 191   0.0000       4.062487       110.5459 
 192   0.0000       4.105172       111.7074 
 193   0.0000       4.194665       114.1426 
 194   0.0000       4.194713       114.1440 
 195   0.0000       4.194994       114.1516 
 196   0.0000       4.217435       114.7623 
 197   0.0000       4.217448       114.7626 
 198   0.0000       4.277384       116.3935 
 199   0.0000       4.277419       116.3945 
 200   0.0000       4.287899       116.6797 
 201   0.0000       4.287946       116.6809 
 202   0.0000       4.619136       125.6931 
 203   0.0000       4.638835       126.2291 
 204   0.0000       4.638853       126.2296 
 205   0.0000       4.650193       126.5382 
 206   0.0000       4.817584       131.0931 
 207   0.0000       4.817655       131.0951 
 208   0.0000       4.880610       132.8082 
 209   0.0000       4.880620       132.8084 
 210   0.0000       5.189649       141.2175 
 211   0.0000       5.189657       141.2178 
 212   0.0000       5.268641       143.3670 
 213   0.0000       5.285911       143.8370 
 214   0.0000       5.405675       147.0959 
 215   0.0000       5.616689       152.8379 
 216   0.0000      21.854039       594.6786 
 217   0.0000      22.514595       612.6533 
 218   0.0000      22.514606       612.6536 
 219   0.0000      22.609985       615.2490 
 220   0.0000      22.610008       615.2496 
 221   0.0000      23.028827       626.6462 

                 SPIN DOWN ORBITALS
  NO   OCC          E(Eh)            E(eV) 
   0   1.0000     -10.174840      -276.8715 
   1   1.0000     -10.174611      -276.8652 
   2   1.0000     -10.174605      -276.8651 
   3   1.0000     -10.174041      -276.8497 
   4   1.0000     -10.174035      -276.8496 
   5   1.0000     -10.173766      -276.8422 
   6   1.0000      -0.853576       -23.2270 
   7   1.0000      -0.745256       -20.2794 
   8   1.0000      -0.745252       -20.2793 
   9   1.0000      -0.602193       -16.3865 
  10   1.0000      -0.602191       -16.3865 
  11   1.0000      -0.523791       -14.2531 
  12   1.0000      -0.460489       -12.5305 
  13   1.0000      -0.447566       -12.1789 
  14   1.0000      -0.421943       -11.4817 
  15   1.0000      -0.421937       -11.4815 
  16   1.0000      -0.369046       -10.0423 
  17   1.0000      -0.345177        -9.3927 
  18   1.0000      -0.345176        -9.3927 
  19   1.0000      -0.255808        -6.9609 
  20   1.0000      -0.255803        -6.9608 
  21   0.0000      -0.011941        -0.3249 
  22   0.0000      -0.011936        -0.3248 
  23   0.0000       0.046837         1.2745 
  24   0.0000       0.078873         2.1462 
  25   0.0000       0.078878         2.1464 
  26   0.0000       0.105728         2.8770 
  27   0.0000       0.105746         2.8775 
  28   0.0000       0.127748         3.4762 
  29   0.0000       0.141734         3.8568 
  30   0.0000       0.152139         4.1399 
  31   0.0000       0.208257         5.6670 
  32   0.0000       0.211884         5.7657 
  33   0.0000       0.216692         5.8965 
  34   0.0000       0.216700         5.8967 
  35   0.0000       0.234307         6.3758 
  36   0.0000       0.234318         6.3761 
  37   0.0000       0.249448         6.7878 
  38   0.0000       0.249479         6.7887 
  39   0.0000       0.269868         7.3435 
  40   0.0000       0.269887         7.3440 
  41   0.0000       0.327480         8.9112 
  42   0.0000       0.328389         8.9359 
  43   0.0000       0.328411         8.9365 
  44   0.0000       0.357285         9.7222 
  45   0.0000       0.357306         9.7228 
  46   0.0000       0.381395        10.3783 
  47   0.0000       0.404716        11.0129 
  48   0.0000       0.413723        11.2580 
  49   0.0000       0.413739        11.2584 
  50   0.0000       0.436869        11.8878 
  51   0.0000       0.436883        11.8882 
  52   0.0000       0.440635        11.9903 
  53   0.0000       0.463777        12.6200 
  54   0.0000       0.464868        12.6497 
  55   0.0000       0.489566        13.3218 
  56   0.0000       0.489577        13.3221 
  57   0.0000       0.492165        13.3925 
  58   0.0000       0.507473        13.8090 
  59   0.0000       0.507523        13.8104 
  60   0.0000       0.643669        17.5151 
  61   0.0000       0.643749        17.5173 
  62   0.0000       0.653047        17.7703 
  63   0.0000       0.678215        18.4552 
  64   0.0000       0.683818        18.6076 
  65   0.0000       0.747441        20.3389 
  66   0.0000       0.747463        20.3395 
  67   0.0000       0.754594        20.5335 
  68   0.0000       0.754611        20.5340 
  69   0.0000       0.798294        21.7227 
  70   0.0000       0.844724        22.9861 
  71   0.0000       0.844736        22.9864 
  72   0.0000       0.853559        23.2265 
  73   0.0000       0.889463        24.2035 
  74   0.0000       0.890182        24.2231 
  75   0.0000       1.001899        27.2631 
  76   0.0000       1.001914        27.2635 
  77   0.0000       1.012132        27.5415 
  78   0.0000       1.012176        27.5427 
  79   0.0000       1.051487        28.6124 
  80   0.0000       1.051520        28.6133 
  81   0.0000       1.167102        31.7585 
  82   0.0000       1.175143        31.9773 
  83   0.0000       1.175183        31.9784 
  84   0.0000       1.204083        32.7648 
  85   0.0000       1.204113        32.7656 
  86   0.0000       1.221331        33.2341 
  87   0.0000       1.221351        33.2347 
  88   0.0000       1.249775        34.0081 
  89   0.0000       1.249806        34.0089 
  90   0.0000       1.284427        34.9510 
  91   0.0000       1.374522        37.4026 
  92   0.0000       1.374886        37.4126 
  93   0.0000       1.386523        37.7292 
  94   0.0000       1.450582        39.4723 
  95   0.0000       1.450623        39.4735 
  96   0.0000       1.479468        40.2584 
  97   0.0000       1.479503        40.2593 
  98   0.0000       1.482757        40.3479 
  99   0.0000       1.482776        40.3484 
 100   0.0000       1.595546        43.4170 
 101   0.0000       1.607980        43.7554 
 102   0.0000       1.653284        44.9881 
 103   0.0000       1.664338        45.2889 
 104   0.0000       1.664342        45.2890 
 105   0.0000       1.677843        45.6564 
 106   0.0000       1.688621        45.9497 
 107   0.0000       1.688629        45.9499 
 108   0.0000       1.701264        46.2938 
 109   0.0000       1.701307        46.2949 
 110   0.0000       1.762303        47.9547 
 111   0.0000       1.838269        50.0218 
 112   0.0000       1.900930        51.7269 
 113   0.0000       1.900941        51.7272 
 114   0.0000       2.029887        55.2360 
 115   0.0000       2.029893        55.2362 
 116   0.0000       2.062573        56.1255 
 117   0.0000       2.075927        56.4888 
 118   0.0000       2.075950        56.4895 
 119   0.0000       2.079094        56.5750 
 120   0.0000       2.153787        58.6075 
 121   0.0000       2.153809        58.6081 
 122   0.0000       2.218780        60.3761 
 123   0.0000       2.232185        60.7408 
 124   0.0000       2.232206        60.7414 
 125   0.0000       2.317650        63.0665 
 126   0.0000       2.453857        66.7728 
 127   0.0000       2.484803        67.6149 
 128   0.0000       2.484829        67.6156 
 129   0.0000       2.549119        69.3650 
 130   0.0000       2.552775        69.4645 
 131   0.0000       2.552802        69.4653 
 132   0.0000       2.562173        69.7203 
 133   0.0000       2.584626        70.3312 
 134   0.0000       2.647955        72.0545 
 135   0.0000       2.647971        72.0550 
 136   0.0000       2.664057        72.4927 
 137   0.0000       2.666970        72.5720 
 138   0.0000       2.666976        72.5721 
 139   0.0000       2.670860        72.6778 
 140   0.0000       2.670868        72.6780 
 141   0.0000       2.735200        74.4286 
 142   0.0000       2.746373        74.7326 
 143   0.0000       2.746416        74.7338 
 144   0.0000       2.800575        76.2075 
 145   0.0000       2.801114        76.2222 
 146   0.0000       2.801144        76.2230 
 147   0.0000       2.838086        77.2282 
 148   0.0000       2.840613        77.2970 
 149   0.0000       2.840617        77.2971 
 150   0.0000       2.846587        77.4596 
 151   0.0000       2.846627        77.4607 
 152   0.0000       2.894388        78.7603 
 153   0.0000       3.009738        81.8991 
 154   0.0000       3.096209        84.2521 
 155   0.0000       3.096222        84.2525 
 156   0.0000       3.097592        84.2898 
 157   0.0000       3.097646        84.2912 
 158   0.0000       3.131861        85.2223 
 159   0.0000       3.131873        85.2226 
 160   0.0000       3.138800        85.4111 
 161   0.0000       3.138805        85.4112 
 162   0.0000       3.187231        86.7290 
 163   0.0000       3.209810        87.3434 
 164   0.0000       3.209858        87.3447 
 165   0.0000       3.244922        88.2988 
 166   0.0000       3.252807        88.5134 
 167   0.0000       3.252826        88.5139 
 168   0.0000       3.307369        89.9981 
 169   0.0000       3.348593        91.1199 
 170   0.0000       3.369041        91.6763 
 171   0.0000       3.369055        91.6766 
 172   0.0000       3.382074        92.0309 
 173   0.0000       3.441197        93.6397 
 174   0.0000       3.441224        93.6405 
 175   0.0000       3.463241        94.2396 
 176   0.0000       3.496441        95.1430 
 177   0.0000       3.520247        95.7908 
 178   0.0000       3.520274        95.7915 
 179   0.0000       3.593137        97.7742 
 180   0.0000       3.637642        98.9853 
 181   0.0000       3.637706        98.9870 
 182   0.0000       3.743015       101.8526 
 183   0.0000       3.752434       102.1089 
 184   0.0000       3.752457       102.1095 
 185   0.0000       3.792289       103.1934 
 186   0.0000       3.860306       105.0443 
 187   0.0000       3.988104       108.5218 
 188   0.0000       3.988108       108.5219 
 189   0.0000       4.058078       110.4259 
 190   0.0000       4.062445       110.5447 
 191   0.0000       4.062487       110.5459 
 192   0.0000       4.105172       111.7074 
 193   0.0000       4.194665       114.1426 
 194   0.0000       4.194713       114.1440 
 195   0.0000       4.194994       114.1516 
 196   0.0000       4.217435       114.7623 
 197   0.0000       4.217448       114.7626 
 198   0.0000       4.277384       116.3935 
 199   0.0000       4.277419       116.3945 
 200   0.0000       4.287899       116.6797 
 201   0.0000       4.287946       116.6809 
 202   0.0000       4.619136       125.6931 
 203   0.0000       4.638835       126.2291 
 204   0.0000       4.638853       126.2296 
 205   0.0000       4.650193       126.5382 
 206   0.0000       4.817584       131.0931 
 207   0.0000       4.817655       131.0951 
 208   0.0000       4.880610       132.8082 
 209   0.0000       4.880620       132.8084 
 210   0.0000       5.189649       141.2175 
 211   0.0000       5.189657       141.2178 
 212   0.0000       5.268641       143.3670 
 213   0.0000       5.285911       143.8370 
 214   0.0000       5.405675       147.0959 
 215   0.0000       5.616689       152.8379 
 216   0.0000      21.854039       594.6786 
 217   0.0000      22.514595       612.6533 
 218   0.0000      22.514606       612.6536 
 219   0.0000      22.609985       615.2490 
 220   0.0000      22.610008       615.2496 
 221   0.0000      23.028827       626.6462 

                    ********************************
                    * MULLIKEN POPULATION ANALYSIS *
                    ********************************

------------------------------------------
FOD BASED MULLIKEN REDUCED ORBITAL CHARGES
------------------------------------------
  0 C s       :    -0.000000  s :    -0.000000
      pz      :     0.000000  p :     0.000000
      px      :    -0.000000
      py      :    -0.000000
      dz2     :     0.000000  d :     0.000000
      dxz     :     0.000000
      dyz     :     0.000000
      dx2y2   :     0.000000
      dxy     :     0.000000
      f0      :    -0.000000  f :     0.000000
      f+1     :    -0.000000
      f-1     :     0.000000
      f+2     :     0.000000
      f-2     :     0.000000
      f+3     :     0.000000
      f-3     :     0.000000
  1 C s       :     0.000000  s :     0.000000
      pz      :     0.000000  p :     0.000000
      px      :     0.000000
      py      :     0.000000
      dz2     :     0.000000  d :     0.000000
      dxz     :     0.000000
      dyz     :     0.000000
      dx2y2   :     0.000000
      dxy     :     0.000000
      f0      :    -0.000000  f :     0.000000
      f+1     :     0.000000
      f-1     :    -0.000000
      f+2     :     0.000000
      f-2     :     0.000000
      f+3     :    -0.000000
      f-3     :     0.000000
  2 C s       :    -0.000000  s :    -0.000000
      pz      :     0.000000  p :     0.000000
      px      :     0.000000
      py      :    -0.000000
      dz2     :    -0.000000  d :     0.000000
      dxz     :     0.000000
      dyz     :     0.000000
      dx2y2   :     0.000000
      dxy     :     0.000000
      f0      :    -0.000000  f :     0.000000
      f+1     :    -0.000000
      f-1     :    -0.000000
      f+2     :     0.000000
      f-2     :     0.000000
      f+3     :    -0.000000
      f-3     :     0.000000
  3 C s       :    -0.000000  s :    -0.000000
      pz      :     0.000000  p :     0.000000
      px      :     0.000000
      py      :     0.000000
      dz2     :    -0.000000  d :     0.000000
      dxz     :     0.000000
      dyz     :     0.000000
      dx2y2   :    -0.000000
      dxy     :     0.000000
      f0      :    -0.000000  f :     0.000000
      f+1     :     0.000000
      f-1     :    -0.000000
      f+2     :     0.000000
      f-2     :     0.000000
      f+3     :    -0.000000
      f-3     :    -0.000000
  4 C s       :     0.000000  s :     0.000000
      pz      :     0.000000  p :     0.000000
      px      :    -0.000000
      py      :    -0.000000
      dz2     :     0.000000  d :     0.000000
      dxz     :     0.000000
      dyz     :     0.000000
      dx2y2   :     0.000000
      dxy     :     0.000000
      f0      :    -0.000000  f :     0.000000
      f+1     :    -0.000000
      f-1     :     0.000000
      f+2     :     0.000000
      f-2     :     0.000000
      f+3     :     0.000000
      f-3     :     0.000000
  5 C s       :     0.000000  s :     0.000000
      pz      :     0.000000  p :     0.000000
      px      :     0.000000
      py      :    -0.000000
      dz2     :    -0.000000  d :     0.000000
      dxz     :     0.000000
      dyz     :     0.000000
      dx2y2   :     0.000000
      dxy     :    -0.000000
      f0      :    -0.000000  f :     0.000000
      f+1     :    -0.000000
      f-1     :     0.000000
      f+2     :     0.000000
      f-2     :     0.000000
      f+3     :     0.000000
      f-3     :     0.000000
  6 H s       :    -0.000000  s :    -0.000000
      pz      :     0.000000  p :     0.000000
      px      :     0.000000
      py      :     0.000000
  7 H s       :     0.000000  s :     0.000000
      pz      :     0.000000  p :     0.000000
      px      :    -0.000000
      py      :    -0.000000
  8 H s       :     0.000000  s :     0.000000
      pz      :     0.000000  p :     0.000000
      px      :     0.000000
      py      :     0.000000
  9 H s       :     0.000000  s :     0.000000
      pz      :     0.000000  p :     0.000000
      px      :    -0.000000
      py      :    -0.000000
 10 H s       :     0.000000  s :     0.000000
      pz      :     0.000000  p :     0.000000
      px      :     0.000000
      py      :    -0.000000
 11 H s       :    -0.000000  s :    -0.000000
      pz      :     0.000000  p :     0.000000
      px      :    -0.000000
      py      :     0.000000


                     *******************************
                     * LOEWDIN POPULATION ANALYSIS *
                     *******************************

-------------------------------------------
LOEWDIN ATOMIC CHARGES AND SPIN POPULATIONS
-------------------------------------------
   0 C :   -0.141645    0.000000
   1 C :   -0.141679    0.000000
   2 C :   -0.141641    0.000000
   3 C :   -0.141648    0.000000
   4 C :   -0.141678    0.000000
   5 C :   -0.141639    0.000000
   6 H :    0.141650    0.000000
   7 H :    0.141647    0.000000
   8 H :    0.141666    0.000000
   9 H :    0.141651    0.000000
  10 H :    0.141649    0.000000
  11 H :    0.141666    0.000000

----------------------------------------------------
LOEWDIN REDUCED ORBITAL CHARGES AND SPIN POPULATIONS
----------------------------------------------------
CHARGE
  0 C s       :     2.768938  s :     2.768938
      pz      :     0.887064  p :     2.947097
      px      :     1.069389
      py      :     0.990644
      dz2     :     0.025922  d :     0.382768
      dxz     :     0.075603
      dyz     :     0.012385
      dx2y2   :     0.162144
      dxy     :     0.106714
      f0      :     0.002967  f :     0.042843
      f+1     :     0.004433
      f-1     :     0.003296
      f+2     :     0.001656
      f-2     :     0.007061
      f+3     :     0.014267
      f-3     :     0.009162
  1 C s       :     2.768937  s :     2.768937
      pz      :     0.887087  p :     2.947132
      px      :     1.001446
      py      :     1.058599
      dz2     :     0.025923  d :     0.382767
      dxz     :     0.021051
      dyz     :     0.066939
      dx2y2   :     0.134003
      dxy     :     0.134851
      f0      :     0.002967  f :     0.042843
      f+1     :     0.003452
      f-1     :     0.004277
      f+2     :     0.004400
      f-2     :     0.004318
      f+3     :     0.014267
      f-3     :     0.009162
  2 C s       :     2.768940  s :     2.768940
      pz      :     0.887067  p :     2.947088
      px      :     1.019218
      py      :     1.040803
      dz2     :     0.025924  d :     0.382770
      dxz     :     0.035330
      dyz     :     0.052660
      dx2y2   :     0.107140
      dxy     :     0.161716
      f0      :     0.002967  f :     0.042844
      f+1     :     0.003709
      f-1     :     0.004021
      f+2     :     0.007020
      f-2     :     0.001698
      f+3     :     0.014267
      f-3     :     0.009162
  3 C s       :     2.768936  s :     2.768936
      pz      :     0.887065  p :     2.947099
      px      :     1.069391
      py      :     0.990643
      dz2     :     0.025922  d :     0.382771
      dxz     :     0.075604
      dyz     :     0.012385
      dx2y2   :     0.162144
      dxy     :     0.106715
      f0      :     0.002967  f :     0.042843
      f+1     :     0.004433
      f-1     :     0.003296
      f+2     :     0.001656
      f-2     :     0.007061
      f+3     :     0.014267
      f-3     :     0.009162
  4 C s       :     2.768936  s :     2.768936
      pz      :     0.887086  p :     2.947131
      px      :     1.001445
      py      :     1.058600
      dz2     :     0.025923  d :     0.382768
      dxz     :     0.021052
      dyz     :     0.066939
      dx2y2   :     0.134003
      dxy     :     0.134851
      f0      :     0.002967  f :     0.042843
      f+1     :     0.003452
      f-1     :     0.004277
      f+2     :     0.004400
      f-2     :     0.004318
      f+3     :     0.014267
      f-3     :     0.009162
  5 C s       :     2.768941  s :     2.768941
      pz      :     0.887068  p :     2.947089
      px      :     1.019217
      py      :     1.040805
      dz2     :     0.025923  d :     0.382766
      dxz     :     0.035329
      dyz     :     0.052659
      dx2y2   :     0.107139
      dxy     :     0.161716
      f0      :     0.002967  f :     0.042843
      f+1     :     0.003709
      f-1     :     0.004021
      f+2     :     0.007020
      f-2     :     0.001698
      f+3     :     0.014267
      f-3     :     0.009162
  6 H s       :     0.800602  s :     0.800602
      pz      :     0.013253  p :     0.057747
      px      :     0.011048
      py      :     0.033445
  7 H s       :     0.800607  s :     0.800607
      pz      :     0.013254  p :     0.057746
      px      :     0.025316
      py      :     0.019176
  8 H s       :     0.800587  s :     0.800587
      pz      :     0.013253  p :     0.057747
      px      :     0.030375
      py      :     0.014118
  9 H s       :     0.800602  s :     0.800602
      pz      :     0.013253  p :     0.057747
      px      :     0.011048
      py      :     0.033445
 10 H s       :     0.800606  s :     0.800606
      pz      :     0.013253  p :     0.057745
      px      :     0.025316
      py      :     0.019176
 11 H s       :     0.800587  s :     0.800587
      pz      :     0.013253  p :     0.057747
      px      :     0.030375
      py      :     0.014118

SPIN
  0 C s       :     0.000000  s :     0.000000
      pz      :     0.000000  p :     0.000000
      px      :     0.000000
      py      :     0.000000
      dz2     :     0.000000  d :     0.000000
      dxz     :     0.000000
      dyz     :     0.000000
      dx2y2   :     0.000000
      dxy     :     0.000000
      f0      :     0.000000  f :     0.000000
      f+1     :     0.000000
      f-1     :     0.000000
      f+2     :     0.000000
      f-2     :     0.000000
      f+3     :     0.000000
      f-3     :     0.000000
  1 C s       :     0.000000  s :     0.000000
      pz      :     0.000000  p :     0.000000
      px      :     0.000000
      py      :     0.000000
      dz2     :     0.000000  d :     0.000000
      dxz     :     0.000000
      dyz     :     0.000000
      dx2y2   :     0.000000
      dxy     :     0.000000
      f0      :     0.000000  f :     0.000000
      f+1     :     0.000000
      f-1     :     0.000000
      f+2     :     0.000000
      f-2     :     0.000000
      f+3     :     0.000000
      f-3     :     0.000000
  2 C s       :     0.000000  s :     0.000000
      pz      :     0.000000  p :     0.000000
      px      :     0.000000
      py      :     0.000000
      dz2     :     0.000000  d :     0.000000
      dxz     :     0.000000
      dyz     :     0.000000
      dx2y2   :     0.000000
      dxy     :     0.000000
      f0      :     0.000000  f :     0.000000
      f+1     :     0.000000
      f-1     :     0.000000
      f+2     :     0.000000
      f-2     :     0.000000
      f+3     :     0.000000
      f-3     :     0.000000
  3 C s       :     0.000000  s :     0.000000
      pz      :     0.000000  p :     0.000000
      px      :     0.000000
      py      :     0.000000
      dz2     :     0.000000  d :     0.000000
      dxz     :     0.000000
      dyz     :     0.000000
      dx2y2   :     0.000000
      dxy     :     0.000000
      f0      :     0.000000  f :     0.000000
      f+1     :     0.000000
      f-1     :     0.000000
      f+2     :     0.000000
      f-2     :     0.000000
      f+3     :     0.000000
      f-3     :     0.000000
  4 C s       :     0.000000  s :     0.000000
      pz      :     0.000000  p :     0.000000
      px      :     0.000000
      py      :     0.000000
      dz2     :     0.000000  d :     0.000000
      dxz     :     0.000000
      dyz     :     0.000000
      dx2y2   :     0.000000
      dxy     :     0.000000
      f0      :     0.000000  f :     0.000000
      f+1     :     0.000000
      f-1     :     0.000000
      f+2     :     0.000000
      f-2     :     0.000000
      f+3     :     0.000000
      f-3     :     0.000000
  5 C s       :     0.000000  s :     0.000000
      pz      :     0.000000  p :     0.000000
      px      :     0.000000
      py      :     0.000000
      dz2     :     0.000000  d :     0.000000
      dxz     :     0.000000
      dyz     :     0.000000
      dx2y2   :     0.000000
      dxy     :     0.000000
      f0      :     0.000000  f :     0.000000
      f+1     :     0.000000
      f-1     :     0.000000
      f+2     :     0.000000
      f-2     :     0.000000
      f+3     :     0.000000
      f-3     :     0.000000
  6 H s       :     0.000000  s :     0.000000
      pz      :     0.000000  p :     0.000000
      px      :     0.000000
      py      :     0.000000
  7 H s       :     0.000000  s :     0.000000
      pz      :     0.000000  p :     0.000000
      px      :     0.000000
      py      :     0.000000
  8 H s       :     0.000000  s :     0.000000
      pz      :     0.000000  p :     0.000000
      px      :     0.000000
      py      :     0.000000
  9 H s       :     0.000000  s :     0.000000
      pz      :     0.000000  p :     0.000000
      px      :     0.000000
      py      :     0.000000
 10 H s       :     0.000000  s :     0.000000
      pz      :     0.000000  p :     0.000000
      px      :     0.000000
      py      :     0.000000
 11 H s       :     0.000000  s :     0.000000
      pz      :     0.000000  p :     0.000000
      px      :     0.000000
      py      :     0.000000


                      *****************************
                      * MAYER POPULATION ANALYSIS *
                      *****************************

  NA   - Mulliken gross atomic population
  ZA   - Total nuclear charge
  QA   - Mulliken gross atomic charge
  VA   - Mayer's total valence
  BVA  - Mayer's bonded valence
  FA   - Mayer's free valence

  ATOM       NA         ZA         QA         VA         BVA        FA
  0 C      6.1071     6.0000    -0.1071     3.9207     3.9207     0.0000
  1 C      6.1073     6.0000    -0.1073     3.9207     3.9207     0.0000
  2 C      6.1071     6.0000    -0.1071     3.9204     3.9204     0.0000
  3 C      6.1072     6.0000    -0.1072     3.9208     3.9208     0.0000
  4 C      6.1072     6.0000    -0.1072     3.9208     3.9208     0.0000
  5 C      6.1071     6.0000    -0.1071     3.9206     3.9206    -0.0000
  6 H      0.8929     1.0000     0.1071     0.9686     0.9686     0.0000
  7 H      0.8929     1.0000     0.1071     0.9686     0.9686    -0.0000
  8 H      0.8927     1.0000     0.1073     0.9685     0.9685     0.0000
  9 H      0.8929     1.0000     0.1071     0.9686     0.9686     0.0000
 10 H      0.8930     1.0000     0.1070     0.9686     0.9686     0.0000
 11 H      0.8927     1.0000     0.1073     0.9685     0.9685    -0.0000

  Mayer bond orders larger than 0.100000
B(  0-C ,  1-C ) :   1.4147 B(  0-C ,  5-C ) :   1.4143 B(  0-C ,  6-H ) :   0.9659 
B(  1-C ,  2-C ) :   1.4144 B(  1-C , 11-H ) :   0.9658 B(  2-C ,  3-C ) :   1.4143 
B(  2-C , 10-H ) :   0.9660 B(  3-C ,  4-C ) :   1.4148 B(  3-C ,  9-H ) :   0.9659 
B(  4-C ,  5-C ) :   1.4145 B(  4-C ,  8-H ) :   0.9657 B(  5-C ,  7-H ) :   0.9660 


-------
TIMINGS
-------

Total SCF time: 0 days 0 hours 1 min 59 sec 

Total time                  ....     119.579 sec
Sum of individual times     ....     119.108 sec  ( 99.6%)

Fock matrix formation       ....     115.609 sec  ( 96.7%)
  Split-RI-J                ....       5.560 sec  (  4.8% of F)
  Chain of spheres X        ....      83.782 sec  ( 72.5% of F)
  XC integration            ....      25.998 sec  ( 22.5% of F)
    Basis function eval.    ....       4.962 sec  ( 19.1% of XC)
    Density eval.           ....       8.918 sec  ( 34.3% of XC)
    XC-Functional eval.     ....       0.909 sec  (  3.5% of XC)
    XC-Potential eval.      ....      10.476 sec  ( 40.3% of XC)
Diagonalization             ....       0.274 sec  (  0.2%)
Density matrix formation    ....       0.126 sec  (  0.1%)
Population analysis         ....       0.057 sec  (  0.0%)
Initial guess               ....       0.732 sec  (  0.6%)
Orbital Transformation      ....       0.000 sec  (  0.0%)
Orbital Orthonormalization  ....       0.000 sec  (  0.0%)
DIIS solution               ....       0.179 sec  (  0.1%)
Grid generation             ....       2.131 sec  (  1.8%)

Maximum memory used throughout the entire SCF-calculation: 126.4 MB

-------------------------   --------------------
FINAL SINGLE POINT ENERGY      -232.183230962159
-------------------------   --------------------


                            ***************************************
                            *     ORCA property calculations      *
                            ***************************************

                                    ---------------------
                                    Active property flags
                                    ---------------------
   (+) Dipole Moment


------------------------------------------------------------------------------
                       ORCA ELECTRIC PROPERTIES CALCULATION
------------------------------------------------------------------------------

Dipole Moment Calculation                       ... on
Quadrupole Moment Calculation                   ... off
Polarizability Calculation                      ... off
GBWName                                         ... benzen_FOD.gbw
Electron density                                ... benzen_FOD.scfp
The origin for moment calculation is the CENTER OF MASS  = (-7.464217,  0.406764  0.000000)

-------------
DIPOLE MOMENT
-------------
                                X             Y             Z
Electronic contribution:      0.00001       0.00000      -0.00000
Nuclear contribution   :     -0.00001      -0.00000       0.00000
                        -----------------------------------------
Total Dipole Moment    :      0.00000       0.00000      -0.00000
                        -----------------------------------------
Magnitude (a.u.)       :      0.00000
Magnitude (Debye)      :      0.00001



--------------------
Rotational spectrum 
--------------------
 
Rotational constants in cm-1:     0.190144     0.190142     0.095071 
Rotational constants in MHz :  5700.361471  5700.315818  2850.169322 

 Dipole components along the rotational axes: 
x,y,z [a.u.] :    -0.000002    -0.000003    -0.000000 
x,y,z [Debye]:    -0.000005    -0.000009    -0.000000 

 

Timings for individual modules:

Sum of individual times         ...      123.218 sec (=   2.054 min)
GTO integral calculation        ...        1.568 sec (=   0.026 min)   1.3 %
SCF iterations                  ...      121.650 sec (=   2.027 min)  98.7 %
                             ****ORCA TERMINATED NORMALLY****
TOTAL RUN TIME: 0 days 0 hours 2 minutes 3 seconds 778 msec
