
                                 *****************
                                 * O   R   C   A *
                                 *****************

                                            #,                                       
                                            ###                                      
                                            ####                                     
                                            #####                                    
                                            ######                                   
                                           ########,                                 
                                     ,,################,,,,,                         
                               ,,#################################,,                 
                          ,,##########################################,,             
                       ,#########################################, ''#####,          
                    ,#############################################,,   '####,        
                  ,##################################################,,,,####,       
                ,###########''''           ''''###############################       
              ,#####''   ,,,,##########,,,,          '''####'''          '####       
            ,##' ,,,,###########################,,,                        '##       
           ' ,,###''''                  '''############,,,                           
         ,,##''                                '''############,,,,        ,,,,,,###''
      ,#''                                            '''#######################'''  
     '                                                          ''''####''''         
             ,#######,   #######,   ,#######,      ##                                
            ,#'     '#,  ##    ##  ,#'     '#,    #''#        ######   ,####,        
            ##       ##  ##   ,#'  ##            #'  '#       #        #'  '#        
            ##       ##  #######   ##           ,######,      #####,   #    #        
            '#,     ,#'  ##    ##  '#,     ,#' ,#      #,         ##   #,  ,#        
             '#######'   ##     ##  '#######'  #'      '#     #####' # '####'        



                  #######################################################
                  #                        -***-                        #
                  #          Department of theory and spectroscopy      #
                  #    Directorship and core code : Frank Neese         #
                  #        Max Planck Institute fuer Kohlenforschung    #
                  #                Kaiser Wilhelm Platz 1               #
                  #                 D-45470 Muelheim/Ruhr               #
                  #                      Germany                        #
                  #                                                     #
                  #                  All rights reserved                #
                  #                        -***-                        #
                  #######################################################



                         Program Version 5.0.4 -  RELEASE  -

 With contributions from (in alphabetic order):
   Daniel Aravena         : Magnetic Suceptibility
   Michael Atanasov       : Ab Initio Ligand Field Theory (pilot matlab implementation)
   Alexander A. Auer      : GIAO ZORA, VPT2 properties, NMR spectrum
   Ute Becker             : Parallelization
   Giovanni Bistoni       : ED, misc. LED, open-shell LED, HFLD
   Martin Brehm           : Molecular dynamics
   Dmytro Bykov           : SCF Hessian
   Vijay G. Chilkuri      : MRCI spin determinant printing, contributions to CSF-ICE
   Dipayan Datta          : RHF DLPNO-CCSD density
   Achintya Kumar Dutta   : EOM-CC, STEOM-CC
   Dmitry Ganyushin       : Spin-Orbit,Spin-Spin,Magnetic field MRCI
   Miquel Garcia          : C-PCM and meta-GGA Hessian, CC/C-PCM, Gaussian charge scheme
   Yang Guo               : DLPNO-NEVPT2, F12-NEVPT2, CIM, IAO-localization
   Andreas Hansen         : Spin unrestricted coupled pair/coupled cluster methods
   Benjamin Helmich-Paris : MC-RPA, TRAH-SCF, COSX integrals
   Lee Huntington         : MR-EOM, pCC
   Robert Izsak           : Overlap fitted RIJCOSX, COSX-SCS-MP3, EOM
   Marcus Kettner         : VPT2
   Christian Kollmar      : KDIIS, OOCD, Brueckner-CCSD(T), CCSD density, CASPT2, CASPT2-K
   Simone Kossmann        : Meta GGA functionals, TD-DFT gradient, OOMP2, MP2 Hessian
   Martin Krupicka        : Initial AUTO-CI
   Lucas Lang             : DCDCAS
   Marvin Lechner         : AUTO-CI (C++ implementation), FIC-MRCC
   Dagmar Lenk            : GEPOL surface, SMD
   Dimitrios Liakos       : Extrapolation schemes; Compound Job, initial MDCI parallelization
   Dimitrios Manganas     : Further ROCIS development; embedding schemes
   Dimitrios Pantazis     : SARC Basis sets
   Anastasios Papadopoulos: AUTO-CI, single reference methods and gradients
   Taras Petrenko         : DFT Hessian,TD-DFT gradient, ASA, ECA, R-Raman, ABS, FL, XAS/XES, NRVS
   Peter Pinski           : DLPNO-MP2, DLPNO-MP2 Gradient
   Christoph Reimann      : Effective Core Potentials
   Marius Retegan         : Local ZFS, SOC
   Christoph Riplinger    : Optimizer, TS searches, QM/MM, DLPNO-CCSD(T), (RO)-DLPNO pert. Triples
   Tobias Risthaus        : Range-separated hybrids, TD-DFT gradient, RPA, STAB
   Michael Roemelt        : Original ROCIS implementation
   Masaaki Saitow         : Open-shell DLPNO-CCSD energy and density
   Barbara Sandhoefer     : DKH picture change effects
   Avijit Sen             : IP-ROCIS
   Kantharuban Sivalingam : CASSCF convergence, NEVPT2, FIC-MRCI
   Bernardo de Souza      : ESD, SOC TD-DFT
   Georgi Stoychev        : AutoAux, RI-MP2 NMR, DLPNO-MP2 response
   Willem Van den Heuvel  : Paramagnetic NMR
   Boris Wezisla          : Elementary symmetry handling
   Frank Wennmohs         : Technical directorship


 We gratefully acknowledge several colleagues who have allowed us to
 interface, adapt or use parts of their codes:
   Stefan Grimme, W. Hujo, H. Kruse, P. Pracht,  : VdW corrections, initial TS optimization,
                  C. Bannwarth, S. Ehlert          DFT functionals, gCP, sTDA/sTD-DF
   Ed Valeev, F. Pavosevic, A. Kumar             : LibInt (2-el integral package), F12 methods
   Garnet Chan, S. Sharma, J. Yang, R. Olivares  : DMRG
   Ulf Ekstrom                                   : XCFun DFT Library
   Mihaly Kallay                                 : mrcc  (arbitrary order and MRCC methods)
   Jiri Pittner, Ondrej Demel                    : Mk-CCSD
   Frank Weinhold                                : gennbo (NPA and NBO analysis)
   Christopher J. Cramer and Donald G. Truhlar   : smd solvation model
   Lars Goerigk                                  : TD-DFT with DH, B97 family of functionals
   V. Asgeirsson, H. Jonsson                     : NEB implementation
   FAccTs GmbH                                   : IRC, NEB, NEB-TS, DLPNO-Multilevel, CI-OPT
                                                   MM, QMMM, 2- and 3-layer-ONIOM, Crystal-QMMM,
                                                   LR-CPCM, SF, NACMEs, symmetry and pop. for TD-DFT,
                                                   nearIR, NL-DFT gradient (VV10), updates on ESD,
                                                   ML-optimized integration grids
   S Lehtola, MJT Oliveira, MAL Marques          : LibXC Library
   Liviu Ungur et al                             : ANISO software


 Your calculation uses the libint2 library for the computation of 2-el integrals
 For citations please refer to: http://libint.valeyev.net

 Your ORCA version has been built with support for libXC version: 5.1.0
 For citations please refer to: https://tddft.org/programs/libxc/

 This ORCA versions uses:
   CBLAS   interface :  Fast vector & matrix operations
   LAPACKE interface :  Fast linear algebra routines
   Shared memory     :  Shared parallel matrices


Your calculation utilizes the atom-pairwise dispersion correction
with the Becke-Johnson damping scheme (D3BJ)
Cite in your paper:
S.Grimme, S.Ehrlich, L.Goerigk, J Comput Chem, (2011), 32, 1456–1465 
S.Grimme, J.Antony, S.Ehrlich and H.Krieg, J.Chem.Phys., 132, (2010), 154104 
   

================================================================================

----- Orbital basis set information -----
Your calculation utilizes the basis: def2-SVP
   F. Weigend and R. Ahlrichs, Phys. Chem. Chem. Phys. 7, 3297 (2005).

----- AuxJ basis set information -----
Your calculation utilizes the auxiliary basis: def2/J
   F. Weigend, Phys. Chem. Chem. Phys. 8, 1057 (2006).

================================================================================
                                        WARNINGS
                       Please study these warnings very carefully!
================================================================================


WARNING: your system is open-shell and RHF/RKS was chosen
  ===> : WILL SWITCH to UHF/UKS


INFO   : the flag for use of the SHARK integral package has been found!

================================================================================
                                       INPUT FILE
================================================================================
NAME = benzen_fukui_kation.inp
|  1> !B3LYP D3 DEF2-SVP KEEPDENS
|  2> * xyz 1 2
|  3>   C      -4.127240      1.598090      0.000000
|  4>   C      -5.236140      0.753090      0.000000
|  5>   C      -5.058790     -0.629750      0.000000
|  6>   C      -3.772550     -1.167590      0.000000
|  7>   C      -2.663650     -0.322590      0.000000
|  8>   C      -2.840990      1.060250      0.000000
|  9>   H      -4.265550      2.676550      0.000000
| 10>   H      -1.976170      1.719260      0.000000
| 11>   H      -1.660520     -0.742040      0.000000
| 12>   H      -3.634240     -2.246050      0.000000
| 13>   H      -5.923620     -1.288760      0.000000
| 14>   H      -6.239270      1.172540      0.000000
| 15> *
| 16> 
| 17>                          ****END OF INPUT****
================================================================================

                       ****************************
                       * Single Point Calculation *
                       ****************************

---------------------------------
CARTESIAN COORDINATES (ANGSTROEM)
---------------------------------
  C     -4.127240    1.598090    0.000000
  C     -5.236140    0.753090    0.000000
  C     -5.058790   -0.629750    0.000000
  C     -3.772550   -1.167590    0.000000
  C     -2.663650   -0.322590    0.000000
  C     -2.840990    1.060250    0.000000
  H     -4.265550    2.676550    0.000000
  H     -1.976170    1.719260    0.000000
  H     -1.660520   -0.742040    0.000000
  H     -3.634240   -2.246050    0.000000
  H     -5.923620   -1.288760    0.000000
  H     -6.239270    1.172540    0.000000

----------------------------
CARTESIAN COORDINATES (A.U.)
----------------------------
  NO LB      ZA    FRAG     MASS         X           Y           Z
   0 C     6.0000    0    12.011   -7.799353    3.019952    0.000000
   1 C     6.0000    0    12.011   -9.894871    1.423134    0.000000
   2 C     6.0000    0    12.011   -9.559728   -1.190055    0.000000
   3 C     6.0000    0    12.011   -7.129086   -2.206425    0.000000
   4 C     6.0000    0    12.011   -5.033569   -0.609607    0.000000
   5 C     6.0000    0    12.011   -5.368693    2.003582    0.000000
   6 H     1.0000    0     1.008   -8.060721    5.057946    0.000000
   7 H     1.0000    0     1.008   -3.734420    3.248931    0.000000
   8 H     1.0000    0     1.008   -3.137928   -1.402252    0.000000
   9 H     1.0000    0     1.008   -6.867718   -4.244419    0.000000
  10 H     1.0000    0     1.008  -11.194020   -2.435403    0.000000
  11 H     1.0000    0     1.008  -11.790512    2.215779    0.000000

--------------------------------
INTERNAL COORDINATES (ANGSTROEM)
--------------------------------
 C      0   0   0     0.000000000000     0.00000000     0.00000000
 C      1   0   0     1.394160754719     0.00000000     0.00000000
 C      2   1   0     1.394166234027   119.99967529     0.00000000
 C      3   2   1     1.394161110919   120.00051591     0.00000000
 C      4   3   2     1.394160754719   119.99980880     0.00000000
 C      5   4   3     1.394164961975   120.00008292     0.00000000
 H      1   2   3     1.087292797594   119.99983709   180.00000085
 H      6   5   4     1.087293802291   120.00020724   180.00000000
 H      5   4   3     1.087293934224   120.00018946   180.00000085
 H      4   3   2     1.087292797594   120.00035411   180.00000085
 H      3   2   1     1.087301756184   119.99948022   180.00000085
 H      2   1   3     1.087293934224   120.00018946   180.00000000

---------------------------
INTERNAL COORDINATES (A.U.)
---------------------------
 C      0   0   0     0.000000000000     0.00000000     0.00000000
 C      1   0   0     2.634582013081     0.00000000     0.00000000
 C      2   1   0     2.634592367471   119.99967529     0.00000000
 C      3   2   1     2.634582686201   120.00051591     0.00000000
 C      4   3   2     2.634582013081   119.99980880     0.00000000
 C      5   4   3     2.634589963642   120.00008292     0.00000000
 H      1   2   3     2.054685614838   119.99983709   180.00000085
 H      6   5   4     2.054687513440   120.00020724   180.00000000
 H      5   4   3     2.054687762757   120.00018946   180.00000085
 H      4   3   2     2.054685614838   120.00035411   180.00000085
 H      3   2   1     2.054702544119   119.99948022   180.00000085
 H      2   1   3     2.054687762757   120.00018946   180.00000000

---------------------
BASIS SET INFORMATION
---------------------
There are 2 groups of distinct atoms

 Group   1 Type C   : 7s4p1d contracted to 3s2p1d pattern {511/31/1}
 Group   2 Type H   : 4s1p contracted to 2s1p pattern {31/1}

Atom   0C    basis set group =>   1
Atom   1C    basis set group =>   1
Atom   2C    basis set group =>   1
Atom   3C    basis set group =>   1
Atom   4C    basis set group =>   1
Atom   5C    basis set group =>   1
Atom   6H    basis set group =>   2
Atom   7H    basis set group =>   2
Atom   8H    basis set group =>   2
Atom   9H    basis set group =>   2
Atom  10H    basis set group =>   2
Atom  11H    basis set group =>   2
---------------------------------
AUXILIARY/J BASIS SET INFORMATION
---------------------------------
There are 2 groups of distinct atoms

 Group   1 Type C   : 12s5p4d2f1g contracted to 6s4p3d1f1g pattern {711111/2111/211/2/1}
 Group   2 Type H   : 5s2p1d contracted to 3s1p1d pattern {311/2/1}

Atom   0C    basis set group =>   1
Atom   1C    basis set group =>   1
Atom   2C    basis set group =>   1
Atom   3C    basis set group =>   1
Atom   4C    basis set group =>   1
Atom   5C    basis set group =>   1
Atom   6H    basis set group =>   2
Atom   7H    basis set group =>   2
Atom   8H    basis set group =>   2
Atom   9H    basis set group =>   2
Atom  10H    basis set group =>   2
Atom  11H    basis set group =>   2
------------------------------------------------------------------------------
                           ORCA GTO INTEGRAL CALCULATION
                           -- RI-GTO INTEGRALS CHOSEN --
------------------------------------------------------------------------------
------------------------------------------------------------------------------
                   ___                                                        
                  /   \      - P O W E R E D   B Y -                         
                 /     \                                                     
                 |  |  |   _    _      __       _____    __    __             
                 |  |  |  | |  | |    /  \     |  _  \  |  |  /  |          
                  \  \/   | |  | |   /    \    | | | |  |  | /  /          
                 / \  \   | |__| |  /  /\  \   | |_| |  |  |/  /          
                |  |  |   |  __  | /  /__\  \  |    /   |      \           
                |  |  |   | |  | | |   __   |  |    \   |  |\   \          
                \     /   | |  | | |  |  |  |  | |\  \  |  | \   \       
                 \___/    |_|  |_| |__|  |__|  |_| \__\ |__|  \__/        
                                                                              
                      - O R C A' S   B I G   F R I E N D -                    
                                      &                                       
                       - I N T E G R A L  F E E D E R -                       
                                                                              
 v1 FN, 2020, v2 2021                                                         
------------------------------------------------------------------------------


Reading SHARK input file benzen_fukui_kation.SHARKINP.tmp ... ok
----------------------
SHARK INTEGRAL PACKAGE
----------------------

Number of atoms                             ...     12
Number of basis functions                   ...    114
Number of shells                            ...     54
Maximum angular momentum                    ...      2
Integral batch strategy                     ... SHARK/LIBINT Hybrid
RI-J (if used) integral strategy            ... SPLIT-RIJ (Revised 2003 algorithm where possible)
Printlevel                                  ...      1
Contraction scheme used                     ... SEGMENTED contraction
Coulomb Range Separation                    ... NOT USED
Exchange Range Separation                   ... NOT USED
Finite Nucleus Model                        ... NOT USED
Auxiliary Coulomb fitting basis             ... AVAILABLE
   # of basis functions in Aux-J            ...    360
   # of shells in Aux-J                     ...    120
   Maximum angular momentum in Aux-J        ...      4
Auxiliary J/K fitting basis                 ... NOT available
Auxiliary Correlation fitting basis         ... NOT available
Auxiliary 'external' fitting basis          ... NOT available
Integral threshold                          ...     1.000000e-10
Primitive cut-off                           ...     1.000000e-11
Primitive pair pre-selection threshold      ...     1.000000e-11

Calculating pre-screening integrals         ... done (  0.0 sec) Dimension = 54
Organizing shell pair data                  ... done (  0.0 sec)
Shell pair information
Total number of shell pairs                 ...      1485
Shell pairs after pre-screening             ...      1455
Total number of primitive shell pairs       ...      5349
Primitive shell pairs kept                  ...      4104
          la=0 lb=0:    456 shell pairs
          la=1 lb=0:    522 shell pairs
          la=1 lb=1:    168 shell pairs
          la=2 lb=0:    180 shell pairs
          la=2 lb=1:    108 shell pairs
          la=2 lb=2:     21 shell pairs

Calculating one electron integrals          ... done (  0.0 sec)
Calculating RI/J V-Matrix + Cholesky decomp.... done (  0.0 sec)
Calculating Nuclear repulsion               ... done (  0.0 sec) ENN=    203.482178309162 Eh

SHARK setup successfully completed in   0.2 seconds

Maximum memory used throughout the entire GTOINT-calculation: 13.6 MB
-------------------------------------------------------------------------------
                                 ORCA SCF
-------------------------------------------------------------------------------

------------
SCF SETTINGS
------------
Hamiltonian:
 Density Functional     Method          .... DFT(GTOs)
 Exchange Functional    Exchange        .... B88
   X-Alpha parameter    XAlpha          ....  0.666667
   Becke's b parameter  XBeta           ....  0.004200
 Correlation Functional Correlation     .... LYP
 LDA part of GGA corr.  LDAOpt          .... VWN-5
 Gradients option       PostSCFGGA      .... off
 Hybrid DFT is turned on
   Fraction HF Exchange ScalHFX         ....  0.200000
   Scaling of DF-GGA-X  ScalDFX         ....  0.720000
   Scaling of DF-GGA-C  ScalDFC         ....  0.810000
   Scaling of DF-LDA-C  ScalLDAC        ....  1.000000
   Perturbative correction              ....  0.000000
   Density functional embedding theory  .... OFF
   NL short-range parameter             ....  4.800000
 RI-approximation to the Coulomb term is turned on
   Number of AuxJ basis functions       .... 360
   RIJ-COSX (HFX calculated with COS-X)).... on


General Settings:
 Integral files         IntName         .... benzen_fukui_kation
 Hartree-Fock type      HFTyp           .... UHF
 Total Charge           Charge          ....    1
 Multiplicity           Mult            ....    2
 Number of Electrons    NEL             ....   41
 Basis Dimension        Dim             ....  114
 Nuclear Repulsion      ENuc            ....    203.4821783092 Eh

Convergence Acceleration:
 DIIS                   CNVDIIS         .... on
   Start iteration      DIISMaxIt       ....    12
   Startup error        DIISStart       ....  0.200000
   # of expansion vecs  DIISMaxEq       ....     5
   Bias factor          DIISBfac        ....   1.050
   Max. coefficient     DIISMaxC        ....  10.000
 Trust-Rad. Augm. Hess. CNVTRAH         .... auto
   Auto Start mean grad. ratio tolernc. ....  1.125000
   Auto Start start iteration           ....    20
   Auto Start num. interpolation iter.  ....    10
   Max. Number of Micro iterations      ....    16
   Max. Number of Macro iterations      .... Maxiter - #DIIS iter
   Number of Davidson start vectors     ....     2
   Converg. threshold I  (grad. norm)   ....   5.000e-05
   Converg. threshold II (energy diff.) ....   1.000e-06
   Grad. Scal. Fac. for Micro threshold ....   0.100
   Minimum threshold for Micro iter.    ....   0.010
   NR start threshold (gradient norm)   ....   0.001
   Initial trust radius                 ....   0.400
   Minimum AH scaling param. (alpha)    ....   1.000
   Maximum AH scaling param. (alpha)    .... 1000.000
   Orbital update algorithm             .... Taylor
   White noise on init. David. guess    .... on
   Maximum white noise                  ....   0.010
   Quad. conv. algorithm                .... NR
 SOSCF                  CNVSOSCF        .... off
 Level Shifting         CNVShift        .... on
   Level shift para.    LevelShift      ....    0.2500
   Turn off err/grad.   ShiftErr        ....    0.0010
 Zerner damping         CNVZerner       .... off
 Static damping         CNVDamp         .... on
   Fraction old density DampFac         ....    0.7000
   Max. Damping (<1)    DampMax         ....    0.9800
   Min. Damping (>=0)   DampMin         ....    0.0000
   Turn off err/grad.   DampErr         ....    0.1000
 Fernandez-Rico         CNVRico         .... off

SCF Procedure:
 Maximum # iterations   MaxIter         ....   125
 SCF integral mode      SCFMode         .... Direct
   Integral package                     .... SHARK and LIBINT hybrid scheme
 Reset frequency        DirectResetFreq ....    20
 Integral Threshold     Thresh          ....  1.000e-10 Eh
 Primitive CutOff       TCut            ....  1.000e-11 Eh

Convergence Tolerance:
 Convergence Check Mode ConvCheckMode   .... Total+1el-Energy
 Convergence forced     ConvForced      .... 0
 Energy Change          TolE            ....  1.000e-06 Eh
 1-El. energy change                    ....  1.000e-03 Eh
 DIIS Error             TolErr          ....  1.000e-06


Diagonalization of the overlap matrix:
Smallest eigenvalue                        ... 3.141e-04
Time for diagonalization                   ...    0.003 sec
Threshold for overlap eigenvalues          ... 1.000e-08
Number of eigenvalues below threshold      ... 0
Time for construction of square roots      ...    0.003 sec
Total time needed                          ...    0.006 sec

Time for model grid setup =    0.154 sec

------------------------------
INITIAL GUESS: MODEL POTENTIAL
------------------------------
Loading Hartree-Fock densities                     ... done
Calculating cut-offs                               ... done
Initializing the effective Hamiltonian             ... done
Setting up the integral package (SHARK)            ... done
Starting the Coulomb interaction                   ... done (   0.1 sec)
Reading the grid                                   ... done
Mapping shells                                     ... done
Starting the XC term evaluation                    ... done (   0.2 sec)
  promolecular density results
     # of electrons  =     41.996733943
     EX              =    -32.606761046
     EC              =     -1.377217074
     EX+EC           =    -33.983978120
Transforming the Hamiltonian                       ... done (   0.0 sec)
Diagonalizing the Hamiltonian                      ... done (   0.0 sec)
Back transforming the eigenvectors                 ... done (   0.0 sec)
Now organizing SCF variables                       ... done
                      ------------------
                      INITIAL GUESS DONE (   0.5 sec)
                      ------------------
-------------------
DFT GRID GENERATION
-------------------

General Integration Accuracy     IntAcc      ... 4.388
Radial Grid Type                 RadialGrid  ... OptM3 with GC (2021)
Angular Grid (max. ang.)         AngularGrid ... 4 (Lebedev-302)
Angular grid pruning method      GridPruning ... 4 (adaptive)
Weight generation scheme         WeightScheme... Becke
Basis function cutoff            BFCut       ... 1.0000e-10
Integration weight cutoff        WCut        ... 1.0000e-14
Angular grids for H and He will be reduced by one unit
Partially contracted basis set               ... off
Rotationally invariant grid construction     ... off

Total number of grid points                  ...    55560
Total number of batches                      ...      872
Average number of points per batch           ...       63
Average number of grid points per atom       ...     4630
Time for grid setup =    0.610 sec

--------------------
COSX GRID GENERATION
--------------------

GRIDX 1
-------
General Integration Accuracy     IntAcc      ... 3.816
Radial Grid Type                 RadialGrid  ... OptM3 with GC (2021)
Angular Grid (max. ang.)         AngularGrid ... 1 (Lebedev-50)
Angular grid pruning method      GridPruning ... 4 (adaptive)
Weight generation scheme         WeightScheme... Becke
Basis function cutoff            BFCut       ... 1.0000e-10
Integration weight cutoff        WCut        ... 1.0000e-14
Angular grids for H and He will be reduced by one unit
Partially contracted basis set               ... on
Rotationally invariant grid construction     ... off

Total number of grid points                  ...     7132
Total number of batches                      ...      114
Average number of points per batch           ...       62
Average number of grid points per atom       ...      594
UseSFitting                                  ... on

GRIDX 2
-------
General Integration Accuracy     IntAcc      ... 4.020
Radial Grid Type                 RadialGrid  ... OptM3 with GC (2021)
Angular Grid (max. ang.)         AngularGrid ... 2 (Lebedev-110)
Angular grid pruning method      GridPruning ... 4 (adaptive)
Weight generation scheme         WeightScheme... Becke
Basis function cutoff            BFCut       ... 1.0000e-10
Integration weight cutoff        WCut        ... 1.0000e-14
Angular grids for H and He will be reduced by one unit
Partially contracted basis set               ... on
Rotationally invariant grid construction     ... off

Total number of grid points                  ...    15506
Total number of batches                      ...      248
Average number of points per batch           ...       62
Average number of grid points per atom       ...     1292
UseSFitting                                  ... on

GRIDX 3
-------
General Integration Accuracy     IntAcc      ... 4.338
Radial Grid Type                 RadialGrid  ... OptM3 with GC (2021)
Angular Grid (max. ang.)         AngularGrid ... 3 (Lebedev-194)
Angular grid pruning method      GridPruning ... 4 (adaptive)
Weight generation scheme         WeightScheme... Becke
Basis function cutoff            BFCut       ... 1.0000e-10
Integration weight cutoff        WCut        ... 1.0000e-14
Angular grids for H and He will be reduced by one unit
Partially contracted basis set               ... on
Rotationally invariant grid construction     ... off

Total number of grid points                  ...    34078
Total number of batches                      ...      538
Average number of points per batch           ...       63
Average number of grid points per atom       ...     2840
UseSFitting                                  ... on

Time for X-Grid setup             =    0.664 sec

--------------
SCF ITERATIONS
--------------
ITER       Energy         Delta-E        Max-DP      RMS-DP      [F,P]     Damp
               ***  Starting incremental Fock matrix formation  ***
  0   -231.5400134243   0.000000000000 0.02306723  0.00112467  0.0458565 0.7000
  1   -231.5618580780  -0.021844653726 0.01539641  0.00082484  0.0274410 0.7000
                               ***Turning on DIIS***
  2   -231.5726597725  -0.010801694423 0.02685681  0.00170362  0.0141964 0.0000
  3   -231.5901878510  -0.017528078506 0.01072797  0.00036752  0.0112085 0.0000
  4   -231.5933018537  -0.003114002773 0.00256213  0.00010424  0.0022042 0.0000
  5   -231.5934646478  -0.000162794064 0.00201111  0.00005843  0.0017572 0.0000
  6   -231.5935115540  -0.000046906174 0.00157582  0.00004786  0.0009215 0.0000
               *** Restarting incremental Fock matrix formation ***
                                   *** Resetting DIIS ***
  7   -231.5935806987  -0.000069144767 0.00070165  0.00002105  0.0004019 0.0000
  8   -231.5935815489  -0.000000850164 0.00045332  0.00001365  0.0004017 0.0000
  9   -231.5935841534  -0.000002604495 0.00021593  0.00000733  0.0001360 0.0000
 10   -231.5935848138  -0.000000660363 0.00028367  0.00000773  0.0000816 0.0000
                 **** Energy Check signals convergence ****

               *****************************************************
               *                     SUCCESS                       *
               *           SCF CONVERGED AFTER  11 CYCLES          *
               *****************************************************

Old exchange energy                            =     -6.584168357 Eh
New exchange energy                            =     -6.584185077 Eh
Exchange energy change after final integration =     -0.000016720 Eh
Total energy after final integration           =   -231.593601998 Eh
Final COS-X integration done in                =     5.848 sec

----------------
TOTAL SCF ENERGY
----------------

Total Energy       :         -231.59360200 Eh           -6301.98230 eV

Components:
Nuclear Repulsion  :          203.48217831 Eh            5537.03157 eV
Electronic Energy  :         -435.07578031 Eh          -11839.01387 eV
One Electron Energy:         -703.97006072 Eh          -19155.99922 eV
Two Electron Energy:          268.89428041 Eh            7316.98536 eV
Max COSX asymmetry :            0.00000061 Eh               0.00002 eV

Virial components:
Potential Energy   :         -460.96761655 Eh          -12543.56655 eV
Kinetic Energy     :          229.37401455 Eh            6241.58425 eV
Virial Ratio       :            2.00967672


DFT components:
N(Alpha)           :       20.999984589965 electrons
N(Beta)            :       19.999970605261 electrons
N(Total)           :       40.999955195226 electrons
E(X)               :      -26.125363390554 Eh       
E(C)               :       -1.595800716856 Eh       
E(XC)              :      -27.721164107411 Eh       
DFET-embed. en.    :        0.000000000000 Eh       

---------------
SCF CONVERGENCE
---------------

  Last Energy change         ...   -4.6345e-07  Tolerance :   1.0000e-06
  Last MAX-Density change    ...    0.0000e+00  Tolerance :   1.0000e-05
  Last RMS-Density change    ...    0.0000e+00  Tolerance :   1.0000e-06
  Last DIIS Error            ...    9.8063e-05  Tolerance :   1.0000e-06

             **** THE GBW FILE WAS UPDATED (benzen_fukui_kation.gbw) ****
             **** DENSITY benzen_fukui_kation.scfp WAS UPDATED ****
             **** ENERGY FILE WAS UPDATED (benzen_fukui_kation.en.tmp) ****
----------------------
UHF SPIN CONTAMINATION
----------------------

Warning: in a DFT calculation there is little theoretical justification to 
         calculate <S**2> as in Hartree-Fock theory. We will do it anyways
         but you should keep in mind that the values have only limited relevance

Expectation value of <S**2>     :     0.764396
Ideal value S*(S+1) for S=0.5   :     0.750000
Deviation                       :     0.014396

             **** THE GBW FILE WAS UPDATED (benzen_fukui_kation.gbw) ****
             **** DENSITY benzen_fukui_kation.scfp WAS UPDATED ****
----------------
ORBITAL ENERGIES
----------------
                 SPIN UP ORBITALS
  NO   OCC          E(Eh)            E(eV) 
   0   1.0000     -10.448244      -284.3112 
   1   1.0000     -10.448199      -284.3100 
   2   1.0000     -10.435013      -283.9512 
   3   1.0000     -10.434968      -283.9499 
   4   1.0000     -10.409844      -283.2663 
   5   1.0000     -10.409800      -283.2651 
   6   1.0000      -1.094305       -29.7775 
   7   1.0000      -0.990550       -26.9542 
   8   1.0000      -0.967164       -26.3179 
   9   1.0000      -0.830686       -22.6041 
  10   1.0000      -0.829812       -22.5803 
  11   1.0000      -0.747327       -20.3358 
  12   1.0000      -0.688872       -18.7452 
  13   1.0000      -0.675027       -18.3684 
  14   1.0000      -0.655774       -17.8445 
  15   1.0000      -0.638807       -17.3828 
  16   1.0000      -0.614491       -16.7211 
  17   1.0000      -0.572170       -15.5695 
  18   1.0000      -0.569905       -15.5079 
  19   1.0000      -0.515481       -14.0270 
  20   1.0000      -0.482618       -13.1327 
  21   0.0000      -0.256747        -6.9864 
  22   0.0000      -0.232379        -6.3234 
  23   0.0000      -0.118567        -3.2264 
  24   0.0000      -0.083575        -2.2742 
  25   0.0000      -0.076584        -2.0840 
  26   0.0000      -0.067484        -1.8363 
  27   0.0000      -0.037786        -1.0282 
  28   0.0000      -0.030401        -0.8272 
  29   0.0000      -0.007531        -0.2049 
  30   0.0000       0.073683         2.0050 
  31   0.0000       0.076975         2.0946 
  32   0.0000       0.084404         2.2967 
  33   0.0000       0.087423         2.3789 
  34   0.0000       0.144727         3.9382 
  35   0.0000       0.196898         5.3579 
  36   0.0000       0.204165         5.5556 
  37   0.0000       0.214644         5.8408 
  38   0.0000       0.231075         6.2879 
  39   0.0000       0.244755         6.6601 
  40   0.0000       0.256084         6.9684 
  41   0.0000       0.291516         7.9326 
  42   0.0000       0.292844         7.9687 
  43   0.0000       0.308929         8.4064 
  44   0.0000       0.328801         8.9471 
  45   0.0000       0.331389         9.0176 
  46   0.0000       0.378784        10.3072 
  47   0.0000       0.394944        10.7470 
  48   0.0000       0.435372        11.8471 
  49   0.0000       0.444614        12.0986 
  50   0.0000       0.464219        12.6320 
  51   0.0000       0.469853        12.7854 
  52   0.0000       0.479028        13.0350 
  53   0.0000       0.505228        13.7479 
  54   0.0000       0.513038        13.9605 
  55   0.0000       0.529826        14.4173 
  56   0.0000       0.534998        14.5580 
  57   0.0000       0.559086        15.2135 
  58   0.0000       0.565412        15.3856 
  59   0.0000       0.621686        16.9169 
  60   0.0000       0.686637        18.6843 
  61   0.0000       0.805674        21.9235 
  62   0.0000       0.813858        22.1462 
  63   0.0000       0.928901        25.2767 
  64   0.0000       1.002425        27.2774 
  65   0.0000       1.014445        27.6045 
  66   0.0000       1.031810        28.0770 
  67   0.0000       1.062512        28.9124 
  68   0.0000       1.067147        29.0386 
  69   0.0000       1.078451        29.3461 
  70   0.0000       1.079710        29.3804 
  71   0.0000       1.323810        36.0227 
  72   0.0000       1.422127        38.6980 
  73   0.0000       1.425803        38.7981 
  74   0.0000       1.463104        39.8131 
  75   0.0000       1.499348        40.7993 
  76   0.0000       1.521446        41.4006 
  77   0.0000       1.528789        41.6005 
  78   0.0000       1.533886        41.7391 
  79   0.0000       1.537629        41.8410 
  80   0.0000       1.545237        42.0480 
  81   0.0000       1.550179        42.1825 
  82   0.0000       1.614128        43.9226 
  83   0.0000       1.615854        43.9696 
  84   0.0000       1.712397        46.5967 
  85   0.0000       1.754020        47.7293 
  86   0.0000       1.770214        48.1700 
  87   0.0000       1.770602        48.1805 
  88   0.0000       1.773275        48.2533 
  89   0.0000       1.777843        48.3776 
  90   0.0000       1.903070        51.7852 
  91   0.0000       1.911080        52.0031 
  92   0.0000       1.914741        52.1027 
  93   0.0000       1.929873        52.5145 
  94   0.0000       2.049907        55.7808 
  95   0.0000       2.068306        56.2815 
  96   0.0000       2.086585        56.7789 
  97   0.0000       2.088630        56.8345 
  98   0.0000       2.108756        57.3822 
  99   0.0000       2.127898        57.9030 
 100   0.0000       2.330076        63.4046 
 101   0.0000       2.366004        64.3822 
 102   0.0000       2.382465        64.8302 
 103   0.0000       2.408654        65.5428 
 104   0.0000       2.508144        68.2501 
 105   0.0000       2.515797        68.4583 
 106   0.0000       2.522009        68.6274 
 107   0.0000       2.632414        71.6316 
 108   0.0000       2.644053        71.9483 
 109   0.0000       2.669703        72.6463 
 110   0.0000       2.899708        78.9051 
 111   0.0000       2.910462        79.1977 
 112   0.0000       3.028077        82.3982 
 113   0.0000       3.441438        93.6463 

                 SPIN DOWN ORBITALS
  NO   OCC          E(Eh)            E(eV) 
   0   1.0000     -10.442467      -284.1540 
   1   1.0000     -10.442430      -284.1530 
   2   1.0000     -10.431789      -283.8634 
   3   1.0000     -10.431748      -283.8623 
   4   1.0000     -10.411220      -283.3037 
   5   1.0000     -10.411176      -283.3025 
   6   1.0000      -1.083099       -29.4726 
   7   1.0000      -0.971026       -26.4230 
   8   1.0000      -0.964719       -26.2513 
   9   1.0000      -0.824691       -22.4410 
  10   1.0000      -0.821261       -22.3476 
  11   1.0000      -0.744730       -20.2651 
  12   1.0000      -0.684153       -18.6168 
  13   1.0000      -0.670766       -18.2525 
  14   1.0000      -0.651073       -17.7166 
  15   1.0000      -0.638612       -17.3775 
  16   1.0000      -0.581399       -15.8207 
  17   1.0000      -0.570125       -15.5139 
  18   1.0000      -0.566955       -15.4276 
  19   1.0000      -0.476783       -12.9739 
  20   0.0000      -0.420617       -11.4456 
  21   0.0000      -0.219894        -5.9836 
  22   0.0000      -0.216462        -5.8902 
  23   0.0000      -0.117085        -3.1861 
  24   0.0000      -0.074731        -2.0335 
  25   0.0000      -0.067281        -1.8308 
  26   0.0000      -0.061201        -1.6654 
  27   0.0000      -0.033136        -0.9017 
  28   0.0000      -0.029717        -0.8086 
  29   0.0000      -0.005092        -0.1386 
  30   0.0000       0.078918         2.1475 
  31   0.0000       0.081167         2.2087 
  32   0.0000       0.087887         2.3915 
  33   0.0000       0.091121         2.4795 
  34   0.0000       0.149923         4.0796 
  35   0.0000       0.202317         5.5053 
  36   0.0000       0.212888         5.7930 
  37   0.0000       0.215215         5.8563 
  38   0.0000       0.231992         6.3128 
  39   0.0000       0.258690         7.0393 
  40   0.0000       0.265835         7.2337 
  41   0.0000       0.296927         8.0798 
  42   0.0000       0.299615         8.1530 
  43   0.0000       0.331861         9.0304 
  44   0.0000       0.332126         9.0376 
  45   0.0000       0.333747         9.0817 
  46   0.0000       0.398430        10.8418 
  47   0.0000       0.398841        10.8530 
  48   0.0000       0.440377        11.9833 
  49   0.0000       0.446147        12.1403 
  50   0.0000       0.473120        12.8743 
  51   0.0000       0.474189        12.9033 
  52   0.0000       0.479916        13.0592 
  53   0.0000       0.513572        13.9750 
  54   0.0000       0.515457        14.0263 
  55   0.0000       0.532902        14.5010 
  56   0.0000       0.536276        14.5928 
  57   0.0000       0.562013        15.2931 
  58   0.0000       0.566439        15.4136 
  59   0.0000       0.628043        17.0899 
  60   0.0000       0.688327        18.7303 
  61   0.0000       0.811756        22.0890 
  62   0.0000       0.813964        22.1491 
  63   0.0000       0.937465        25.5097 
  64   0.0000       1.019479        27.7414 
  65   0.0000       1.026390        27.9295 
  66   0.0000       1.033822        28.1317 
  67   0.0000       1.064591        28.9690 
  68   0.0000       1.070527        29.1305 
  69   0.0000       1.086390        29.5622 
  70   0.0000       1.090169        29.6650 
  71   0.0000       1.324456        36.0403 
  72   0.0000       1.427513        38.8446 
  73   0.0000       1.428412        38.8691 
  74   0.0000       1.466326        39.9008 
  75   0.0000       1.514313        41.2065 
  76   0.0000       1.530406        41.6445 
  77   0.0000       1.539022        41.8789 
  78   0.0000       1.539980        41.9050 
  79   0.0000       1.540963        41.9317 
  80   0.0000       1.545880        42.0655 
  81   0.0000       1.555195        42.3190 
  82   0.0000       1.616735        43.9936 
  83   0.0000       1.622522        44.1511 
  84   0.0000       1.719243        46.7830 
  85   0.0000       1.766336        48.0644 
  86   0.0000       1.773416        48.2571 
  87   0.0000       1.773786        48.2672 
  88   0.0000       1.778184        48.3868 
  89   0.0000       1.779035        48.4100 
  90   0.0000       1.911182        52.0059 
  91   0.0000       1.919364        52.2286 
  92   0.0000       1.920166        52.2504 
  93   0.0000       1.933905        52.6242 
  94   0.0000       2.072027        56.3827 
  95   0.0000       2.075825        56.4861 
  96   0.0000       2.089151        56.8487 
  97   0.0000       2.091672        56.9173 
  98   0.0000       2.126971        57.8778 
  99   0.0000       2.132148        58.0187 
 100   0.0000       2.341659        63.7198 
 101   0.0000       2.379468        64.7486 
 102   0.0000       2.384914        64.8968 
 103   0.0000       2.423670        65.9514 
 104   0.0000       2.510485        68.3138 
 105   0.0000       2.516928        68.4891 
 106   0.0000       2.522294        68.6351 
 107   0.0000       2.636244        71.7358 
 108   0.0000       2.645003        71.9742 
 109   0.0000       2.677599        72.8612 
 110   0.0000       2.903330        79.0036 
 111   0.0000       2.911146        79.2163 
 112   0.0000       3.030469        82.4633 
 113   0.0000       3.444012        93.7163 

                    ********************************
                    * MULLIKEN POPULATION ANALYSIS *
                    ********************************

--------------------------------------------
MULLIKEN ATOMIC CHARGES AND SPIN POPULATIONS
--------------------------------------------
   0 C :    0.090317    0.227973
   1 C :    0.122612    0.419490
   2 C :    0.040021   -0.122626
   3 C :    0.090326    0.227971
   4 C :    0.122608    0.419485
   5 C :    0.040032   -0.122625
   6 H :    0.084228   -0.010355
   7 H :    0.073684    0.002726
   8 H :    0.089127   -0.017205
   9 H :    0.084227   -0.010355
  10 H :    0.073689    0.002726
  11 H :    0.089128   -0.017205
Sum of atomic charges         :    1.0000000
Sum of atomic spin populations:    1.0000000

-----------------------------------------------------
MULLIKEN REDUCED ORBITAL CHARGES AND SPIN POPULATIONS
-----------------------------------------------------
CHARGE
  0 C s       :     3.194894  s :     3.194894
      pz      :     0.802850  p :     2.678958
      px      :     0.965396
      py      :     0.910713
      dz2     :     0.002512  d :     0.035831
      dxz     :     0.005435
      dyz     :     0.002755
      dx2y2   :     0.012686
      dxy     :     0.012444
  1 C s       :     3.204896  s :     3.204896
      pz      :     0.731991  p :     2.635083
      px      :     0.924385
      py      :     0.978708
      dz2     :     0.002562  d :     0.037409
      dxz     :     0.003051
      dyz     :     0.006228
      dx2y2   :     0.012299
      dxy     :     0.013269
  2 C s       :     3.172707  s :     3.172707
      pz      :     0.931525  p :     2.754156
      px      :     0.913025
      py      :     0.909607
      dz2     :     0.002515  d :     0.033116
      dxz     :     0.003284
      dyz     :     0.003013
      dx2y2   :     0.012138
      dxy     :     0.012166
  3 C s       :     3.194890  s :     3.194890
      pz      :     0.802851  p :     2.678952
      px      :     0.965396
      py      :     0.910706
      dz2     :     0.002512  d :     0.035831
      dxz     :     0.005435
      dyz     :     0.002755
      dx2y2   :     0.012686
      dxy     :     0.012444
  4 C s       :     3.204895  s :     3.204895
      pz      :     0.731991  p :     2.635087
      px      :     0.924389
      py      :     0.978708
      dz2     :     0.002562  d :     0.037409
      dxz     :     0.003051
      dyz     :     0.006228
      dx2y2   :     0.012299
      dxy     :     0.013269
  5 C s       :     3.172706  s :     3.172706
      pz      :     0.931524  p :     2.754146
      px      :     0.913020
      py      :     0.909603
      dz2     :     0.002515  d :     0.033116
      dxz     :     0.003284
      dyz     :     0.003013
      dx2y2   :     0.012137
      dxy     :     0.012166
  6 H s       :     0.892494  s :     0.892494
      pz      :     0.003208  p :     0.023278
      px      :     0.003226
      py      :     0.016843
  7 H s       :     0.902826  s :     0.902826
      pz      :     0.003874  p :     0.023490
      px      :     0.011565
      py      :     0.008050
  8 H s       :     0.887770  s :     0.887770
      pz      :     0.002786  p :     0.023102
      px      :     0.015200
      py      :     0.005116
  9 H s       :     0.892495  s :     0.892495
      pz      :     0.003208  p :     0.023278
      px      :     0.003226
      py      :     0.016843
 10 H s       :     0.902822  s :     0.902822
      pz      :     0.003874  p :     0.023490
      px      :     0.011565
      py      :     0.008050
 11 H s       :     0.887770  s :     0.887770
      pz      :     0.002786  p :     0.023102
      px      :     0.015200
      py      :     0.005116

SPIN
  0 C s       :     0.020674  s :     0.020674
      pz      :     0.206009  p :     0.206114
      px      :    -0.001666
      py      :     0.001772
      dz2     :    -0.000692  d :     0.001184
      dxz     :     0.001257
      dyz     :     0.000525
      dx2y2   :    -0.000000
      dxy     :     0.000095
  1 C s       :     0.044646  s :     0.044646
      pz      :     0.358144  p :     0.374788
      px      :     0.008190
      py      :     0.008454
      dz2     :    -0.001154  d :     0.000056
      dxz     :     0.000879
      dyz     :     0.000164
      dx2y2   :     0.000030
      dxy     :     0.000138
  2 C s       :    -0.023576  s :    -0.023576
      pz      :    -0.071999  p :    -0.102158
      px      :    -0.012093
      py      :    -0.018066
      dz2     :     0.000133  d :     0.003108
      dxz     :     0.000755
      dyz     :     0.002248
      dx2y2   :     0.000014
      dxy     :    -0.000041
  3 C s       :     0.020674  s :     0.020674
      pz      :     0.206006  p :     0.206113
      px      :    -0.001666
      py      :     0.001773
      dz2     :    -0.000692  d :     0.001184
      dxz     :     0.001257
      dyz     :     0.000525
      dx2y2   :    -0.000000
      dxy     :     0.000095
  4 C s       :     0.044645  s :     0.044645
      pz      :     0.358140  p :     0.374784
      px      :     0.008190
      py      :     0.008454
      dz2     :    -0.001154  d :     0.000056
      dxz     :     0.000879
      dyz     :     0.000163
      dx2y2   :     0.000030
      dxy     :     0.000138
  5 C s       :    -0.023576  s :    -0.023576
      pz      :    -0.071999  p :    -0.102157
      px      :    -0.012093
      py      :    -0.018065
      dz2     :     0.000133  d :     0.003108
      dxz     :     0.000755
      dyz     :     0.002248
      dx2y2   :     0.000014
      dxy     :    -0.000041
  6 H s       :    -0.011174  s :    -0.011174
      pz      :     0.000828  p :     0.000819
      px      :    -0.000066
      py      :     0.000058
  7 H s       :     0.003009  s :     0.003009
      pz      :    -0.000254  p :    -0.000283
      px      :    -0.000014
      py      :    -0.000015
  8 H s       :    -0.018648  s :    -0.018648
      pz      :     0.001448  p :     0.001443
      px      :     0.000065
      py      :    -0.000070
  9 H s       :    -0.011174  s :    -0.011174
      pz      :     0.000828  p :     0.000819
      px      :    -0.000066
      py      :     0.000058
 10 H s       :     0.003009  s :     0.003009
      pz      :    -0.000254  p :    -0.000283
      px      :    -0.000014
      py      :    -0.000015
 11 H s       :    -0.018648  s :    -0.018648
      pz      :     0.001448  p :     0.001443
      px      :     0.000065
      py      :    -0.000070


                     *******************************
                     * LOEWDIN POPULATION ANALYSIS *
                     *******************************

-------------------------------------------
LOEWDIN ATOMIC CHARGES AND SPIN POPULATIONS
-------------------------------------------
   0 C :    0.109733    0.208221
   1 C :    0.161910    0.356269
   2 C :    0.017259   -0.060147
   3 C :    0.109733    0.208219
   4 C :    0.161911    0.356265
   5 C :    0.017262   -0.060147
   6 H :    0.071092   -0.001660
   7 H :    0.066850   -0.000343
   8 H :    0.073152   -0.002337
   9 H :    0.071093   -0.001660
  10 H :    0.066852   -0.000343
  11 H :    0.073153   -0.002337

----------------------------------------------------
LOEWDIN REDUCED ORBITAL CHARGES AND SPIN POPULATIONS
----------------------------------------------------
CHARGE
  0 C s       :     2.873580  s :     2.873580
      pz      :     0.787298  p :     2.925860
      px      :     1.070864
      py      :     1.067697
      dz2     :     0.006229  d :     0.090827
      dxz     :     0.011274
      dyz     :     0.004193
      dx2y2   :     0.035145
      dxy     :     0.033987
  1 C s       :     2.879108  s :     2.879108
      pz      :     0.712413  p :     2.865951
      px      :     1.071284
      py      :     1.082254
      dz2     :     0.006198  d :     0.093031
      dxz     :     0.005044
      dyz     :     0.012487
      dx2y2   :     0.033840
      dxy     :     0.035462
  2 C s       :     2.862599  s :     2.862599
      pz      :     0.922996  p :     3.033033
      px      :     1.059356
      py      :     1.050682
      dz2     :     0.006406  d :     0.087109
      dxz     :     0.005841
      dyz     :     0.005968
      dx2y2   :     0.034302
      dxy     :     0.034592
  3 C s       :     2.873577  s :     2.873577
      pz      :     0.787299  p :     2.925862
      px      :     1.070866
      py      :     1.067697
      dz2     :     0.006229  d :     0.090828
      dxz     :     0.011274
      dyz     :     0.004193
      dx2y2   :     0.035145
      dxy     :     0.033987
  4 C s       :     2.879107  s :     2.879107
      pz      :     0.712413  p :     2.865951
      px      :     1.071284
      py      :     1.082254
      dz2     :     0.006198  d :     0.093031
      dxz     :     0.005044
      dyz     :     0.012487
      dx2y2   :     0.033841
      dxy     :     0.035462
  5 C s       :     2.862599  s :     2.862599
      pz      :     0.922995  p :     3.033030
      px      :     1.059353
      py      :     1.050682
      dz2     :     0.006406  d :     0.087108
      dxz     :     0.005841
      dyz     :     0.005968
      dx2y2   :     0.034301
      dxy     :     0.034592
  6 H s       :     0.858609  s :     0.858609
      pz      :     0.010546  p :     0.070299
      px      :     0.010901
      py      :     0.048852
  7 H s       :     0.862885  s :     0.862885
      pz      :     0.012521  p :     0.070265
      px      :     0.033736
      py      :     0.024008
  8 H s       :     0.856639  s :     0.856639
      pz      :     0.009419  p :     0.070209
      px      :     0.044482
      py      :     0.016307
  9 H s       :     0.858608  s :     0.858608
      pz      :     0.010546  p :     0.070299
      px      :     0.010901
      py      :     0.048852
 10 H s       :     0.862884  s :     0.862884
      pz      :     0.012520  p :     0.070264
      px      :     0.033736
      py      :     0.024008
 11 H s       :     0.856638  s :     0.856638
      pz      :     0.009419  p :     0.070209
      px      :     0.044482
      py      :     0.016307

SPIN
  0 C s       :     0.005005  s :     0.005005
      pz      :     0.197949  p :     0.200350
      px      :     0.000616
      py      :     0.001786
      dz2     :    -0.000639  d :     0.002865
      dxz     :     0.002584
      dyz     :     0.000910
      dx2y2   :    -0.000146
      dxy     :     0.000157
  1 C s       :     0.009931  s :     0.009931
      pz      :     0.337369  p :     0.346176
      px      :     0.004005
      py      :     0.004802
      dz2     :    -0.001110  d :     0.000161
      dxz     :     0.001415
      dyz     :     0.000119
      dx2y2   :    -0.000226
      dxy     :    -0.000036
  2 C s       :    -0.003979  s :    -0.003979
      pz      :    -0.054657  p :    -0.063739
      px      :    -0.003257
      py      :    -0.005825
      dz2     :     0.000229  d :     0.007572
      dxz     :     0.001938
      dyz     :     0.004892
      dx2y2   :     0.000408
      dxy     :     0.000104
  3 C s       :     0.005005  s :     0.005005
      pz      :     0.197946  p :     0.200348
      px      :     0.000616
      py      :     0.001786
      dz2     :    -0.000639  d :     0.002865
      dxz     :     0.002584
      dyz     :     0.000910
      dx2y2   :    -0.000146
      dxy     :     0.000157
  4 C s       :     0.009931  s :     0.009931
      pz      :     0.337366  p :     0.346172
      px      :     0.004005
      py      :     0.004802
      dz2     :    -0.001110  d :     0.000161
      dxz     :     0.001415
      dyz     :     0.000119
      dx2y2   :    -0.000226
      dxy     :    -0.000036
  5 C s       :    -0.003979  s :    -0.003979
      pz      :    -0.054657  p :    -0.063740
      px      :    -0.003257
      py      :    -0.005825
      dz2     :     0.000229  d :     0.007572
      dxz     :     0.001938
      dyz     :     0.004892
      dx2y2   :     0.000408
      dxy     :     0.000104
  6 H s       :    -0.005485  s :    -0.005485
      pz      :     0.003159  p :     0.003824
      px      :    -0.000055
      py      :     0.000720
  7 H s       :     0.001237  s :     0.001237
      pz      :    -0.001201  p :    -0.001580
      px      :    -0.000204
      py      :    -0.000175
  8 H s       :    -0.009098  s :    -0.009098
      pz      :     0.005526  p :     0.006761
      px      :     0.001070
      py      :     0.000165
  9 H s       :    -0.005484  s :    -0.005484
      pz      :     0.003159  p :     0.003824
      px      :    -0.000055
      py      :     0.000720
 10 H s       :     0.001237  s :     0.001237
      pz      :    -0.001201  p :    -0.001580
      px      :    -0.000204
      py      :    -0.000175
 11 H s       :    -0.009098  s :    -0.009098
      pz      :     0.005526  p :     0.006761
      px      :     0.001070
      py      :     0.000165


                      *****************************
                      * MAYER POPULATION ANALYSIS *
                      *****************************

  NA   - Mulliken gross atomic population
  ZA   - Total nuclear charge
  QA   - Mulliken gross atomic charge
  VA   - Mayer's total valence
  BVA  - Mayer's bonded valence
  FA   - Mayer's free valence

  ATOM       NA         ZA         QA         VA         BVA        FA
  0 C      5.9097     6.0000     0.0903     3.7990     3.7547     0.0443
  1 C      5.8774     6.0000     0.1226     3.7583     3.6273     0.1309
  2 C      5.9600     6.0000     0.0400     3.8464     3.8402     0.0061
  3 C      5.9097     6.0000     0.0903     3.7990     3.7547     0.0443
  4 C      5.8774     6.0000     0.1226     3.7583     3.6273     0.1309
  5 C      5.9600     6.0000     0.0400     3.8464     3.8402     0.0061
  6 H      0.9158     1.0000     0.0842     0.9793     0.9792     0.0001
  7 H      0.9263     1.0000     0.0737     0.9826     0.9826     0.0000
  8 H      0.9109     1.0000     0.0891     0.9775     0.9771     0.0004
  9 H      0.9158     1.0000     0.0842     0.9793     0.9792     0.0001
 10 H      0.9263     1.0000     0.0737     0.9826     0.9826     0.0000
 11 H      0.9109     1.0000     0.0891     0.9775     0.9771     0.0004

  Mayer bond orders larger than 0.100000
B(  0-C ,  1-C ) :   1.1679 B(  0-C ,  4-C ) :   0.1067 B(  0-C ,  5-C ) :   1.4606 
B(  0-C ,  6-H ) :   0.9864 B(  1-C ,  2-C ) :   1.3105 B(  1-C ,  3-C ) :   0.1067 
B(  1-C , 11-H ) :   0.9855 B(  2-C ,  3-C ) :   1.4606 B(  2-C , 10-H ) :   0.9883 
B(  3-C ,  4-C ) :   1.1679 B(  3-C ,  9-H ) :   0.9864 B(  4-C ,  5-C ) :   1.3105 
B(  4-C ,  8-H ) :   0.9855 B(  5-C ,  7-H ) :   0.9883 

-------
TIMINGS
-------

Total SCF time: 0 days 0 hours 0 min 42 sec 

Total time                  ....      42.893 sec
Sum of individual times     ....      42.517 sec  ( 99.1%)

Fock matrix formation       ....      40.479 sec  ( 94.4%)
  Split-RI-J                ....       2.384 sec  (  5.9% of F)
  Chain of spheres X        ....      27.982 sec  ( 69.1% of F)
  XC integration            ....       9.954 sec  ( 24.6% of F)
    Basis function eval.    ....       2.668 sec  ( 26.8% of XC)
    Density eval.           ....       3.040 sec  ( 30.5% of XC)
    XC-Functional eval.     ....       0.997 sec  ( 10.0% of XC)
    XC-Potential eval.      ....       2.816 sec  ( 28.3% of XC)
Diagonalization             ....       0.080 sec  (  0.2%)
Density matrix formation    ....       0.007 sec  (  0.0%)
Population analysis         ....       0.061 sec  (  0.1%)
Initial guess               ....       0.339 sec  (  0.8%)
Orbital Transformation      ....       0.000 sec  (  0.0%)
Orbital Orthonormalization  ....       0.000 sec  (  0.0%)
DIIS solution               ....       0.123 sec  (  0.3%)
Grid generation             ....       1.428 sec  (  3.3%)

Maximum memory used throughout the entire SCF-calculation: 58.7 MB


-------------------------------------------------------------------------------
                          DFT DISPERSION CORRECTION                            
                                                                               
                              DFTD3 V3.1  Rev 1                                
                          USING Becke-Johnson damping                          
-------------------------------------------------------------------------------
The B3LYP functional is recognized
Active option DFTDOPT                   ...         4   

molecular C6(AA) [au] = 1659.433054 


            DFT-D V3
 parameters
 s6 scaling factor         :     1.0000 
 a1 scaling factor         :     0.3981 
 s8 scaling factor         :     1.9889 
 a2 scaling factor         :     4.4211 
 ad hoc parameters k1-k3   :    16.0000     1.3333    -4.0000 

 Edisp/kcal,au: -11.869319796057  -0.018914963073 
 E6   /kcal   :  -5.472106328 
 E8   /kcal   :  -6.397213468 
 % E8         :  53.897052044 

-------------------------   ----------------
Dispersion correction           -0.018914963
-------------------------   ----------------


-------------------------   --------------------
FINAL SINGLE POINT ENERGY      -231.612516960646
-------------------------   --------------------


                            ***************************************
                            *     ORCA property calculations      *
                            ***************************************

                                    ---------------------
                                    Active property flags
                                    ---------------------
   (+) Dipole Moment


------------------------------------------------------------------------------
                       ORCA ELECTRIC PROPERTIES CALCULATION
------------------------------------------------------------------------------

Dipole Moment Calculation                       ... on
Quadrupole Moment Calculation                   ... off
Polarizability Calculation                      ... off
GBWName                                         ... benzen_fukui_kation.gbw
Electron density                                ... benzen_fukui_kation.scfp
The origin for moment calculation is the CENTER OF MASS  = (-7.464217,  0.406764  0.000000)

-------------
DIPOLE MOMENT
-------------
                                X             Y             Z
Electronic contribution:      0.00001       0.00000      -0.00000
Nuclear contribution   :     -0.00001      -0.00000       0.00000
                        -----------------------------------------
Total Dipole Moment    :      0.00000       0.00000      -0.00000
                        -----------------------------------------
Magnitude (a.u.)       :      0.00000
Magnitude (Debye)      :      0.00000



--------------------
Rotational spectrum 
--------------------
 
Rotational constants in cm-1:     0.190144     0.190142     0.095071 
Rotational constants in MHz :  5700.361471  5700.315818  2850.169322 

 Dipole components along the rotational axes: 
x,y,z [a.u.] :     0.000001    -0.000001    -0.000000 
x,y,z [Debye]:     0.000002    -0.000004    -0.000000 

 

Timings for individual modules:

Sum of individual times         ...       43.215 sec (=   0.720 min)
GTO integral calculation        ...        0.269 sec (=   0.004 min)   0.6 %
SCF iterations                  ...       42.946 sec (=   0.716 min)  99.4 %
                             ****ORCA TERMINATED NORMALLY****
TOTAL RUN TIME: 0 days 0 hours 0 minutes 43 seconds 645 msec
