23
# ORCA AIMD Position Step 0, t=0.00 fs, E_Pot=-756.04636581 Hartree, Unit is Angstrom
Al     -1.6984300076      0.3003900013     -0.5266000024
 O     -1.7543400079      2.2886000102     -0.1676800008
 H     -1.0607400048      2.9665800133     -0.3942600018
 H     -2.5740200115      2.8600400128     -0.1906700009
 O      0.1891400008      0.0113700001     -1.0916200049
 H      0.7475700033      0.5363300024     -1.7212200077
 H      0.8191000037     -0.6828400031     -0.7649500034
 O     -4.1602800186      0.3334000015      0.2120700009
 H     -4.8886300219     -0.2386000011     -0.1391800006
 H     -4.4142200198      0.3696100017      1.1712400052
 O     -1.8995300085     -1.6332000073     -0.9887500044
 H     -1.1891700053     -2.3083000103     -0.8460100038
 H     -2.7211300122     -2.1820000098     -0.8839000040
 O     -2.2771700102      0.4199600019     -2.3904300107
 H     -1.9536900087     -0.2686400012     -3.0230300135
 H     -2.5548900114      1.1841200053     -2.9572200132
 O     -1.2983300058      0.1981200009      1.3293500060
 H     -0.8899900040      0.9723800044      1.7930800080
 H     -1.0686600048     -0.6004800027      1.8689100084
 N     -7.7530700347      0.2176900010      1.5728400070
 H     -7.3624800330     -0.2190000010      2.4077900108
 H     -8.2354600369      1.0779200048      1.8330600082
 H     -8.4134800377     -0.4223400019      1.1316800051
23
# ORCA AIMD Position Step 1, t=1.00 fs, E_Pot=-756.03973589 Hartree, Unit is Angstrom
Al     -1.6942546511      0.2996467333     -0.5245085146
 O     -1.7567517296      2.3023385045     -0.1533894645
 H     -1.0314910390      2.9657434670     -0.3916188648
 H     -2.5369086090      2.8256339353     -0.1657031136
 O      0.1815413060      0.0165009087     -1.0957332475
 H      0.7219952002      0.5599435154     -1.7323046398
 H      0.8305976595     -0.7012570987     -0.7755445747
 O     -4.1551417925      0.3285564839      0.2107388994
 H     -4.9218594888     -0.2272184019     -0.1385929165
 H     -4.4051883910      0.3180756465      1.1593838274
 O     -1.8965810770     -1.6360986354     -0.9956428217
 H     -1.1831375133     -2.3279548368     -0.8378511917
 H     -2.6862166010     -2.1970175621     -0.8783797267
 O     -2.2865903564      0.4186150153     -2.3942855678
 H     -1.9528730324     -0.2739592028     -2.9990159414
 H     -2.5393903823      1.1669191206     -2.9597953021
 O     -1.2974620320      0.1955864452      1.3297675179
 H     -0.8988333786      0.9924012996      1.7545661288
 H     -1.0765857924     -0.5521971656      1.9022943487
 N     -7.7502903785      0.2157628133      1.5698284940
 H     -7.3981439488     -0.2427423253      2.3950389397
 H     -8.2587565050      1.0724208288      1.8353781726
 H     -8.4072198991     -0.4023874095      1.1268924115
23
# ORCA AIMD Position Step 2, t=2.00 fs, E_Pot=-756.03004928 Hartree, Unit is Angstrom
Al     -1.6905664516      0.2989069496     -0.5226116059
 O     -1.7573324720      2.3151346272     -0.1397018328
 H     -1.0064453831      2.9592828803     -0.3867634118
 H     -2.5243878306      2.8033812341     -0.1397212144
 O      0.1745245253      0.0213597392     -1.0996679088
 H      0.6947815698      0.5825720959     -1.7423396143
 H      0.8353701358     -0.7110696237     -0.7880401905
 O     -4.1498747648      0.3232460436      0.2090540056
 H     -4.9494726712     -0.2094923839     -0.1397822503
 H     -4.3949843708      0.2703975204      1.1517203091
 O     -1.8929916246     -1.6393094020     -1.0019506406
 H     -1.1786351350     -2.3420670992     -0.8323071115
 H     -2.6613409167     -2.2119389581     -0.8731383340
 O     -2.2956389317      0.4173393287     -2.3975621469
 H     -1.9523515830     -0.2836062528     -2.9780780495
 H     -2.5279016229      1.1569611814     -2.9654169563
 O     -1.2965411907      0.1934118736      1.3298726370
 H     -0.9086120577      1.0141461191      1.7182996265
 H     -1.0838946817     -0.5134140193      1.9413311467
 N     -7.7470956235      0.2144765292      1.5666057380
 H     -7.4321640053     -0.2693147197      2.3910098351
 H     -8.2803788723      1.0671158270      1.8377808789
 H     -8.4076918828     -0.3890820363      1.1165982303
23
# ORCA AIMD Position Step 3, t=3.00 fs, E_Pot=-756.03232659 Hartree, Unit is Angstrom
Al     -1.6873946298      0.2981490958     -0.5209154973
 O     -1.7548371116      2.3262786145     -0.1266385379
 H     -0.9898813837      2.9469681449     -0.3787888872
 H     -2.5516788954      2.8047376345     -0.1127742272
 O      0.1682335226      0.0258333990     -1.1034022125
 H      0.6661645677      0.6027949853     -1.7503357224
 H      0.8309413039     -0.7086117407     -0.8042151639
 O     -4.1447018293      0.3173258771      0.2068158310
 H     -4.9680315053     -0.1834890790     -0.1425907347
 H     -4.3832725943      0.2267476335      1.1514348084
 O     -1.8883956553     -1.6429108678     -1.0076778859
 H     -1.1768533397     -2.3476898631     -0.8301052755
 H     -2.6509183633     -2.2284181483     -0.8677530488
 O     -2.3042860663      0.4159727026     -2.3999213108
 H     -1.9515826357     -0.2990478031     -2.9619613811
 H     -2.5215100947      1.1578887289     -2.9773527928
 O     -1.2956037321      0.1918684836      1.3294921843
 H     -0.9194795541      1.0374320304      1.6844649065
 H     -1.0897812568     -0.4874612323      1.9888080868
 N     -7.7436340448      0.2140784249      1.5632369431
 H     -7.4641986463     -0.2985648181      2.3966227471
 H     -8.2977223599      1.0593642189      1.8399273361
 H     -8.4157485496     -0.3835290611      1.0990238850
23
# ORCA AIMD Position Step 4, t=4.00 fs, E_Pot=-756.03735761 Hartree, Unit is Angstrom
Al     -1.6847770155      0.2973633349     -0.5194286721
 O     -1.7499915779      2.3359990921     -0.1141971398
 H     -0.9831940628      2.9311237570     -0.3678179270
 H     -2.6057569721      2.8231800404     -0.0849919342
 O      0.1626179135      0.0299768532     -1.1069663017
 H      0.6369093412      0.6198365158     -1.7560283567
 H      0.8179165185     -0.6938612140     -0.8240917596
 O     -4.1397314506      0.3108012218      0.2041323022
 H     -4.9766952442     -0.1491955524     -0.1474784282
 H     -4.3691920252      0.1871862488      1.1575779550
 O     -1.8829068144     -1.6470271936     -1.0127971995
 H     -1.1771931267     -2.3443238159     -0.8314194328
 H     -2.6538022367     -2.2447320076     -0.8625759103
 O     -2.3125151826      0.4145350304     -2.4014045563
 H     -1.9513335910     -0.3188694813     -2.9503583462
 H     -2.5193983838      1.1677077762     -2.9948003329
 O     -1.2945423168      0.1908498895      1.3288460709
 H     -0.9319795214      1.0607020449      1.6529634897
 H     -1.0953731148     -0.4704981216      2.0414467032
 N     -7.7401555024      0.2142799808      1.5598729161
 H     -7.4954913221     -0.3279610075      2.4083319078
 H     -8.3092348842      1.0480194450      1.8417780752
 H     -8.4281602572     -0.3831294820      1.0755589441
23
# ORCA AIMD Position Step 5, t=5.00 fs, E_Pot=-756.03381450 Hartree, Unit is Angstrom
Al     -1.6827503223      0.2965482952     -0.5181585973
 O     -1.7445923128      2.3448371364     -0.1022623306
 H     -0.9842207656      2.9162929942     -0.3550908826
 H     -2.6602401462      2.8448754914     -0.0573286699
 O      0.1574174910      0.0340187192     -1.1104361043
 H      0.6081917130      0.6337454439     -1.7599577527
 H      0.8000232885     -0.6705166327     -0.8461310661
 O     -4.1349190584      0.3037700165      0.2013497596
 H     -4.9773072245     -0.1081664504     -0.1554029863
 H     -4.3517479808      0.1519108097      1.1659618204
 O     -1.8770137846     -1.6517759998     -1.0172740802
 H     -1.1774212763     -2.3339617286     -0.8357778217
 H     -2.6645896826     -2.2567275592     -0.8586359460
 O     -2.3203170429      0.4131810075     -2.4023512051
 H     -1.9533591328     -0.3394748682     -2.9415241167
 H     -2.5195609027      1.1801356407     -3.0136540485
 O     -1.2931961365      0.1900674057      1.3284032724
 H     -0.9467227411      1.0817992109      1.6237232328
 H     -1.1026227155     -0.4553200488      2.0918716649
 N     -7.7369459970      0.2144553689      1.5566651345
 H     -7.5276064955     -0.3537972690      2.4203514551
 H     -8.3147424468      1.0336620841      1.8436329465
 H     -8.4395094018     -0.3834392041      1.0495527306
23
# ORCA AIMD Position Step 6, t=6.00 fs, E_Pot=-756.02555484 Hartree, Unit is Angstrom
Al     -1.6813429903      0.2957016168     -0.5171082580
 O     -1.7401258041      2.3529857263     -0.0906193262
 H     -0.9879848572      2.9081968919     -0.3426177532
 H     -2.6964169983      2.8607452310     -0.0309585035
 O      0.1521611746      0.0383693197     -1.1139367642
 H      0.5813057863      0.6453289554     -1.7633110087
 H      0.7839195037     -0.6457080738     -0.8675588909
 O     -4.1300321944      0.2963650711      0.1988794491
 H     -4.9739887570     -0.0628208527     -0.1676769286
 H     -4.3304215956      0.1211016145      1.1716086926
 O     -1.8713284193     -1.6571499604     -1.0211114990
 H     -1.1741030240     -2.3205940687     -0.8421660185
 H     -2.6769270772     -2.2603980668     -0.8570418066
 O     -2.3276924008      0.4120685765     -2.4031507759
 H     -1.9595230023     -0.3569608631     -2.9335086785
 H     -2.5200574282      1.1884959720     -3.0293051820
 O     -1.2914507232      0.1892873856      1.3285937468
 H     -0.9641058953      1.0989517654      1.5968752124
 H     -1.1129873607     -0.4359873561      2.1330549401
 N     -7.7342176959      0.2139467800      1.5536983498
 H     -7.5614274909     -0.3729533786      2.4274957247
 H     -8.3153253582      1.0183241612      1.8460376908
 H     -8.4448838505     -0.3804963044      1.0243222202
23
# ORCA AIMD Position Step 7, t=7.00 fs, E_Pot=-756.02205745 Hartree, Unit is Angstrom
Al     -1.6805788485      0.2948137925     -0.5162782500
 O     -1.7374521845      2.3603757820     -0.0790492174
 H     -0.9893372091      2.9117728815     -0.3323002826
 H     -2.7056110721      2.8670333316     -0.0067421013
 O      0.1462936900      0.0435101809     -1.1176041350
 H      0.5574071347      0.6557839390     -1.7675367580
 H      0.7774224212     -0.6278483221     -0.8852984442
 O     -4.1247042645      0.2887113575      0.1970369682
 H     -4.9718156077     -0.0154960778     -0.1855336344
 H     -4.3055688038      0.0946879855      1.1708487627
 O     -1.8663665592     -1.6629870678     -1.0243537210
 H     -1.1637352263     -2.3088821131     -0.8493896576
 H     -2.6859131323     -2.2536270177     -0.8584924606
 O     -2.3346506542      0.4112888216     -2.4040557994
 H     -1.9710676485     -0.3686667996     -2.9251035486
 H     -2.5197252825      1.1884204927     -3.0386756442
 O     -1.2892728700      0.1884050023      1.3296518634
 H     -0.9841492676      1.1114010496      1.5728438218
 H     -1.1270108231     -0.4095882384      2.1607629641
 N     -7.7320619135      0.2122668960      1.5509799812
 H     -7.5968558274     -0.3839011768      2.4267362019
 H     -8.3127906405      1.0048524605      1.8495809804
 H     -8.4413393179     -0.3719911084      1.0019481545
23
# ORCA AIMD Position Step 8, t=8.00 fs, E_Pot=-756.02775265 Hartree, Unit is Angstrom
Al     -1.6804828208      0.2938671674     -0.5156704984
 O     -1.7367887635      2.3669394661     -0.0674568653
 H     -0.9865826572      2.9286868345     -0.3247552279
 H     -2.6859248094      2.8631863601      0.0148193833
 O      0.1394938883      0.0496930313     -1.1214867682
 H      0.5373450798      0.6661417120     -1.7738313038
 H      0.7850655927     -0.6216614784     -0.8977272703
 O     -4.1186041210      0.2809003564      0.1959175503
 H     -4.9743500864      0.0324688620     -0.2091185731
 H     -4.2785512261      0.0722216590      1.1624502330
 O     -1.8623771936     -1.6690490756     -1.0270498474
 H     -1.1447881648     -2.3020984992     -0.8566394307
 H     -2.6890949644     -2.2367418578     -0.8630587857
 O     -2.3411959779      0.4108631748     -2.4051105593
 H     -1.9882510754     -0.3738981514     -2.9162432817
 H     -2.5183180380      1.1787194490     -3.0409198689
 O     -1.2867074454      0.1874313300      1.3315786007
 H     -1.0064337518      1.1195735258      1.5523614980
 H     -1.1444130913     -0.3762640418      2.1741294963
 N     -7.7304690872      0.2092143572      1.5484698483
 H     -7.6328898904     -0.3870134541      2.4176692830
 H     -8.3088987435      0.9959857093      1.8545664047
 H     -8.4282836703     -0.3575091916      0.9829094991
23
# ORCA AIMD Position Step 9, t=9.00 fs, E_Pot=-756.03577482 Hartree, Unit is Angstrom
Al     -1.6810750546      0.2928378698     -0.5152888283
 O     -1.7376825282      2.3727031009     -0.0559449661
 H     -0.9829145581      2.9562332191     -0.3188123060
 H     -2.6413447884      2.8512136411      0.0336540297
 O      0.1319492664      0.0567037898     -1.1254897847
 H      0.5214779161      0.6767204013     -1.7826090243
 H      0.8042329529     -0.6242500604     -0.9058325849
 O     -4.1116173194      0.2730003378      0.1953025392
 H     -4.9813115904      0.0809813698     -0.2364083355
 H     -4.2516233159      0.0527603600      1.1481771667
 O     -1.8592191438     -1.6751035798     -1.0292257981
 H     -1.1194664736     -2.3005742439     -0.8639015106
 H     -2.6869111007     -2.2125680170     -0.8701002059
 O     -2.3473170229      0.4107485029     -2.4061403856
 H     -2.0102487009     -0.3741311625     -2.9080156006
 H     -2.5164404787      1.1615550011     -3.0376153642
 O     -1.2838648284      0.1864840075      1.3341246460
 H     -1.0301507820      1.1249465967      1.5363261923
 H     -1.1642390905     -0.3390111635      2.1760128541
 N     -7.7293606103      0.2049584031      1.5461190782
 H     -7.6679104237     -0.3846434260      2.4026169280
 H     -8.3045900909      0.9933214176      1.8606464018
 H     -8.4075291181     -0.3384773309      0.9659744156
23
# ORCA AIMD Position Step 10, t=10.00 fs, E_Pot=-756.03520596 Hartree, Unit is Angstrom
Al     -1.6823658893      0.2916961833     -0.5151329768
 O     -1.7390316065      2.3776503331     -0.0447362036
 H     -0.9839547898      2.9889776193     -0.3122779226
 H     -2.5837482760      2.8367524514      0.0506160729
 O      0.1242064062      0.0640610294     -1.1294758487
 H      0.5094953672      0.6869904691     -1.7933214350
 H      0.8271732646     -0.6276455806     -0.9121614743
 O     -4.1038441804      0.2650708275      0.1946748339
 H     -4.9886443897      0.1306026732     -0.2633662319
 H     -4.2274160676      0.0348013862      1.1324713937
 O     -1.8563661017     -1.6809482362     -1.0309070048
 H     -1.0931595188     -2.3021305120     -0.8718116509
 H     -2.6827903668     -2.1859715717     -0.8783477679
 O     -2.3530113301      0.4108308284     -2.4067878393
 H     -2.0354730604     -0.3726675783     -2.9022866457
 H     -2.5153837313      1.1420771222     -3.0326051841
 O     -1.2808817611      0.1857890283      1.3368001629
 H     -1.0544099053      1.1295588614      1.5254550547
 H     -1.1851772918     -0.3031468376      2.1732443895
 N     -7.7286011160      0.2000270728      1.5438972684
 H     -7.7002956234     -0.3808454089      2.3861867130
 H     -8.2995589939      0.9966443626      1.8666727171
 H     -8.3829458579     -0.3177843215      0.9481659121
23
# ORCA AIMD Position Step 11, t=11.00 fs, E_Pot=-756.02653037 Hartree, Unit is Angstrom
Al     -1.6843591543      0.2904085687     -0.5151981095
 O     -1.7391806193      2.3814762324     -0.0340933810
 H     -0.9941384453      3.0214885316     -0.3031942706
 H     -2.5349130449      2.8304494433      0.0681092504
 O      0.1168187842      0.0713716063     -1.1333844454
 H      0.5005045174      0.6958642501     -1.8047155886
 H      0.8461427740     -0.6243513902     -0.9189493539
 O     -4.0954451935      0.2571856122      0.1934074533
 H     -4.9911355861      0.1816061803     -0.2854449616
 H     -4.2083277992      0.0165785236      1.1207794996
 O     -1.8531215781     -1.6863809578     -1.0321400095
 H     -1.0718791294     -2.3040777504     -0.8810905569
 H     -2.6820294519     -2.1625626113     -0.8862702830
 O     -2.3582905716      0.4109437846     -2.4066242119
 H     -2.0622525515     -0.3734462255     -2.9009647260
 H     -2.5167287755      1.1268835104     -3.0308885620
 O     -1.2778695640      0.1856383176      1.3389902302
 H     -1.0785398820      1.1352371852      1.5200621726
 H     -1.2060944199     -0.2748150550      2.1750800095
 N     -7.7280146934      0.1951314893      1.5418176048
 H     -7.7290246022     -0.3803213953      2.3737980593
 H     -8.2925642994      1.0042319444      1.8709680814
 H     -8.3593037894     -0.2988336746      0.9254397758
23
# ORCA AIMD Position Step 12, t=12.00 fs, E_Pot=-756.02548574 Hartree, Unit is Angstrom
Al     -1.6870578891      0.2889436196     -0.5154773235
 O     -1.7365245207      2.3836909539     -0.0242453706
 H     -1.0148035141      3.0500559844     -0.2906198905
 H     -2.5188701977      2.8443977924      0.0896101588
 O      0.1101574721      0.0784684496     -1.1372509545
 H      0.4933418686      0.7022469892     -1.8153904461
 H      0.8561857472     -0.6100819021     -0.9272847411
 O     -4.0865095867      0.2494126976      0.1910440638
 H     -4.9849463668      0.2335963320     -0.2991080538
 H     -4.1960632693     -0.0031859636      1.1166250765
 O     -1.8489492173     -1.6912271503     -1.0329775335
 H     -1.0599432292     -2.3048437479     -0.8920996467
 H     -2.6888679111     -2.1466266462     -0.8927126304
 O     -2.3631732875      0.4109468148     -2.4053579831
 H     -2.0895921781     -0.3792064596     -2.9050330169
 H     -2.5216453290      1.1209561216     -3.0361652989
 O     -1.2748704285      0.1862544493      1.3402539507
 H     -1.1022099726      1.1428746189      1.5200256952
 H     -1.2266183641     -0.2581498987      2.1884824260
 N     -7.7274529691      0.1908627656      1.5399511202
 H     -7.7539463456     -0.3866366720      2.3691668353
 H     -8.2821875276      1.0137656161      1.8718431499
 H     -8.3402670738     -0.2840296377      0.8945002779
23
# ORCA AIMD Position Step 13, t=13.00 fs, E_Pot=-756.03451769 Hartree, Unit is Angstrom
Al     -1.6904517804      0.2872865823     -0.5159615193
 O     -1.7310058039      2.3843721586     -0.0152317841
 H     -1.0438449068      3.0732347924     -0.2749311445
 H     -2.5387431510      2.8790375571      0.1163107202
 O      0.1044059361      0.0853478862     -1.1411497085
 H      0.4869294192      0.7055375389     -1.8243079202
 H      0.8555620302     -0.5840905366     -0.9370396593
 O     -4.0770506359      0.2417986309      0.1875200405
 H     -4.9688533300      0.2854882620     -0.3025956108
 H     -4.1914608447     -0.0244342913      1.1192182860
 O     -1.8437849843     -1.6953844760     -1.0334430784
 H     -1.0588649866     -2.3046203262     -0.9046458745
 H     -2.7030811880     -2.1393898214     -0.8974422698
 O     -2.3676677823      0.4108225949     -2.4030498145
 H     -2.1174478622     -0.3899359617     -2.9137831789
 H     -2.5301779448      1.1246338674     -3.0481903266
 O     -1.2718716791      0.1876448587      1.3406471780
 H     -1.1252660484      1.1520789802      1.5248392810
 H     -1.2470971983     -0.2528379173      2.2127394206
 N     -7.7268991918      0.1874335202      1.5384041613
 H     -7.7754798804     -0.4005430498      2.3720541465
 H     -8.2675710935      1.0231838202      1.8680826931
 H     -8.3265483775     -0.2734666754      0.8552516574
23
# ORCA AIMD Position Step 14, t=14.00 fs, E_Pot=-756.03844339 Hartree, Unit is Angstrom
Al     -1.6945074565      0.2854441323     -0.5166365064
 O     -1.7242595682      2.3843323508     -0.0068177854
 H     -1.0764048513      3.0920097658     -0.2576957510
 H     -2.5737970637      2.9203407469      0.1454659916
 O      0.0995387656      0.0921276272     -1.1451568425
 H      0.4804953471      0.7059995534     -1.8312135705
 H      0.8459355091     -0.5491001328     -0.9469451895
 O     -4.0670059833      0.2343388227      0.1831704926
 H     -4.9446299746      0.3360157546     -0.2963086317
 H     -4.1944348048     -0.0457202785      1.1238041797
 O     -1.8380986799     -1.6988147559     -1.0335316134
 H     -1.0669349731     -2.3054361828     -0.9180266783
 H     -2.7194679807     -2.1390330383     -0.9011273213
 O     -2.3717855670      0.4106763598     -2.4001242398
 H     -2.1464406532     -0.4028390609     -2.9248596885
 H     -2.5411950054      1.1335666138     -3.0626149710
 O     -1.2688587894      0.1896286667      1.3406939784
 H     -1.1475904139      1.1613697012      1.5336576602
 H     -1.2679026814     -0.2548052611      2.2398022123
 N     -7.7264838422      0.1846195359      1.5372412369
 H     -7.7941959187     -0.4197400253      2.3782296570
 H     -8.2488198631      1.0313057928      1.8592986186
 H     -8.3157416777     -0.2649312612      0.8116393500
23
# ORCA AIMD Position Step 15, t=15.00 fs, E_Pot=-756.03415163 Hartree, Unit is Angstrom
Al     -1.6991914528      0.2834285970     -0.5174850100
 O     -1.7179868553      2.3842964789      0.0013415486
 H     -1.1065953292      3.1093507518     -0.2410375170
 H     -2.6032255882      2.9538576438      0.1736089149
 O      0.0952604094      0.0990774587     -1.1493611699
 H      0.4736388067      0.7048383266     -1.8368502476
 H      0.8325549052     -0.5109247017     -0.9547247495
 O     -4.0561829542      0.2269378850      0.1785138829
 H     -4.9165858466      0.3846769745     -0.2826848292
 H     -4.2041367738     -0.0651398707      1.1245887904
 O     -1.8326219147     -1.7014833696     -1.0332374603
 H     -1.0797715685     -2.3107199898     -0.9313371179
 H     -2.7311347652     -2.1424746680     -0.9047626267
 O     -2.3755714909      0.4106358672     -2.3971276062
 H     -2.1773522636     -0.4140051292     -2.9352743732
 H     -2.5531443266      1.1419016727     -3.0737495404
 O     -1.2658400788      0.1920059133      1.3410204270
 H     -1.1691113530      1.1688661882      1.5454751223
 H     -1.2889964482     -0.2593108187      2.2601617990
 N     -7.7263702655      0.1819308074      1.5364227408
 H     -7.8106436123     -0.4404338360      2.3819299662
 H     -8.2268934794      1.0381867189      1.8459712759
 H     -8.3041130347     -0.2553562778      0.7696003274
23
# ORCA AIMD Position Step 16, t=16.00 fs, E_Pot=-756.02991241 Hartree, Unit is Angstrom
Al     -1.7044789004      0.2812503948     -0.5184873595
 O     -1.7132113760      2.3846034511      0.0095259590
 H     -1.1295031216      3.1284308788     -0.2268306911
 H     -2.6158991793      2.9712278337      0.1985381080
 O      0.0910621707      0.1065675613     -1.1538567472
 H      0.4663079197      0.7038891826     -1.8427517301
 H      0.8233325274     -0.4772092640     -0.9574286849
 O     -4.0443084629      0.2194447316      0.1740201392
 H     -4.8902207134      0.4320742546     -0.2653240795
 H     -4.2192912387     -0.0812450627      1.1175066636
 O     -1.8280089180     -1.7033274970     -1.0325631885
 H     -1.0922253134     -2.3240389362     -0.9438375295
 H     -2.7329726618     -2.1471210795     -0.9091126398
 O     -2.3790923090      0.4107803647     -2.3944902117
 H     -2.2106090877     -0.4202580296     -2.9425188515
 H     -2.5647790494      1.1452787991     -3.0772150964
 O     -1.2628488718      0.1946536128      1.3420682779
 H     -1.1897015291      1.1730194953      1.5593251245
 H     -1.3099839199     -0.2631189835      2.2672394566
 N     -7.7266372709      0.1788593968      1.5358159330
 H     -7.8252933124     -0.4591067478      2.3784636613
 H     -8.2032638099      1.0449734151      1.8292330789
 H     -8.2886100637     -0.2423687849      0.7344724487
23
# ORCA AIMD Position Step 17, t=17.00 fs, E_Pot=-756.03323004 Hartree, Unit is Angstrom
Al     -1.7103421719      0.2789178914     -0.5196222647
 O     -1.7103261548      2.3854240914      0.0178780091
 H     -1.1428374950      3.1502264771     -0.2159803236
 H     -2.6080540992      2.9689849605      0.2192551292
 O      0.0864718216      0.1148806682     -1.1586997491
 H      0.4586573722      0.7049511265     -1.8506238147
 H      0.8252106165     -0.4541131902     -0.9524833063
 O     -4.0311863656      0.2117285659      0.1699501214
 H     -4.8699124848      0.4794862318     -0.2475758363
 H     -4.2384749263     -0.0935649126      1.1015115868
 O     -1.8245747808     -1.7043338722     -1.0315097550
 H     -1.1011199878     -2.3469998962     -0.9552808875
 H     -2.7232555991     -2.1515909048     -0.9144817563
 O     -2.3824146182      0.4111337608     -2.3924219826
 H     -2.2460646588     -0.4202357440     -2.9452230698
 H     -2.5754732815      1.1420420814     -3.0710641233
 O     -1.2599315573      0.1975199374      1.3440131137
 H     -1.2090977876      1.1731775218      1.5744192038
 H     -1.3303729986     -0.2650378819      2.2585699451
 N     -7.7272440479      0.1750535366      1.5352408944
 H     -7.8385927984     -0.4735175807      2.3655255643
 H     -8.1794449286      1.0533000541      1.8105510362
 H     -8.2677896399     -0.2249898153      0.7094976538
23
# ORCA AIMD Position Step 18, t=18.00 fs, E_Pot=-756.04234742 Hartree, Unit is Angstrom
Al     -1.7167322132      0.2764431259     -0.5208611625
 O     -1.7092286996      2.3869248551      0.0263703972
 H     -1.1472973204      3.1722810548     -0.2082101286
 H     -2.5809428339      2.9471197484      0.2356784046
 O      0.0814214766      0.1239624502     -1.1638366160
 H      0.4508777076      0.7090443564     -1.8615604041
 H      0.8388255990     -0.4421622247     -0.9393407317
 O     -4.0168997118      0.2037913229      0.1662696055
 H     -4.8562188645      0.5275762111     -0.2310913782
 H     -4.2603444781     -0.1027609037      1.0787291778
 O     -1.8221679591     -1.7046297126     -1.0300778608
 H     -1.1070075645     -2.3774898254     -0.9659454576
 H     -2.7041129240     -2.1559018145     -0.9206714499
 O     -2.3855764423      0.4116728050     -2.3908874613
 H     -2.2829986988     -0.4147657953     -2.9434135070
 H     -2.5853162144      1.1334808341     -3.0560620156
 O     -1.2571366308      0.2006034652      1.3467484215
 H     -1.2268665960      1.1697810088      1.5902117686
 H     -1.3498052008     -0.2659278247      2.2358628844
 N     -7.7280438222      0.1704462067      1.5345214652
 H     -7.8510603919     -0.4831484197      2.3436566938
 H     -8.1565164514      1.0642677463      1.7914033632
 H     -8.2420726929     -0.2037970382      0.6951899265
23
# ORCA AIMD Position Step 19, t=19.00 fs, E_Pot=-756.04797654 Hartree, Unit is Angstrom
Al     -1.7235837905      0.2738395085     -0.5221706039
 O     -1.7093732045      2.3891757797      0.0348327123
 H     -1.1454486408      3.1900306509     -0.2024791652
 H     -2.5410711366      2.9093214326      0.2489510187
 O      0.0763064813      0.1334510993     -1.1691141323
 H      0.4429813639      0.7159134822     -1.8754495050
 H      0.8576222833     -0.4359820654     -0.9200556534
 O     -4.0018082519      0.1958083303      0.1626844029
 H     -4.8453585691      0.5754962719     -0.2156456855
 H     -4.2838999684     -0.1105239954      1.0536274622
 O     -1.8202513833     -1.7044565453     -1.0282827628
 H     -1.1131204124     -2.4102632912     -0.9763494063
 H     -2.6811664935     -2.1614104591     -0.9270728407
 O     -2.3885754461      0.4123264939     -2.3896132049
 H     -2.3204374774     -0.4067009939     -2.9384704449
 H     -2.5951657860      1.1236609685     -3.0355656993
 O     -1.2544867398      0.2039635103      1.3498893053
 H     -1.2425258344      1.1642947067      1.6064926115
 H     -1.3683805964     -0.2687379458      2.2049369677
 N     -7.7288114190      0.1653172431      1.5335299507
 H     -7.8634404532     -0.4894522691      2.3162072132
 H     -8.1347210071      1.0775819788      1.7729822485
 H     -8.2135876670     -0.1807460141      0.6889430543
23
# ORCA AIMD Position Step 20, t=20.00 fs, E_Pot=-756.04463091 Hartree, Unit is Angstrom
Al     -1.7308366078      0.2711145540     -0.5235188654
 O     -1.7097413234      2.3919207332      0.0429734929
 H     -1.1401560509      3.1992982879     -0.1976170742
 H     -2.5020875267      2.8641542823      0.2622485956
 O      0.0716566417      0.1429684264     -1.1743781383
 H      0.4347140738      0.7241698038     -1.8909927519
 H      0.8729074137     -0.4285281175     -0.8979726794
 O     -3.9863457875      0.1880486691      0.1588260955
 H     -4.8316484140      0.6212536144     -0.2003414108
 H     -4.3084981238     -0.1189761440      1.0310454797
 O     -1.8181817086     -1.7040557996     -1.0261559971
 H     -1.1226204618     -2.4394889954     -0.9869143351
 H     -2.6616520199     -2.1701600040     -0.9329354737
 O     -2.3913724107      0.4129860252     -2.3881705851
 H     -2.3575885832     -0.4000101403     -2.9326228614
 H     -2.6064990244      1.1183801093     -3.0145506515
 O     -1.2519549521      0.2077268162      1.3528651284
 H     -1.2556981144      1.1587261072      1.6234344009
 H     -1.3868808315     -0.2779947787      2.1743532560
 N     -7.7292676872      0.1602328472      1.5322144406
 H     -7.8767784303     -0.4955933493      2.2885628489
 H     -8.1135302157      1.0914808542      1.7561199201
 H     -8.1856379598     -0.1586616700      0.6852982985
23
# ORCA AIMD Position Step 21, t=21.00 fs, E_Pot=-756.03984589 Hartree, Unit is Angstrom
Al     -1.7384452668      0.2682732517     -0.5248773434
 O     -1.7088945443      2.3944995085      0.0503821105
 H     -1.1337973711      3.1978662388     -0.1927165018
 H     -2.4847419470      2.8246438417      0.2812324389
 O      0.0678506958      0.1522996561     -1.1795340457
 H      0.4257209970      0.7319859347     -1.9063884015
 H      0.8782746743     -0.4145300420     -0.8761765368
 O     -3.9708659244      0.1807493469      0.1544688571