
                                 *****************
                                 * O   R   C   A *
                                 *****************

                                            #,                                       
                                            ###                                      
                                            ####                                     
                                            #####                                    
                                            ######                                   
                                           ########,                                 
                                     ,,################,,,,,                         
                               ,,#################################,,                 
                          ,,##########################################,,             
                       ,#########################################, ''#####,          
                    ,#############################################,,   '####,        
                  ,##################################################,,,,####,       
                ,###########''''           ''''###############################       
              ,#####''   ,,,,##########,,,,          '''####'''          '####       
            ,##' ,,,,###########################,,,                        '##       
           ' ,,###''''                  '''############,,,                           
         ,,##''                                '''############,,,,        ,,,,,,###''
      ,#''                                            '''#######################'''  
     '                                                          ''''####''''         
             ,#######,   #######,   ,#######,      ##                                
            ,#'     '#,  ##    ##  ,#'     '#,    #''#        ######   ,####,        
            ##       ##  ##   ,#'  ##            #'  '#       #        #'  '#        
            ##       ##  #######   ##           ,######,      #####,   #    #        
            '#,     ,#'  ##    ##  '#,     ,#' ,#      #,         ##   #,  ,#        
             '#######'   ##     ##  '#######'  #'      '#     #####' # '####'        



                  #######################################################
                  #                        -***-                        #
                  #          Department of theory and spectroscopy      #
                  #    Directorship and core code : Frank Neese         #
                  #        Max Planck Institute fuer Kohlenforschung    #
                  #                Kaiser Wilhelm Platz 1               #
                  #                 D-45470 Muelheim/Ruhr               #
                  #                      Germany                        #
                  #                                                     #
                  #                  All rights reserved                #
                  #                        -***-                        #
                  #######################################################



                         Program Version 5.0.4 -  RELEASE  -

 With contributions from (in alphabetic order):
   Daniel Aravena         : Magnetic Suceptibility
   Michael Atanasov       : Ab Initio Ligand Field Theory (pilot matlab implementation)
   Alexander A. Auer      : GIAO ZORA, VPT2 properties, NMR spectrum
   Ute Becker             : Parallelization
   Giovanni Bistoni       : ED, misc. LED, open-shell LED, HFLD
   Martin Brehm           : Molecular dynamics
   Dmytro Bykov           : SCF Hessian
   Vijay G. Chilkuri      : MRCI spin determinant printing, contributions to CSF-ICE
   Dipayan Datta          : RHF DLPNO-CCSD density
   Achintya Kumar Dutta   : EOM-CC, STEOM-CC
   Dmitry Ganyushin       : Spin-Orbit,Spin-Spin,Magnetic field MRCI
   Miquel Garcia          : C-PCM and meta-GGA Hessian, CC/C-PCM, Gaussian charge scheme
   Yang Guo               : DLPNO-NEVPT2, F12-NEVPT2, CIM, IAO-localization
   Andreas Hansen         : Spin unrestricted coupled pair/coupled cluster methods
   Benjamin Helmich-Paris : MC-RPA, TRAH-SCF, COSX integrals
   Lee Huntington         : MR-EOM, pCC
   Robert Izsak           : Overlap fitted RIJCOSX, COSX-SCS-MP3, EOM
   Marcus Kettner         : VPT2
   Christian Kollmar      : KDIIS, OOCD, Brueckner-CCSD(T), CCSD density, CASPT2, CASPT2-K
   Simone Kossmann        : Meta GGA functionals, TD-DFT gradient, OOMP2, MP2 Hessian
   Martin Krupicka        : Initial AUTO-CI
   Lucas Lang             : DCDCAS
   Marvin Lechner         : AUTO-CI (C++ implementation), FIC-MRCC
   Dagmar Lenk            : GEPOL surface, SMD
   Dimitrios Liakos       : Extrapolation schemes; Compound Job, initial MDCI parallelization
   Dimitrios Manganas     : Further ROCIS development; embedding schemes
   Dimitrios Pantazis     : SARC Basis sets
   Anastasios Papadopoulos: AUTO-CI, single reference methods and gradients
   Taras Petrenko         : DFT Hessian,TD-DFT gradient, ASA, ECA, R-Raman, ABS, FL, XAS/XES, NRVS
   Peter Pinski           : DLPNO-MP2, DLPNO-MP2 Gradient
   Christoph Reimann      : Effective Core Potentials
   Marius Retegan         : Local ZFS, SOC
   Christoph Riplinger    : Optimizer, TS searches, QM/MM, DLPNO-CCSD(T), (RO)-DLPNO pert. Triples
   Tobias Risthaus        : Range-separated hybrids, TD-DFT gradient, RPA, STAB
   Michael Roemelt        : Original ROCIS implementation
   Masaaki Saitow         : Open-shell DLPNO-CCSD energy and density
   Barbara Sandhoefer     : DKH picture change effects
   Avijit Sen             : IP-ROCIS
   Kantharuban Sivalingam : CASSCF convergence, NEVPT2, FIC-MRCI
   Bernardo de Souza      : ESD, SOC TD-DFT
   Georgi Stoychev        : AutoAux, RI-MP2 NMR, DLPNO-MP2 response
   Willem Van den Heuvel  : Paramagnetic NMR
   Boris Wezisla          : Elementary symmetry handling
   Frank Wennmohs         : Technical directorship


 We gratefully acknowledge several colleagues who have allowed us to
 interface, adapt or use parts of their codes:
   Stefan Grimme, W. Hujo, H. Kruse, P. Pracht,  : VdW corrections, initial TS optimization,
                  C. Bannwarth, S. Ehlert          DFT functionals, gCP, sTDA/sTD-DF
   Ed Valeev, F. Pavosevic, A. Kumar             : LibInt (2-el integral package), F12 methods
   Garnet Chan, S. Sharma, J. Yang, R. Olivares  : DMRG
   Ulf Ekstrom                                   : XCFun DFT Library
   Mihaly Kallay                                 : mrcc  (arbitrary order and MRCC methods)
   Jiri Pittner, Ondrej Demel                    : Mk-CCSD
   Frank Weinhold                                : gennbo (NPA and NBO analysis)
   Christopher J. Cramer and Donald G. Truhlar   : smd solvation model
   Lars Goerigk                                  : TD-DFT with DH, B97 family of functionals
   V. Asgeirsson, H. Jonsson                     : NEB implementation
   FAccTs GmbH                                   : IRC, NEB, NEB-TS, DLPNO-Multilevel, CI-OPT
                                                   MM, QMMM, 2- and 3-layer-ONIOM, Crystal-QMMM,
                                                   LR-CPCM, SF, NACMEs, symmetry and pop. for TD-DFT,
                                                   nearIR, NL-DFT gradient (VV10), updates on ESD,
                                                   ML-optimized integration grids
   S Lehtola, MJT Oliveira, MAL Marques          : LibXC Library
   Liviu Ungur et al                             : ANISO software


 Your calculation uses the libint2 library for the computation of 2-el integrals
 For citations please refer to: http://libint.valeyev.net

 Your ORCA version has been built with support for libXC version: 5.1.0
 For citations please refer to: https://tddft.org/programs/libxc/

 This ORCA versions uses:
   CBLAS   interface :  Fast vector & matrix operations
   LAPACKE interface :  Fast linear algebra routines
   Shared memory     :  Shared parallel matrices


Your calculation utilizes the atom-pairwise dispersion correction
based on tight binding partial charges (D4)
Cite in your paper:
E.Caldeweyher, C.Bannwarth, S.Grimme, J.Chem.Phys., (2017), 147, 034112.
E.Caldeweyher, S.Ehlert, A.Hansen, H.Neugebauer, S.Grimme, J.Chem.Phys., (2018), in progress.
   

================================================================================

----- Orbital basis set information -----
Your calculation utilizes the basis: def2-TZVP
   F. Weigend and R. Ahlrichs, Phys. Chem. Chem. Phys. 7, 3297 (2005).

----- AuxJ basis set information -----
Your calculation utilizes the auxiliary basis: def2/J
   F. Weigend, Phys. Chem. Chem. Phys. 8, 1057 (2006).

================================================================================
                                        WARNINGS
                       Please study these warnings very carefully!
================================================================================


WARNING: Geometry Optimization
  ===> : Switching off AutoStart
         For restart on a previous wavefunction, please use MOREAD

INFO   : the flag for use of the SHARK integral package has been found!

================================================================================
                                       INPUT FILE
================================================================================
NAME = meta_products_optfreq_5.inp
|  1> !B3LYP/G DEF2-TZVP OPT FREQ D4 SLOWCONV
|  2> 
|  3> %geom
|  4> optimizeHydrogens true
|  5> end
|  6> 
|  7> * xyz 1 1
|  8>   C   -3.19019345963220      2.58648065070027     -0.90289722183473
|  9>   C   -4.28243793183127      1.77986474771471     -1.32816880521780
| 10>   C   -4.03428908280950      0.65574585219654     -2.06684973085272
| 11>   C   -2.73768807364263      0.27246911206576     -2.42924051920160
| 12>   C   -1.65480662426904      1.06865423570923     -2.01613197024096
| 13>   C   -1.87747813610199      2.20009483941764     -1.26502258264009
| 14>   C   -3.44620938324264      3.81445756285799     -0.11801678663163
| 15>   H   -2.59203346411067     -0.62236961970160     -3.01755783025785
| 16>   H   -5.30005490180031      2.04913068478388     -1.08086864110253
| 17>   H   -2.53246015126054      4.26425518348010      0.26339022485871
| 18>   H   -4.13522741445822      3.61501761485585      0.70987489337206
| 19>   H   -3.95929597111535      4.55776914577046     -0.74581257381012
| 20>   H   -1.04492271922950      2.81069337363515     -0.94130986380544
| 21>   H   -0.64990525991880      0.78125610569438     -2.29337483253764
| 22>   N   -5.16798266221965     -0.20568343492347     -2.47530842890976
| 23>   O   -4.88053178170897     -1.30232834055174     -2.92263320727126
| 24>   O   -6.28800829757179      0.23731758945018     -2.32361853193653
| 25>   H   -21.98350468507646     -0.98480530315545      8.39358640801999
| 26> *
| 27> 
| 28>                          ****END OF INPUT****
================================================================================

                       *****************************
                       * Geometry Optimization Run *
                       *****************************

Geometry optimization settings:
Update method            Update   .... BFGS
Choice of coordinates    CoordSys .... Z-matrix Internals
Initial Hessian          InHess   .... Almoef's Model

Convergence Tolerances:
Energy Change            TolE     ....  5.0000e-06 Eh
Max. Gradient            TolMAXG  ....  3.0000e-04 Eh/bohr
RMS Gradient             TolRMSG  ....  1.0000e-04 Eh/bohr
Max. Displacement        TolMAXD  ....  4.0000e-03 bohr
RMS Displacement         TolRMSD  ....  2.0000e-03 bohr
Strict Convergence                ....  False
------------------------------------------------------------------------------
                        ORCA OPTIMIZATION COORDINATE SETUP
------------------------------------------------------------------------------

The optimization will be done in new redundant internal coordinates
Making redundant internal coordinates   ...  (new redundants) done
Evaluating the initial hessian          ...  (Almloef) done
Evaluating the coordinates              ...  done
Calculating the B-matrix                .... done
Calculating the G-matrix                .... done
Diagonalizing the G-matrix              .... done
Imposing constraints:
 Iter   0:  RMS(Cart)=    0.0000000000 RMS(Int)=    0.0000000000
CONVERGED
The first mode is                       ....   68
The number of degrees of freedom        ....   48
Storing new coordinates                 .... done

    -----------------------------------------------------------------
                    Redundant Internal Coordinates


    -----------------------------------------------------------------
         Definition                    Initial Value    Approx d2E/dq
    -----------------------------------------------------------------
      1. B(C   1,C   0)                  1.4228         0.553782 C 
      2. B(C   2,C   1)                  1.3678         0.677893 C 
      3. B(C   3,C   2)                  1.3998         0.602733 C 
      4. B(C   4,C   3)                  1.4061         0.588849 C 
      5. B(C   5,C   0)                  1.4155         0.568917 C 
      6. B(C   5,C   4)                  1.3762         0.657306 C 
      7. B(C   6,C   0)                  1.4797         0.449397 C 
      8. B(H   7,C   3)                  1.0808         0.372516   
      9. B(H   8,C   1)                  1.0813         0.371797   
     10. B(H   9,C   6)                  1.0875         0.363379   
     11. B(H  10,C   6)                  1.0954         0.353012   
     12. B(H  11,C   6)                  1.1000         0.347171   
     13. B(H  12,C   5)                  1.0820         0.370812   
     14. B(H  13,C   4)                  1.0813         0.371745   
     15. B(N  14,C   2)                  1.4813         0.400185 C 
     16. B(O  15,N  14)                  1.2188         0.940214 C 
     17. B(O  16,N  14)                  1.2140         0.956888 C 
     18. B(H  17,H   8)                 19.4244         0.000000   
     19. B(H  17,H  10)                 19.9689         0.000000   
     20. B(H  17,N  14)                 20.0375         0.000000   
     21. B(H  17,O  16)                 19.0447         0.000000   
     22. A(C   1,C   0,C   5)          118.7308         0.418874 C 
     23. A(C   1,C   0,C   6)          119.7480         0.401728 C 
     24. A(C   5,C   0,C   6)          121.5125         0.403642 C 
     25. A(C   2,C   1,H   8)          119.9278         0.360251   
     26. A(C   0,C   1,C   2)          119.2128         0.432222 C 
     27. A(C   0,C   1,H   8)          120.8579         0.348116   
     28. A(C   3,C   2,N  14)          118.5752         0.396967 C 
     29. A(C   1,C   2,C   3)          122.2011         0.438865 C 
     30. A(C   1,C   2,N  14)          119.2098         0.405268 C 
     31. A(C   2,C   3,H   7)          119.5028         0.353247   
     32. A(C   4,C   3,H   7)          121.6649         0.351857   
     33. A(C   2,C   3,C   4)          118.8323         0.427890 C 
     34. A(C   3,C   4,C   5)          120.0837         0.434604 C 
     35. A(C   5,C   4,H  13)          120.5847         0.358356   
     36. A(C   3,C   4,H  13)          119.3315         0.351734   
     37. A(C   0,C   5,H  12)          118.8812         0.349545   
     38. A(C   4,C   5,H  12)          120.1814         0.358202   
     39. A(C   0,C   5,C   4)          120.9374         0.431921 C 
     40. A(C   0,C   6,H  11)          109.8020         0.332347   
     41. A(H   9,C   6,H  11)          108.2158         0.289587   
     42. A(H  10,C   6,H  11)          105.1288         0.288277   
     43. A(C   0,C   6,H   9)          112.5749         0.334874   
     44. A(C   0,C   6,H  10)          111.0158         0.333268   
     45. A(H   9,C   6,H  10)          109.7998         0.290346   
     46. A(C   1,H   8,H  17)          151.7593         0.089000   
     47. A(C   6,H  10,H  17)          153.5027         0.089000   
     48. A(C   2,N  14,O  15)          116.3580         0.423935 C 
     49. A(C   2,N  14,O  16)          117.3518         0.425271 C 
     50. A(O  15,N  14,O  16)          126.2867         0.493568 C 
     51. A(O  16,N  14,H  17)           34.1214         0.089000   
     52. A(C   2,N  14,H  17)          121.0191         0.089000   
     53. A(O  15,N  14,H  17)          111.2252         0.089000   
     54. A(N  14,O  16,H  17)          143.8294         0.089000   
     55. A(H   8,H  17,N  14)            7.5060         0.089000   
     56. A(H  10,H  17,N  14)           14.5898         0.089000   
     57. A(H   8,H  17,O  16)            7.0910         0.089000   
     58. A(H  10,H  17,O  16)           14.5493         0.089000   
     59. A(H   8,H  17,H  10)            7.5464         0.089000   
     60. D(C   2,C   1,C   0,C   5)      0.2712         0.020989 C 
     61. D(C   2,C   1,C   0,C   6)    179.2199         0.020989 C 
     62. D(H   8,C   1,C   0,C   5)   -179.2790         0.020989   
     63. D(H   8,C   1,C   0,C   6)     -0.3303         0.020989   
     64. D(C   3,C   2,C   1,C   0)     -0.4298         0.032197 C 
     65. D(C   3,C   2,C   1,H   8)    179.1247         0.032197   
     66. D(N  14,C   2,C   1,C   0)    178.1960         0.032197 C 
     67. D(N  14,C   2,C   1,H   8)     -2.2495         0.032197   
     68. D(C   4,C   3,C   2,C   1)      0.1841         0.025057 C 
     69. D(C   4,C   3,C   2,N  14)   -178.4502         0.025057 C 
     70. D(H   7,C   3,C   2,C   1)   -179.7422         0.025057   
     71. D(H   7,C   3,C   2,N  14)      1.6236         0.025057   
     72. D(C   5,C   4,C   3,C   2)      0.2260         0.023857 C 
     73. D(C   5,C   4,C   3,H   7)   -179.8494         0.023857   
     74. D(H  13,C   4,C   3,C   2)   -179.8689         0.023857   
     75. D(H  13,C   4,C   3,H   7)      0.0557         0.023857   
     76. D(H  12,C   5,C   0,C   6)      1.1864         0.022199   
     77. D(H  12,C   5,C   4,C   3)    179.6361         0.030130   
     78. D(C   4,C   5,C   0,C   6)   -178.8003         0.022199 C 
     79. D(C   0,C   5,C   4,C   3)     -0.3774         0.030130 C 
     80. D(C   0,C   5,C   4,H  13)    179.7187         0.030130   
     81. D(C   4,C   5,C   0,C   1)      0.1291         0.022199 C 
     82. D(H  12,C   5,C   4,H  13)     -0.2677         0.030130   
     83. D(H  12,C   5,C   0,C   1)   -179.8843         0.022199   
     84. D(H  10,C   6,C   0,C   1)     48.3970         0.014894   
     85. D(H   9,C   6,C   0,C   5)     -9.1315         0.014894   
     86. D(H   9,C   6,C   0,C   1)    171.9498         0.014894   
     87. D(H  11,C   6,C   0,C   5)    111.4994         0.014894   
     88. D(H  11,C   6,C   0,C   1)    -67.4193         0.014894   
     89. D(H  10,C   6,C   0,C   5)   -132.6843         0.014894   
     90. D(H  17,H   8,C   1,C   0)   -111.7061         0.118508   
     91. D(H  17,H   8,C   1,C   2)     68.7469         0.118508   
     92. D(H  17,H  10,C   6,C   0)    -68.3920         0.115738   
     93. D(H  17,H  10,C   6,H   9)    166.4805         0.115738   
     94. D(H  17,H  10,C   6,H  11)     50.2809         0.115738   
     95. D(O  15,N  14,C   2,C   1)   -167.5983         0.013673 C 
     96. D(O  15,N  14,C   2,C   3)     11.0777         0.013673 C 
     97. D(O  16,N  14,C   2,C   1)     11.7583         0.013673 C 
     98. D(O  16,N  14,C   2,C   3)   -169.5658         0.013673 C 
     99. D(H  17,N  14,C   2,C   1)    -27.2977         0.013673   
    100. D(H  17,N  14,C   2,C   3)    151.3782         0.013673   
    101. D(H  17,O  16,N  14,C   2)   -105.7172         0.097629   
    102. D(H  17,O  16,N  14,O  15)     73.5676         0.097629   
    103. D(H  10,H  17,H   8,C   1)     91.4140         0.001500   
    104. D(N  14,H  17,H   8,C   1)    -60.1827         0.001500   
    105. D(H  10,H  17,N  14,O  16)    -84.9253         0.001500   
    106. D(H   8,H  17,H  10,C   6)     31.1986         0.001500   
    107. D(N  14,H  17,H  10,C   6)     45.4796         0.001500   
    108. D(O  16,H  17,H  10,C   6)     37.3288         0.001500   
    109. D(H   8,H  17,N  14,C   2)     23.3509         0.001500   
    110. D(H   8,H  17,N  14,O  15)    165.4713         0.001500   
    111. D(H   8,H  17,N  14,O  16)    -70.5662         0.001500   
    112. D(H  10,H  17,N  14,C   2)      8.9919         0.001500   
    113. D(O  16,H  17,H   8,C   1)    -76.0346         0.001500   
    114. D(H  10,H  17,N  14,O  15)    151.1123         0.001500   
    115. D(H   8,H  17,O  16,N  14)     93.7086         0.001500   
    116. D(H  10,H  17,O  16,N  14)     87.1853         0.001500   
    -----------------------------------------------------------------

Number of atoms                         .... 18
Number of degrees of freedom            .... 116

         *************************************************************
         *                GEOMETRY OPTIMIZATION CYCLE   1            *
         *************************************************************
---------------------------------
CARTESIAN COORDINATES (ANGSTROEM)
---------------------------------
  C     -3.190193    2.586481   -0.902897
  C     -4.282438    1.779865   -1.328169
  C     -4.034289    0.655746   -2.066850
  C     -2.737688    0.272469   -2.429241
  C     -1.654807    1.068654   -2.016132
  C     -1.877478    2.200095   -1.265023
  C     -3.446209    3.814458   -0.118017
  H     -2.592033   -0.622370   -3.017558
  H     -5.300055    2.049131   -1.080869
  H     -2.532460    4.264255    0.263390
  H     -4.135227    3.615018    0.709875
  H     -3.959296    4.557769   -0.745813
  H     -1.044923    2.810693   -0.941310
  H     -0.649905    0.781256   -2.293375
  N     -5.167983   -0.205683   -2.475308
  O     -4.880532   -1.302328   -2.922633
  O     -6.288008    0.237318   -2.323619
  H    -21.983505   -0.984805    8.393586

----------------------------
CARTESIAN COORDINATES (A.U.)
----------------------------
  NO LB      ZA    FRAG     MASS         X           Y           Z
   0 C     6.0000    0    12.011   -6.028592    4.887740   -1.706228
   1 C     6.0000    0    12.011   -8.092635    3.363457   -2.509875
   2 C     6.0000    0    12.011   -7.623702    1.239180   -3.905780
   3 C     6.0000    0    12.011   -5.173481    0.514892   -4.590599
   4 C     6.0000    0    12.011   -3.127131    2.019464   -3.809937
   5 C     6.0000    0    12.011   -3.547919    4.157577   -2.390546
   6 C     6.0000    0    12.011   -6.512392    7.208280   -0.223019
   7 H     1.0000    0     1.008   -4.898233   -1.176108   -5.702358
   8 H     1.0000    0     1.008  -10.015652    3.872296   -2.042546
   9 H     1.0000    0     1.008   -4.785656    8.058274    0.497735
  10 H     1.0000    0     1.008   -7.814447    6.831393    1.341469
  11 H     1.0000    0     1.008   -7.481985    8.612935   -1.409382
  12 H     1.0000    0     1.008   -1.974618    5.311441   -1.778818
  13 H     1.0000    0     1.008   -1.228143    1.476360   -4.333850
  14 N     7.0000    0    14.007   -9.766072   -0.388685   -4.677655
  15 O     8.0000    0    15.999   -9.222868   -2.461044   -5.522976
  16 O     8.0000    0    15.999  -11.882614    0.448465   -4.391003
  17 H     1.0000    0     1.008  -41.542803   -1.861012   15.861580

--------------------------------
INTERNAL COORDINATES (ANGSTROEM)
--------------------------------
 C      0   0   0     0.000000000000     0.00000000     0.00000000
 C      1   0   0     1.422843322939     0.00000000     0.00000000
 C      2   1   0     1.367797738128   119.21278660     0.00000000
 C      3   2   1     1.399786526574   122.20112034   359.57018607
 C      4   3   2     1.406130028743   118.83229953     0.18405513
 C      5   4   3     1.376192484373   120.08367025     0.22601954
 C      1   2   3     1.479698870547   119.74802342   179.21992783
 H      4   3   2     1.080772353291   119.50279765   180.25777717
 H      2   1   3     1.081298207529   120.85791739   180.44979212
 H      7   1   2     1.087532467046   112.57492291   171.94977649
 H      7   1   2     1.095411691566   111.01577762    48.39697373
 H      7   1   2     1.099953410989   109.80199759   292.58067599
 H      6   5   4     1.082020802243   120.18138819   179.63611496
 H      5   4   3     1.081336229812   119.33154121   180.13105672
 N      3   2   1     1.481269744754   119.20982935   178.19603380
 O     15   3   2     1.218752442083   116.35798908   192.40172215
 O     15   3   2     1.213967526866   117.35175274    11.75827587
 H     17  15   3    19.044701965109   143.82941880   254.28283543

---------------------------
INTERNAL COORDINATES (A.U.)
---------------------------
 C      0   0   0     0.000000000000     0.00000000     0.00000000
 C      1   0   0     2.688784211833     0.00000000     0.00000000
 C      2   1   0     2.584763131659   119.21278660     0.00000000
 C      3   2   1     2.645213181178   122.20112034   359.57018607
 C      4   3   2     2.657200663007   118.83229953     0.18405513
 C      5   4   3     2.600626903025   120.08367025     0.22601954
 C      1   2   3     2.796225626007   119.74802342   179.21992783
 H      4   3   2     2.042363760833   119.50279765   180.25777717
 H      2   1   3     2.043357481330   120.85791739   180.44979212
 H      7   1   2     2.055138524465   112.57492291   171.94977649
 H      7   1   2     2.070028100954   111.01577762    48.39697373
 H      7   1   2     2.078610706841   109.80199759   292.58067599
 H      6   5   4     2.044722987446   120.18138819   179.63611496
 H      5   4   3     2.043429333031   119.33154121   180.13105672
 N      3   2   1     2.799194148048   119.20982935   178.19603380
 O     15   3   2     2.303108340584   116.35798908   192.40172215
 O     15   3   2     2.294066161251   117.35175274    11.75827587
 H     17  15   3    35.989271016208   143.82941880   254.28283543

---------------------
BASIS SET INFORMATION
---------------------
There are 4 groups of distinct atoms

 Group   1 Type C   : 11s6p2d1f contracted to 5s3p2d1f pattern {62111/411/11/1}
 Group   2 Type H   : 5s1p contracted to 3s1p pattern {311/1}
 Group   3 Type N   : 11s6p2d1f contracted to 5s3p2d1f pattern {62111/411/11/1}
 Group   4 Type O   : 11s6p2d1f contracted to 5s3p2d1f pattern {62111/411/11/1}

Atom   0C    basis set group =>   1
Atom   1C    basis set group =>   1
Atom   2C    basis set group =>   1
Atom   3C    basis set group =>   1
Atom   4C    basis set group =>   1
Atom   5C    basis set group =>   1
Atom   6C    basis set group =>   1
Atom   7H    basis set group =>   2
Atom   8H    basis set group =>   2
Atom   9H    basis set group =>   2
Atom  10H    basis set group =>   2
Atom  11H    basis set group =>   2
Atom  12H    basis set group =>   2
Atom  13H    basis set group =>   2
Atom  14N    basis set group =>   3
Atom  15O    basis set group =>   4
Atom  16O    basis set group =>   4
Atom  17H    basis set group =>   2
---------------------------------
AUXILIARY/J BASIS SET INFORMATION
---------------------------------
There are 4 groups of distinct atoms

 Group   1 Type C   : 12s5p4d2f1g contracted to 6s4p3d1f1g pattern {711111/2111/211/2/1}
 Group   2 Type H   : 5s2p1d contracted to 3s1p1d pattern {311/2/1}
 Group   3 Type N   : 12s5p4d2f1g contracted to 6s4p3d1f1g pattern {711111/2111/211/2/1}
 Group   4 Type O   : 12s5p4d2f1g contracted to 6s4p3d1f1g pattern {711111/2111/211/2/1}

Atom   0C    basis set group =>   1
Atom   1C    basis set group =>   1
Atom   2C    basis set group =>   1
Atom   3C    basis set group =>   1
Atom   4C    basis set group =>   1
Atom   5C    basis set group =>   1
Atom   6C    basis set group =>   1
Atom   7H    basis set group =>   2
Atom   8H    basis set group =>   2
Atom   9H    basis set group =>   2
Atom  10H    basis set group =>   2
Atom  11H    basis set group =>   2
Atom  12H    basis set group =>   2
Atom  13H    basis set group =>   2
Atom  14N    basis set group =>   3
Atom  15O    basis set group =>   4
Atom  16O    basis set group =>   4
Atom  17H    basis set group =>   2
------------------------------------------------------------------------------
                           ORCA GTO INTEGRAL CALCULATION
                           -- RI-GTO INTEGRALS CHOSEN --
------------------------------------------------------------------------------
------------------------------------------------------------------------------
                   ___                                                        
                  /   \      - P O W E R E D   B Y -                         
                 /     \                                                     
                 |  |  |   _    _      __       _____    __    __             
                 |  |  |  | |  | |    /  \     |  _  \  |  |  /  |          
                  \  \/   | |  | |   /    \    | | | |  |  | /  /          
                 / \  \   | |__| |  /  /\  \   | |_| |  |  |/  /          
                |  |  |   |  __  | /  /__\  \  |    /   |      \           
                |  |  |   | |  | | |   __   |  |    \   |  |\   \          
                \     /   | |  | | |  |  |  |  | |\  \  |  | \   \       
                 \___/    |_|  |_| |__|  |__|  |_| \__\ |__|  \__/        
                                                                              
                      - O R C A' S   B I G   F R I E N D -                    
                                      &                                       
                       - I N T E G R A L  F E E D E R -                       
                                                                              
 v1 FN, 2020, v2 2021                                                         
------------------------------------------------------------------------------


Reading SHARK input file meta_products_optfreq_5.SHARKINP.tmp ... ok
----------------------
SHARK INTEGRAL PACKAGE
----------------------

Number of atoms                             ...     18
Number of basis functions                   ...    358
Number of shells                            ...    142
Maximum angular momentum                    ...      3
Integral batch strategy                     ... SHARK/LIBINT Hybrid
RI-J (if used) integral strategy            ... SPLIT-RIJ (Revised 2003 algorithm where possible)
Printlevel                                  ...      1
Contraction scheme used                     ... SEGMENTED contraction
Coulomb Range Separation                    ... NOT USED
Exchange Range Separation                   ... NOT USED
Finite Nucleus Model                        ... NOT USED
Auxiliary Coulomb fitting basis             ... AVAILABLE
   # of basis functions in Aux-J            ...    578
   # of shells in Aux-J                     ...    190
   Maximum angular momentum in Aux-J        ...      4
Auxiliary J/K fitting basis                 ... NOT available
Auxiliary Correlation fitting basis         ... NOT available
Auxiliary 'external' fitting basis          ... NOT available
Integral threshold                          ...     2.500000e-11
Primitive cut-off                           ...     2.500000e-12
Primitive pair pre-selection threshold      ...     2.500000e-12

Calculating pre-screening integrals         ... done (  0.3 sec) Dimension = 142
Organizing shell pair data                  ... done (  0.2 sec)
Shell pair information
Total number of shell pairs                 ...     10153
Shell pairs after pre-screening             ...      8421
Total number of primitive shell pairs       ...     31120
Primitive shell pairs kept                  ...     19082
          la=0 lb=0:   2133 shell pairs
          la=1 lb=0:   2351 shell pairs
          la=1 lb=1:    657 shell pairs
          la=2 lb=0:   1243 shell pairs
          la=2 lb=1:    680 shell pairs
          la=2 lb=2:    192 shell pairs
          la=3 lb=0:    598 shell pairs
          la=3 lb=1:    339 shell pairs
          la=3 lb=2:    180 shell pairs
          la=3 lb=3:     48 shell pairs

Calculating one electron integrals          ... done (  0.2 sec)
Calculating RI/J V-Matrix + Cholesky decomp.... done (  0.0 sec)
Calculating Nuclear repulsion               ... done (  0.0 sec) ENN=    497.221067564566 Eh

SHARK setup successfully completed in   1.4 seconds

Maximum memory used throughout the entire GTOINT-calculation: 128.3 MB
-------------------------------------------------------------------------------
                                 ORCA SCF
-------------------------------------------------------------------------------

------------
SCF SETTINGS
------------
Hamiltonian:
 Density Functional     Method          .... DFT(GTOs)
 Exchange Functional    Exchange        .... B88
   X-Alpha parameter    XAlpha          ....  0.666667
   Becke's b parameter  XBeta           ....  0.004200
 Correlation Functional Correlation     .... LYP
 LDA part of GGA corr.  LDAOpt          .... VWN-3
 Gradients option       PostSCFGGA      .... off
 Hybrid DFT is turned on
   Fraction HF Exchange ScalHFX         ....  0.200000
   Scaling of DF-GGA-X  ScalDFX         ....  0.720000
   Scaling of DF-GGA-C  ScalDFC         ....  0.810000
   Scaling of DF-LDA-C  ScalLDAC        ....  1.000000
   Perturbative correction              ....  0.000000
   Density functional embedding theory  .... OFF
   NL short-range parameter             ....  4.800000
 RI-approximation to the Coulomb term is turned on
   Number of AuxJ basis functions       .... 578
   RIJ-COSX (HFX calculated with COS-X)).... on


General Settings:
 Integral files         IntName         .... meta_products_optfreq_5
 Hartree-Fock type      HFTyp           .... RHF
 Total Charge           Charge          ....    1
 Multiplicity           Mult            ....    1
 Number of Electrons    NEL             ....   72
 Basis Dimension        Dim             ....  358
 Nuclear Repulsion      ENuc            ....    497.2210675646 Eh

Convergence Acceleration:
 DIIS                   CNVDIIS         .... on
   Start iteration      DIISMaxIt       ....     0
   Startup error        DIISStart       ....  0.200000
   # of expansion vecs  DIISMaxEq       ....     5
   Bias factor          DIISBfac        ....   1.050
   Max. coefficient     DIISMaxC        ....  10.000
 Trust-Rad. Augm. Hess. CNVTRAH         .... auto
   Auto Start mean grad. ratio tolernc. ....  1.125000
   Auto Start start iteration           ....    20
   Auto Start num. interpolation iter.  ....    10
   Max. Number of Micro iterations      ....    16
   Max. Number of Macro iterations      .... Maxiter - #DIIS iter
   Number of Davidson start vectors     ....     2
   Converg. threshold I  (grad. norm)   ....   1.000e-05
   Converg. threshold II (energy diff.) ....   1.000e-08
   Grad. Scal. Fac. for Micro threshold ....   0.100
   Minimum threshold for Micro iter.    ....   0.010
   NR start threshold (gradient norm)   ....   0.001
   Initial trust radius                 ....   0.400
   Minimum AH scaling param. (alpha)    ....   1.000
   Maximum AH scaling param. (alpha)    .... 1000.000
   Orbital update algorithm             .... Taylor
   White noise on init. David. guess    .... on
   Maximum white noise                  ....   0.010
   Quad. conv. algorithm                .... NR
 SOSCF                  CNVSOSCF        .... on
   Start iteration      SOSCFMaxIt      ....   150
   Startup grad/error   SOSCFStart      ....  0.001000
 Level Shifting         CNVShift        .... on
   Level shift para.    LevelShift      ....    0.2500
   Turn off err/grad.   ShiftErr        ....    0.0000
 Zerner damping         CNVZerner       .... off
 Static damping         CNVDamp         .... on
   Fraction old density DampFac         ....    0.8500
   Max. Damping (<1)    DampMax         ....    0.9800
   Min. Damping (>=0)   DampMin         ....    0.0000
   Turn off err/grad.   DampErr         ....    0.0300
 Fernandez-Rico         CNVRico         .... off

SCF Procedure:
 Maximum # iterations   MaxIter         ....   125
 SCF integral mode      SCFMode         .... Direct
   Integral package                     .... SHARK and LIBINT hybrid scheme
 Reset frequency        DirectResetFreq ....    20
 Integral Threshold     Thresh          ....  2.500e-11 Eh
 Primitive CutOff       TCut            ....  2.500e-12 Eh

Convergence Tolerance:
 Convergence Check Mode ConvCheckMode   .... Total+1el-Energy
 Convergence forced     ConvForced      .... 0
 Energy Change          TolE            ....  1.000e-08 Eh
 1-El. energy change                    ....  1.000e-05 Eh
 Orbital Gradient       TolG            ....  1.000e-05
 Orbital Rotation angle TolX            ....  1.000e-05
 DIIS Error             TolErr          ....  5.000e-07


Diagonalization of the overlap matrix:
Smallest eigenvalue                        ... 8.384e-06
Time for diagonalization                   ...    0.034 sec
Threshold for overlap eigenvalues          ... 1.000e-08
Number of eigenvalues below threshold      ... 0
Time for construction of square roots      ...    0.018 sec
Total time needed                          ...    0.052 sec

Time for model grid setup =    0.881 sec

------------------------------
INITIAL GUESS: MODEL POTENTIAL
------------------------------
Loading Hartree-Fock densities                     ... done
Calculating cut-offs                               ... done
Initializing the effective Hamiltonian             ... done
Setting up the integral package (SHARK)            ... done
Starting the Coulomb interaction                   ... done (   1.0 sec)
Reading the grid                                   ... done
Mapping shells                                     ... done
Starting the XC term evaluation                    ... done (   1.1 sec)
  promolecular density results
     # of electrons  =     72.996099879
     EX              =    -61.296525049
     EC              =     -2.482347393
     EX+EC           =    -63.778872442
Transforming the Hamiltonian                       ... done (   0.0 sec)
Diagonalizing the Hamiltonian                      ... done (   0.0 sec)
Back transforming the eigenvectors                 ... done (   0.0 sec)
Now organizing SCF variables                       ... done
                      ------------------
                      INITIAL GUESS DONE (   3.1 sec)
                      ------------------
-------------------
DFT GRID GENERATION
-------------------

General Integration Accuracy     IntAcc      ... 4.388
Radial Grid Type                 RadialGrid  ... OptM3 with GC (2021)
Angular Grid (max. ang.)         AngularGrid ... 4 (Lebedev-302)
Angular grid pruning method      GridPruning ... 4 (adaptive)
Weight generation scheme         WeightScheme... Becke
Basis function cutoff            BFCut       ... 1.0000e-11
Integration weight cutoff        WCut        ... 1.0000e-14
Angular grids for H and He will be reduced by one unit
Partially contracted basis set               ... off
Rotationally invariant grid construction     ... off

Total number of grid points                  ...    86177
Total number of batches                      ...     1356
Average number of points per batch           ...       63
Average number of grid points per atom       ...     4788
Time for grid setup =    2.315 sec

--------------------
COSX GRID GENERATION
--------------------

GRIDX 1
-------
General Integration Accuracy     IntAcc      ... 3.816
Radial Grid Type                 RadialGrid  ... OptM3 with GC (2021)
Angular Grid (max. ang.)         AngularGrid ... 1 (Lebedev-50)
Angular grid pruning method      GridPruning ... 4 (adaptive)
Weight generation scheme         WeightScheme... Becke
Basis function cutoff            BFCut       ... 1.0000e-11
Integration weight cutoff        WCut        ... 1.0000e-14
Angular grids for H and He will be reduced by one unit
Partially contracted basis set               ... on
Rotationally invariant grid construction     ... off

Total number of grid points                  ...    10981
Total number of batches                      ...      178
Average number of points per batch           ...       61
Average number of grid points per atom       ...      610
UseSFitting                                  ... on

GRIDX 2
-------
General Integration Accuracy     IntAcc      ... 4.020
Radial Grid Type                 RadialGrid  ... OptM3 with GC (2021)
Angular Grid (max. ang.)         AngularGrid ... 2 (Lebedev-110)
Angular grid pruning method      GridPruning ... 4 (adaptive)
Weight generation scheme         WeightScheme... Becke
Basis function cutoff            BFCut       ... 1.0000e-11
Integration weight cutoff        WCut        ... 1.0000e-14
Angular grids for H and He will be reduced by one unit
Partially contracted basis set               ... on
Rotationally invariant grid construction     ... off

Total number of grid points                  ...    24179
Total number of batches                      ...      386
Average number of points per batch           ...       62
Average number of grid points per atom       ...     1343
UseSFitting                                  ... on

GRIDX 3
-------
General Integration Accuracy     IntAcc      ... 4.338
Radial Grid Type                 RadialGrid  ... OptM3 with GC (2021)
Angular Grid (max. ang.)         AngularGrid ... 3 (Lebedev-194)
Angular grid pruning method      GridPruning ... 4 (adaptive)
Weight generation scheme         WeightScheme... Becke
Basis function cutoff            BFCut       ... 1.0000e-11
Integration weight cutoff        WCut        ... 1.0000e-14
Angular grids for H and He will be reduced by one unit
Partially contracted basis set               ... on
Rotationally invariant grid construction     ... off

Total number of grid points                  ...    53244
Total number of batches                      ...      843
Average number of points per batch           ...       63
Average number of grid points per atom       ...     2958
UseSFitting                                  ... on

Time for X-Grid setup             =    4.299 sec

--------------
SCF ITERATIONS
--------------
ITER       Energy         Delta-E        Max-DP      RMS-DP      [F,P]     Damp
               ***  Starting incremental Fock matrix formation  ***
  0   -475.9517865850   0.000000000000 0.07591289  0.00067963  0.2152443 0.8500
  1   -476.1377041632  -0.185917578269 0.06935122  0.00064017  0.1413909 0.8500
                               ***Turning on DIIS***
  2   -476.2257984382  -0.088094274987 0.05419402  0.00049567  0.0889261 0.8500
  3   -476.2522258550  -0.026427416832 0.04633847  0.00038102  0.0542431 0.8500
  4   -476.2484272183   0.003798636784 0.03427277  0.00032249  0.0382271 0.8500
  5   -476.2840663240  -0.035639105698 0.19421236  0.00168531  0.0297830 0.0000
  6   -476.2247075198   0.059358804153 0.00203823  0.00003128  0.0515026 0.8500
  7   -476.2262631798  -0.001555660021 0.00206733  0.00003258  0.0501042 0.8500
  8   -476.2281037232  -0.001840543344 0.00278727  0.00006279  0.0484624 0.8500
  9   -476.2312614784  -0.003157755204 0.00332387  0.00007356  0.0448533 0.8500
 10   -476.2343187686  -0.003057290195 0.00894431  0.00018697  0.0410641 0.8500
 11   -476.2395720460  -0.005253277487 0.00859523  0.00018174  0.0327902 0.8500
 12   -476.2433741299  -0.003802083838 0.04955267  0.00105378  0.0266298 0.0000
 13   -476.2563622564  -0.012988126536 0.00356287  0.00008068  0.0048202 0.0000
 14   -476.2565866036  -0.000224347226 0.00188382  0.00003467  0.0040969 0.0000
                      *** Initiating the SOSCF procedure ***
                           *** Shutting down DIIS ***
                      *** Re-Reading the Fockian *** 
                      *** Removing any level shift *** 
ITER      Energy       Delta-E        Grad      Rot      Max-DP    RMS-DP
 15   -476.25665173  -0.0000651237  0.000199  0.000199  0.000782  0.000014
               *** Restarting incremental Fock matrix formation ***
 16   -476.25664389   0.0000078367  0.000096  0.000415  0.000717  0.000012
 17   -476.25664333   0.0000005586  0.000304  0.000432  0.000269  0.000005
 18   -476.25664423  -0.0000008976  0.000107  0.000255  0.000359  0.000005
 19   -476.25664399   0.0000002446  0.000129  0.000141  0.000278  0.000003
 20   -476.25664432  -0.0000003383  0.000010  0.000038  0.000084  0.000001
 21   -476.25664432   0.0000000083  0.000016  0.000028  0.000020  0.000001
                  ***Gradient check signals convergence***
              ***Rediagonalizing the Fockian in SOSCF/NRSCF***

               *****************************************************
               *                     SUCCESS                       *
               *           SCF CONVERGED AFTER  22 CYCLES          *
               *****************************************************

Old exchange energy                            =    -12.350688262 Eh
New exchange energy                            =    -12.350691916 Eh
Exchange energy change after final integration =     -0.000003654 Eh
Total energy after final integration           =   -476.256647975 Eh
Final COS-X integration done in                =    46.951 sec

----------------
TOTAL SCF ENERGY
----------------

Total Energy       :         -476.25664798 Eh          -12959.60224 eV

Components:
Nuclear Repulsion  :          497.22106756 Eh           13530.07310 eV
Electronic Energy  :         -973.47771554 Eh          -26489.67535 eV
One Electron Energy:        -1629.77325252 Eh          -44348.38483 eV
Two Electron Energy:          656.29553698 Eh           17858.70948 eV
Max COSX asymmetry :            0.00000101 Eh               0.00003 eV

Virial components:
Potential Energy   :         -950.24414044 Eh          -25857.45763 eV
Kinetic Energy     :          473.98749246 Eh           12897.85538 eV
Virial Ratio       :            2.00478737


DFT components:
N(Alpha)           :       36.000064273862 electrons
N(Beta)            :       36.000064273862 electrons
N(Total)           :       72.000128547724 electrons
E(X)               :      -49.170681382326 Eh       
E(C)               :       -3.177566043225 Eh       
E(XC)              :      -52.348247425551 Eh       
DFET-embed. en.    :        0.000000000000 Eh       

---------------
SCF CONVERGENCE
---------------

  Last Energy change         ...   -6.5955e-09  Tolerance :   1.0000e-08
  Last MAX-Density change    ...    9.5930e-16  Tolerance :   1.0000e-07
  Last RMS-Density change    ...    1.5862e-17  Tolerance :   5.0000e-09
  Last Orbital Gradient      ...    4.6631e-07  Tolerance :   1.0000e-05
  Last Orbital Rotation      ...    2.3410e-06  Tolerance :   1.0000e-05

             **** THE GBW FILE WAS UPDATED (meta_products_optfreq_5.gbw) ****
             **** DENSITY meta_products_optfreq_5.scfp WAS UPDATED ****
             **** ENERGY FILE WAS UPDATED (meta_products_optfreq_5.en.tmp) ****
             **** THE GBW FILE WAS UPDATED (meta_products_optfreq_5.gbw) ****
             **** DENSITY meta_products_optfreq_5.scfp WAS UPDATED ****
----------------
ORBITAL ENERGIES
----------------

  NO   OCC          E(Eh)            E(eV) 
   0   2.0000     -19.191326      -522.2225 
   1   2.0000     -19.189262      -522.1664 
   2   2.0000     -14.583326      -396.8325 
   3   2.0000     -10.266639      -279.3694 
   4   2.0000     -10.240037      -278.6456 
   5   2.0000     -10.230200      -278.3779 
   6   2.0000     -10.229449      -278.3575 
   7   2.0000     -10.227015      -278.2912 
   8   2.0000     -10.226282      -278.2713 
   9   2.0000     -10.212195      -277.8880 
  10   2.0000      -1.267630       -34.4940 
  11   2.0000      -1.096115       -29.8268 
  12   2.0000      -0.920935       -25.0599 
  13   2.0000      -0.845290       -23.0015 
  14   2.0000      -0.817697       -22.2507 
  15   2.0000      -0.742768       -20.2118 
  16   2.0000      -0.728986       -19.8367 
  17   2.0000      -0.651596       -17.7308 
  18   2.0000      -0.619070       -16.8458 
  19   2.0000      -0.588313       -16.0088 
  20   2.0000      -0.572915       -15.5898 
  21   2.0000      -0.551404       -15.0045 
  22   2.0000      -0.542201       -14.7540 
  23   2.0000      -0.515529       -14.0282 
  24   2.0000      -0.491667       -13.3789 
  25   2.0000      -0.468011       -12.7352 
  26   2.0000      -0.461872       -12.5682 
  27   2.0000      -0.438570       -11.9341 
  28   2.0000      -0.415071       -11.2947 
  29   2.0000      -0.409913       -11.1543 
  30   2.0000      -0.399142       -10.8612 
  31   2.0000      -0.351805        -9.5731 
  32   2.0000      -0.343758        -9.3541 
  33   2.0000      -0.333830        -9.0840 
  34   2.0000      -0.316320        -8.6075 
  35   2.0000      -0.293007        -7.9731 
  36   0.0000      -0.499194       -13.5838 
  37   0.0000      -0.121147        -3.2966 
  38   0.0000      -0.067847        -1.8462 
  39   0.0000      -0.034912        -0.9500 
  40   0.0000       0.005316         0.1447 
  41   0.0000       0.022694         0.6175 
  42   0.0000       0.027701         0.7538 
  43   0.0000       0.042917         1.1678 
  44   0.0000       0.060755         1.6532 
  45   0.0000       0.067988         1.8500 
  46   0.0000       0.071980         1.9587 
  47   0.0000       0.075996         2.0679 
  48   0.0000       0.097097         2.6421 
  49   0.0000       0.109127         2.9695 
  50   0.0000       0.115563         3.1446 
  51   0.0000       0.136065         3.7025 
  52   0.0000       0.148163         4.0317 
  53   0.0000       0.149583         4.0704 
  54   0.0000       0.159739         4.3467 
  55   0.0000       0.180131         4.9016 
  56   0.0000       0.187841         5.1114 
  57   0.0000       0.195208         5.3119 
  58   0.0000       0.211741         5.7618 
  59   0.0000       0.218409         5.9432 
  60   0.0000       0.228023         6.2048 
  61   0.0000       0.233772         6.3613 
  62   0.0000       0.245665         6.6849 
  63   0.0000       0.257452         7.0056 
  64   0.0000       0.270407         7.3581 
  65   0.0000       0.280605         7.6357 
  66   0.0000       0.292974         7.9722 
  67   0.0000       0.301417         8.2020 
  68   0.0000       0.305867         8.3231 
  69   0.0000       0.313258         8.5242 
  70   0.0000       0.323734         8.8092 
  71   0.0000       0.328357         8.9351 
  72   0.0000       0.351319         9.5599 
  73   0.0000       0.362949         9.8763 
  74   0.0000       0.368628        10.0309 
  75   0.0000       0.378431        10.2976 
  76   0.0000       0.386473        10.5165 
  77   0.0000       0.391893        10.6640 
  78   0.0000       0.401753        10.9323 
  79   0.0000       0.406840        11.0707 
  80   0.0000       0.424109        11.5406 
  81   0.0000       0.427136        11.6230 
  82   0.0000       0.430010        11.7012 
  83   0.0000       0.452976        12.3261 
  84   0.0000       0.464112        12.6291 
  85   0.0000       0.469931        12.7875 
  86   0.0000       0.473296        12.8790 
  87   0.0000       0.478509        13.0209 
  88   0.0000       0.484010        13.1706 
  89   0.0000       0.503312        13.6958 
  90   0.0000       0.512950        13.9581 
  91   0.0000       0.552091        15.0232 
  92   0.0000       0.561731        15.2855 
  93   0.0000       0.575152        15.6507 
  94   0.0000       0.580999        15.8098 
  95   0.0000       0.590351        16.0643 
  96   0.0000       0.607731        16.5372 
  97   0.0000       0.621766        16.9191 
  98   0.0000       0.623598        16.9690 
  99   0.0000       0.642130        17.4732 
 100   0.0000       0.654087        17.7986 
 101   0.0000       0.660564        17.9748 
 102   0.0000       0.683474        18.5983 
 103   0.0000       0.697165        18.9708 
 104   0.0000       0.719549        19.5799 
 105   0.0000       0.739227        20.1154 
 106   0.0000       0.750158        20.4129 
 107   0.0000       0.766013        20.8443 
 108   0.0000       0.775972        21.1153 
 109   0.0000       0.783880        21.3305 
 110   0.0000       0.798131        21.7183 
 111   0.0000       0.827392        22.5145 
 112   0.0000       0.847809        23.0701 
 113   0.0000       0.875727        23.8298 
 114   0.0000       0.879359        23.9286 
 115   0.0000       0.906326        24.6624 
 116   0.0000       0.920891        25.0587 
 117   0.0000       0.952032        25.9061 
 118   0.0000       0.954361        25.9695 
 119   0.0000       0.986379        26.8407 
 120   0.0000       0.999311        27.1926 
 121   0.0000       1.018014        27.7016 
 122   0.0000       1.026665        27.9370 
 123   0.0000       1.047267        28.4976 
 124   0.0000       1.049089        28.5472 
 125   0.0000       1.049089        28.5472 
 126   0.0000       1.049091        28.5472 
 127   0.0000       1.065358        28.9899 
 128   0.0000       1.089337        29.6424 
 129   0.0000       1.107825        30.1454 
 130   0.0000       1.139265        31.0010 
 131   0.0000       1.154433        31.4137 
 132   0.0000       1.180193        32.1147 
 133   0.0000       1.189530        32.3688 
 134   0.0000       1.202878        32.7320 
 135   0.0000       1.211624        32.9700 
 136   0.0000       1.244599        33.8673 
 137   0.0000       1.250703        34.0334 
 138   0.0000       1.260207        34.2920 
 139   0.0000       1.273821        34.6624 
 140   0.0000       1.289780        35.0967 
 141   0.0000       1.340986        36.4901 
 142   0.0000       1.365016        37.1440 
 143   0.0000       1.371096        37.3094 
 144   0.0000       1.402212        38.1561 
 145   0.0000       1.413523        38.4639 
 146   0.0000       1.432236        38.9731 
 147   0.0000       1.443563        39.2814 
 148   0.0000       1.459360        39.7112 
 149   0.0000       1.476664        40.1821 
 150   0.0000       1.485734        40.4289 
 151   0.0000       1.495100        40.6837 
 152   0.0000       1.512601        41.1600 
 153   0.0000       1.520147        41.3653 
 154   0.0000       1.560004        42.4499 
 155   0.0000       1.563800        42.5532 
 156   0.0000       1.571371        42.7592 
 157   0.0000       1.596449        43.4416 
 158   0.0000       1.606096        43.7041 
 159   0.0000       1.627973        44.2994 
 160   0.0000       1.634783        44.4847 
 161   0.0000       1.647855        44.8404 
 162   0.0000       1.651678        44.9444 
 163   0.0000       1.674227        45.5580 
 164   0.0000       1.710329        46.5404 
 165   0.0000       1.731396        47.1137 
 166   0.0000       1.737780        47.2874 
 167   0.0000       1.739162        47.3250 
 168   0.0000       1.814215        49.3673 
 169   0.0000       1.820126        49.5282 
 170   0.0000       1.890146        51.4335 
 171   0.0000       1.898750        51.6676 
 172   0.0000       1.901978        51.7555 
 173   0.0000       1.911485        52.0142 
 174   0.0000       1.923573        52.3431 
 175   0.0000       1.929884        52.5148 
 176   0.0000       1.949087        53.0374 
 177   0.0000       1.976623        53.7867 
 178   0.0000       1.981003        53.9058 
 179   0.0000       2.009446        54.6798 
 180   0.0000       2.025717        55.1226 
 181   0.0000       2.047918        55.7267 
 182   0.0000       2.058981        56.0277 
 183   0.0000       2.079786        56.5938 
 184   0.0000       2.082081        56.6563 
 185   0.0000       2.102876        57.2222 
 186   0.0000       2.110223        57.4221 
 187   0.0000       2.123560        57.7850 
 188   0.0000       2.158890        58.7464 
 189   0.0000       2.190430        59.6046 
 190   0.0000       2.197981        59.8101 
 191   0.0000       2.225454        60.5577 
 192   0.0000       2.231296        60.7167 
 193   0.0000       2.264437        61.6185 
 194   0.0000       2.290496        62.3276 
 195   0.0000       2.341122        63.7052 
 196   0.0000       2.353347        64.0378 
 197   0.0000       2.407982        65.5245 
 198   0.0000       2.434740        66.2526 
 199   0.0000       2.453507        66.7633 
 200   0.0000       2.459906        66.9374 
 201   0.0000       2.461677        66.9856 
 202   0.0000       2.470887        67.2362 
 203   0.0000       2.484585        67.6090 
 204   0.0000       2.515870        68.4603 
 205   0.0000       2.557551        69.5945 
 206   0.0000       2.562837        69.7383 
 207   0.0000       2.573033        70.0158 
 208   0.0000       2.579733        70.1981 
 209   0.0000       2.603345        70.8406 
 210   0.0000       2.609922        71.0196 
 211   0.0000       2.635150        71.7061 
 212   0.0000       2.646684        72.0199 
 213   0.0000       2.659550        72.3700 
 214   0.0000       2.684212        73.0411 
 215   0.0000       2.700674        73.4891 
 216   0.0000       2.704463        73.5922 
 217   0.0000       2.722869        74.0930 
 218   0.0000       2.737589        74.4936 
 219   0.0000       2.756514        75.0086 
 220   0.0000       2.766964        75.2929 
 221   0.0000       2.773927        75.4824 
 222   0.0000       2.791880        75.9709 
 223   0.0000       2.804693        76.3196 
 224   0.0000       2.836945        77.1972 
 225   0.0000       2.848937        77.5235 
 226   0.0000       2.875767        78.2536 
 227   0.0000       2.891127        78.6716 
 228   0.0000       2.908384        79.1412 
 229   0.0000       2.916369        79.3584 
 230   0.0000       2.932098        79.7864 
 231   0.0000       2.953775        80.3763 
 232   0.0000       2.987455        81.2928 
 233   0.0000       2.990651        81.3797 
 234   0.0000       3.012220        81.9667 
 235   0.0000       3.020894        82.2027 
 236   0.0000       3.042271        82.7844 
 237   0.0000       3.048051        82.9417 
 238   0.0000       3.074024        83.6484 
 239   0.0000       3.080066        83.8128 
 240   0.0000       3.114711        84.7556 
 241   0.0000       3.124899        85.0328 
 242   0.0000       3.138915        85.4142 
 243   0.0000       3.151454        85.7554 
 244   0.0000       3.159042        85.9619 
 245   0.0000       3.179741        86.5252 
 246   0.0000       3.190722        86.8240 
 247   0.0000       3.204096        87.1879 
 248   0.0000       3.209366        87.3313 
 249   0.0000       3.229804        87.8874 
 250   0.0000       3.245781        88.3222 
 251   0.0000       3.251583        88.4801 
 252   0.0000       3.270394        88.9919 
 253   0.0000       3.288513        89.4850 
 254   0.0000       3.321776        90.3901 
 255   0.0000       3.332104        90.6712 
 256   0.0000       3.350625        91.1751 
 257   0.0000       3.354424        91.2785 
 258   0.0000       3.372636        91.7741 
 259   0.0000       3.388125        92.1956 
 260   0.0000       3.405793        92.6763 
 261   0.0000       3.429000        93.3078 
 262   0.0000       3.442790        93.6831 
 263   0.0000       3.446883        93.7944 
 264   0.0000       3.493546        95.0642 
 265   0.0000       3.514805        95.6427 
 266   0.0000       3.549791        96.5947 
 267   0.0000       3.605190        98.1022 
 268   0.0000       3.643861        99.1545 
 269   0.0000       3.648056        99.2686 
 270   0.0000       3.694094       100.5214 
 271   0.0000       3.697412       100.6117 
 272   0.0000       3.735542       101.6493 
 273   0.0000       3.748567       102.0037 
 274   0.0000       3.766831       102.5007 
 275   0.0000       3.790145       103.1351 
 276   0.0000       3.806669       103.5847 
 277   0.0000       3.851740       104.8112 
 278   0.0000       3.923679       106.7687 
 279   0.0000       3.929495       106.9270 
 280   0.0000       3.978534       108.2614 
 281   0.0000       3.997629       108.7810 
 282   0.0000       4.014758       109.2471 
 283   0.0000       4.032270       109.7236 
 284   0.0000       4.042500       110.0020 
 285   0.0000       4.067213       110.6745 
 286   0.0000       4.080086       111.0248 
 287   0.0000       4.135986       112.5459 
 288   0.0000       4.143918       112.7617 
 289   0.0000       4.153671       113.0271 
 290   0.0000       4.178712       113.7085 
 291   0.0000       4.196981       114.2057 
 292   0.0000       4.226968       115.0217 
 293   0.0000       4.235185       115.2452 
 294   0.0000       4.245881       115.5363 
 295   0.0000       4.263419       116.0135 
 296   0.0000       4.378983       119.1582 
 297   0.0000       4.415459       120.1508 
 298   0.0000       4.468336       121.5896 
 299   0.0000       4.499125       122.4274 
 300   0.0000       4.526762       123.1795 
 301   0.0000       4.540493       123.5531 
 302   0.0000       4.585480       124.7773 
 303   0.0000       4.591853       124.9507 
 304   0.0000       4.643204       126.3480 
 305   0.0000       4.650055       126.5344 
 306   0.0000       4.666216       126.9742 
 307   0.0000       4.698438       127.8510 
 308   0.0000       4.716581       128.3447 
 309   0.0000       4.775272       129.9418 
 310   0.0000       4.859148       132.2241 
 311   0.0000       4.883234       132.8796 
 312   0.0000       4.914481       133.7298 
 313   0.0000       4.973591       135.3383 
 314   0.0000       5.040624       137.1623 
 315   0.0000       5.046012       137.3090 
 316   0.0000       5.086063       138.3988 
 317   0.0000       5.095639       138.6594 
 318   0.0000       5.120905       139.3469 
 319   0.0000       5.137369       139.7949 
 320   0.0000       5.196985       141.4172 
 321   0.0000       5.226839       142.2295 
 322   0.0000       5.299694       144.2120 
 323   0.0000       5.326604       144.9443 
 324   0.0000       5.342255       145.3702 
 325   0.0000       5.367238       146.0500 
 326   0.0000       5.412611       147.2846 
 327   0.0000       5.445438       148.1779 
 328   0.0000       5.554266       151.1393 
 329   0.0000       5.584640       151.9658 
 330   0.0000       5.739831       156.1887 
 331   0.0000       5.760408       156.7487 
 332   0.0000       5.962403       162.2452 
 333   0.0000       6.200455       168.7230 
 334   0.0000       6.264184       170.4571 
 335   0.0000       6.307249       171.6290 
 336   0.0000       6.369023       173.3099 
 337   0.0000       6.389841       173.8764 
 338   0.0000       6.430809       174.9912 
 339   0.0000       6.704341       182.4344 
 340   0.0000       6.832730       185.9280 
 341   0.0000       6.856819       186.5835 
 342   0.0000       6.912315       188.0937 
 343   0.0000       7.087119       192.8503 
 344   0.0000       7.252905       197.3616 
 345   0.0000       7.388855       201.0610 
 346   0.0000       7.449924       202.7227 
 347   0.0000       7.476270       203.4396 
 348   0.0000      22.097876       601.3138 
 349   0.0000      22.378841       608.9592 
 350   0.0000      22.552689       613.6899 
 351   0.0000      22.647863       616.2797 
 352   0.0000      22.719519       618.2295 
 353   0.0000      22.891861       622.9192 
 354   0.0000      23.181939       630.8126 
 355   0.0000      32.511816       884.6915 
 356   0.0000      44.018266      1197.7979 
 357   0.0000      44.041962      1198.4427 

                    ********************************
                    * MULLIKEN POPULATION ANALYSIS *
                    ********************************

-----------------------
MULLIKEN ATOMIC CHARGES
-----------------------
   0 C :    0.197678
   1 C :   -0.245766
   2 C :    0.105814
   3 C :   -0.182970
   4 C :   -0.065158
   5 C :   -0.174485
   6 C :   -0.356522
   7 H :    0.156360
   8 H :    0.147249
   9 H :    0.117859
  10 H :    0.123535
  11 H :    0.129208
  12 H :    0.116007
  13 H :    0.123904
  14 N :    0.423419
  15 O :   -0.307830
  16 O :   -0.308301
  17 H :    1.000000
Sum of atomic charges:    1.0000000

--------------------------------
MULLIKEN REDUCED ORBITAL CHARGES
--------------------------------
  0 C s       :     3.150367  s :     3.150367
      pz      :     0.871937  p :     2.516627
      px      :     0.823463
      py      :     0.821227
      dz2     :     0.017913  d :     0.125489
      dxz     :     0.027762
      dyz     :     0.014260
      dx2y2   :     0.028122
      dxy     :     0.037433
      f0      :     0.000798  f :     0.009839
      f+1     :     0.001081
      f-1     :     0.001324
      f+2     :     0.001429
      f-2     :     0.001467
      f+3     :     0.002148
      f-3     :     0.001592
  1 C s       :     3.277459  s :     3.277459
      pz      :     0.961496  p :     2.879074
      px      :     0.983017
      py      :     0.934561
      dz2     :     0.016189  d :     0.081800
      dxz     :     0.012392
      dyz     :     0.011635
      dx2y2   :     0.022389
      dxy     :     0.019194
      f0      :     0.000565  f :     0.007433
      f+1     :     0.000650
      f-1     :     0.001679
      f+2     :     0.000897
      f-2     :     0.001136
      f+3     :     0.001471
      f-3     :     0.001035
  2 C s       :     3.085154  s :     3.085154
      pz      :     0.981116  p :     2.675063
      px      :     0.811848
      py      :     0.882099
      dz2     :     0.020831  d :     0.122105
      dxz     :     0.026298
      dyz     :     0.012291
      dx2y2   :     0.022906
      dxy     :     0.039780
      f0      :     0.000971  f :     0.011864
      f+1     :     0.001135
      f-1     :     0.001869
      f+2     :     0.001313
      f-2     :     0.001916
      f+3     :     0.002281
      f-3     :     0.002378
  3 C s       :     3.256150  s :     3.256150
      pz      :     0.959045  p :     2.837938
      px      :     0.894219
      py      :     0.984674
      dz2     :     0.007981  d :     0.081516
      dxz     :     0.020745
      dyz     :     0.009191
      dx2y2   :     0.023056
      dxy     :     0.020544
      f0      :     0.000688  f :     0.007366
      f+1     :     0.001034
      f-1     :     0.000768
      f+2     :     0.001241
      f-2     :     0.000887
      f+3     :     0.001543
      f-3     :     0.001205
  4 C s       :     3.186647  s :     3.186647
      pz      :     0.941641  p :     2.792871
      px      :     0.936561
      py      :     0.914669
      dz2     :     0.014685  d :     0.078314
      dxz     :     0.012700
      dyz     :     0.011976
      dx2y2   :     0.019911
      dxy     :     0.019041
      f0      :     0.000549  f :     0.007326
      f+1     :     0.000613
      f-1     :     0.001653
      f+2     :     0.000847
      f-2     :     0.001189
      f+3     :     0.001456
      f-3     :     0.001019
  5 C s       :     3.234285  s :     3.234285
      pz      :     0.954269  p :     2.853316
      px      :     0.936621
      py      :     0.962426
      dz2     :     0.013599  d :     0.079622
      dxz     :     0.015689
      dyz     :     0.009591
      dx2y2   :     0.016055
      dxy     :     0.024689
      f0      :     0.000589  f :     0.007262
      f+1     :     0.000594
      f-1     :     0.001514
      f+2     :     0.000992
      f-2     :     0.001063
      f+3     :     0.001204
      f-3     :     0.001306
  6 C s       :     3.319818  s :     3.319818
      pz      :     0.993741  p :     2.985394
      px      :     1.059146
      py      :     0.932506
      dz2     :     0.010478  d :     0.047601
      dxz     :     0.009135
      dyz     :     0.009276
      dx2y2   :     0.007179
      dxy     :     0.011533
      f0      :     0.000041  f :     0.003710
      f+1     :     0.000214
      f-1     :     0.000682
      f+2     :     0.000899
      f-2     :     0.001084
      f+3     :     0.000294
      f-3     :     0.000496
  7 H s       :     0.820603  s :     0.820603
      pz      :     0.007498  p :     0.023037
      px      :     0.003714
      py      :     0.011825
  8 H s       :     0.829931  s :     0.829931
      pz      :     0.004640  p :     0.022820
      px      :     0.013860
      py      :     0.004320
  9 H s       :     0.860367  s :     0.860367
      pz      :     0.005584  p :     0.021774
      px      :     0.009997
      py      :     0.006193
 10 H s       :     0.855084  s :     0.855084
      pz      :     0.009303  p :     0.021381
      px      :     0.007592
      py      :     0.004487
 11 H s       :     0.849358  s :     0.849358
      pz      :     0.006811  p :     0.021435
      px      :     0.006200
      py      :     0.008424
 12 H s       :     0.861649  s :     0.861649
      pz      :     0.005239  p :     0.022344
      px      :     0.009885
      py      :     0.007220
 13 H s       :     0.853566  s :     0.853566
      pz      :     0.005072  p :     0.022531
      px      :     0.012796
      py      :     0.004663
 14 N s       :     3.263646  s :     3.263646
      pz      :     1.100772  p :     3.048259
      px      :     0.981053
      py      :     0.966434
      dz2     :     0.020205  d :     0.250443
      dxz     :     0.046792
      dyz     :     0.034627
      dx2y2   :     0.064357
      dxy     :     0.084462
      f0      :     0.001185  f :     0.014234
      f+1     :     0.000974
      f-1     :     0.001603
      f+2     :     0.002077
      f-2     :     0.001577
      f+3     :     0.004017
      f-3     :     0.002801
 15 O s       :     3.887668  s :     3.887668
      pz      :     1.380008  p :     4.374721
      px      :     1.796972
      py      :     1.197741
      dz2     :     0.006274  d :     0.042177
      dxz     :     0.002068
      dyz     :     0.012871
      dx2y2   :     0.012312
      dxy     :     0.008653
      f0      :     0.000243  f :     0.003263
      f+1     :     0.000055
      f-1     :     0.000607
      f+2     :     0.000614
      f-2     :     0.000362
      f+3     :     0.000668
      f-3     :     0.000714
 16 O s       :     3.882627  s :     3.882627
      pz      :     1.460193  p :     4.379896
      px      :     1.243550
      py      :     1.676153
      dz2     :     0.005002  d :     0.042481
      dxz     :     0.011191
      dyz     :     0.001782
      dx2y2   :     0.012469
      dxy     :     0.012037
      f0      :     0.000312  f :     0.003297
      f+1     :     0.000437
      f-1     :     0.000101
      f+2     :     0.000382
      f-2     :     0.000316
      f+3     :     0.000781
      f-3     :     0.000968
 17 H s       :     0.000000  s :     0.000000
      pz      :     0.000000  p :     0.000000
      px      :     0.000000
      py      :     0.000000


                     *******************************
                     * LOEWDIN POPULATION ANALYSIS *
                     *******************************

----------------------
LOEWDIN ATOMIC CHARGES
----------------------
   0 C :   -0.146362
   1 C :   -0.068703
   2 C :   -0.161142
   3 C :   -0.088605
   4 C :   -0.124871
   5 C :   -0.098647
   6 C :   -0.253050
   7 H :    0.155067
   8 H :    0.157641
   9 H :    0.127507
  10 H :    0.132779
  11 H :    0.136723
  12 H :    0.147666
  13 H :    0.148043
  14 N :   -0.032254
  15 O :   -0.016174
  16 O :   -0.015618
  17 H :    1.000000

-------------------------------
LOEWDIN REDUCED ORBITAL CHARGES
-------------------------------
  0 C s       :     2.720414  s :     2.720414
      pz      :     0.873895  p :     2.856236
      px      :     1.034218
      py      :     0.948123
      dz2     :     0.067410  d :     0.513661
      dxz     :     0.096040
      dyz     :     0.070392
      dx2y2   :     0.142866
      dxy     :     0.136952
      f0      :     0.004359  f :     0.056050
      f+1     :     0.007017
      f-1     :     0.005263
      f+2     :     0.006300
      f-2     :     0.009495
      f+3     :     0.013804
      f-3     :     0.009814
  1 C s       :     2.757110  s :     2.757110
      pz      :     0.919188  p :     2.900860
      px      :     0.999254
      py      :     0.982419
      dz2     :     0.055622  d :     0.367640
      dxz     :     0.048741
      dyz     :     0.061964
      dx2y2   :     0.114380
      dxy     :     0.086933
      f0      :     0.004014  f :     0.043092
      f+1     :     0.004020
      f-1     :     0.005786
      f+2     :     0.005625
      f-2     :     0.007340
      f+3     :     0.009099
      f-3     :     0.007208
  2 C s       :     2.722796  s :     2.722796
      pz      :     0.942667  p :     2.832523
      px      :     0.931495
      py      :     0.958361
      dz2     :     0.075613  d :     0.539498
      dxz     :     0.100195
      dyz     :     0.067770
      dx2y2   :     0.122675
      dxy     :     0.173245
      f0      :     0.006286  f :     0.066325
      f+1     :     0.006638
      f-1     :     0.006110
      f+2     :     0.007780
      f-2     :     0.011616
      f+3     :     0.013935
      f-3     :     0.013961
  3 C s       :     2.767871  s :     2.767871
      pz      :     0.909300  p :     2.913678
      px      :     1.036070
      py      :     0.968308
      dz2     :     0.028613  d :     0.365001
      dxz     :     0.081683
      dyz     :     0.044063
      dx2y2   :     0.117053
      dxy     :     0.093589
      f0      :     0.003664  f :     0.042054
      f+1     :     0.007042
      f-1     :     0.001544
      f+2     :     0.004915
      f-2     :     0.006678
      f+3     :     0.010399
      f-3     :     0.007812
  4 C s       :     2.765288  s :     2.765288
      pz      :     0.929814  p :     2.934000
      px      :     0.994807
      py      :     1.009379
      dz2     :     0.054328  d :     0.382293
      dxz     :     0.055646
      dyz     :     0.062282
      dx2y2   :     0.112720
      dxy     :     0.097317
      f0      :     0.004102  f :     0.043291
      f+1     :     0.004023
      f-1     :     0.005088
      f+2     :     0.005367
      f-2     :     0.007997
      f+3     :     0.009680
      f-3     :     0.007033
  5 C s       :     2.762276  s :     2.762276
      pz      :     0.925501  p :     2.915289
      px      :     0.999907
      py      :     0.989881
      dz2     :     0.049430  d :     0.378652
      dxz     :     0.070554
      dyz     :     0.049066
      dx2y2   :     0.082896
      dxy     :     0.126705
      f0      :     0.004185  f :     0.042431
      f+1     :     0.003673
      f-1     :     0.004934
      f+2     :     0.006411
      f-2     :     0.006712
      f+3     :     0.008581
      f-3     :     0.007935
  6 C s       :     2.814966  s :     2.814966
      pz      :     1.055623  p :     3.151511
      px      :     1.058003
      py      :     1.037884
      dz2     :     0.035563  d :     0.259913
      dxz     :     0.059140
      dyz     :     0.060250
      dx2y2   :     0.042267
      dxy     :     0.062693
      f0      :     0.003227  f :     0.026661
      f+1     :     0.002067
      f-1     :     0.005273
      f+2     :     0.003533
      f-2     :     0.004330
      f+3     :     0.003605
      f-3     :     0.004626
  7 H s       :     0.782718  s :     0.782718
      pz      :     0.020348  p :     0.062215
      px      :     0.011191
      py      :     0.030676
  8 H s       :     0.780613  s :     0.780613
      pz      :     0.013529  p :     0.061746
      px      :     0.035454
      py      :     0.012763
  9 H s       :     0.812055  s :     0.812055
      pz      :     0.015556  p :     0.060438
      px      :     0.028919
      py      :     0.015963
 10 H s       :     0.807450  s :     0.807450
      pz      :     0.025014  p :     0.059771
      px      :     0.021536
      py      :     0.013221
 11 H s       :     0.803900  s :     0.803900
      pz      :     0.020198  p :     0.059377
      px      :     0.017547
      py      :     0.021632
 12 H s       :     0.793460  s :     0.793460
      pz      :     0.014570  p :     0.058875
      px      :     0.025200
      py      :     0.019105
 13 H s       :     0.793131  s :     0.793131
      pz      :     0.014005  p :     0.058826
      px      :     0.031648
      py      :     0.013173
 14 N s       :     2.926014  s :     2.926014
      pz      :     1.038118  p :     3.271164
      px      :     1.126569
      py      :     1.106476
      dz2     :     0.070683  d :     0.763468
      dxz     :     0.125470
      dyz     :     0.103897
      dx2y2   :     0.206399
      dxy     :     0.257019
      f0      :     0.004516  f :     0.071608
      f+1     :     0.004948
      f-1     :     0.005461
      f+2     :     0.011371
      f-2     :     0.007923
      f+3     :     0.022331
      f-3     :     0.015058
 15 O s       :     3.495743  s :     3.495743
      pz      :     1.366116  p :     4.409128
      px      :     1.712540
      py      :     1.330473
      dz2     :     0.012838  d :     0.100115
      dxz     :     0.005029
      dyz     :     0.029348
      dx2y2   :     0.030982
      dxy     :     0.021918
      f0      :     0.001038  f :     0.011187
      f+1     :     0.000169
      f-1     :     0.001819
      f+2     :     0.002161
      f-2     :     0.001305
      f+3     :     0.002319
      f-3     :     0.002375
 16 O s       :     3.491929  s :     3.491929
      pz      :     1.415334  p :     4.411160
      px      :     1.371679
      py      :     1.624147
      dz2     :     0.013304  d :     0.101147
      dxz     :     0.021101
      dyz     :     0.004078
      dx2y2   :     0.032807
      dxy     :     0.029857
      f0      :     0.001033  f :     0.011382
      f+1     :     0.001742
      f-1     :     0.000417
      f+2     :     0.001035
      f-2     :     0.000972
      f+3     :     0.002816
      f-3     :     0.003366
 17 H s       :     0.000000  s :     0.000000
      pz      :     0.000000  p :     0.000000
      px      :     0.000000
      py      :     0.000000


                      *****************************
                      * MAYER POPULATION ANALYSIS *
[...]
     11      -0.041808   0.021395  -0.014033  -0.019514   0.073002  -0.000046
     12       0.084081  -0.014170  -0.183168   0.025755  -0.023314  -0.000205
     13       0.081990  -0.137276  -0.078329   0.152777  -0.233812   0.000075
     14       0.036016  -0.076552  -0.020860   0.083210  -0.130675   0.000053
     15      -0.094313   0.036396   0.153785   0.059435  -0.105681  -0.000160
     16       0.066072   0.082639  -0.045900  -0.175314   0.244740  -0.000656
     17       0.049694   0.042849  -0.045333  -0.107265   0.152677  -0.000363
     18      -0.025594  -0.008188   0.008188  -0.001913  -0.007217  -0.023612
     19       0.032711  -0.027208  -0.002889  -0.025307   0.028533   0.045686
     20       0.026455  -0.015859  -0.002658  -0.014143   0.017011   0.016015
     21      -0.017377   0.341262  -0.533685   0.039809   0.037717   0.000091
     22      -0.086421   0.071367  -0.042276  -0.025313   0.143618  -0.000652
     23      -0.043328  -0.002357   0.047497  -0.017561   0.078437  -0.000336
     24      -0.079739   0.170595  -0.081821   0.120479  -0.300714  -0.004404
     25      -0.260049   0.190153  -0.270246   0.196566  -0.228108   0.002752
     26      -0.131093   0.086177  -0.141239   0.099362  -0.084619   0.002084
     27      -0.112906  -0.197367  -0.103943  -0.002214   0.034032  -0.357989
     28       0.258841   0.340178   0.211098  -0.028360  -0.041760  -0.144259
     29       0.026274   0.160191   0.092697  -0.005530  -0.030054  -0.079970
     30       0.212790   0.341209   0.147395   0.009510  -0.050316   0.283430
     31      -0.183934  -0.214425  -0.167329  -0.010335   0.052833   0.077688
     32       0.125567   0.155268   0.053448  -0.002600  -0.009311  -0.502218
     33       0.310848   0.362803   0.166803   0.000368  -0.043690   0.355011
     34       0.106254   0.056920  -0.006185  -0.018459   0.020225  -0.467889
     35      -0.186437  -0.247871  -0.149541  -0.014147   0.050146   0.397607
     36       0.265559   0.129482  -0.090611  -0.221300   0.269341   0.006158
     37      -0.385200  -0.007765   0.255942   0.153588  -0.192772   0.004920
     38      -0.254166  -0.022279   0.156645   0.115472  -0.141120   0.002104
     39      -0.165281   0.231879  -0.036047  -0.129366   0.235521   0.000337
     40      -0.379195   0.281306   0.213859  -0.101455   0.198535   0.000236
     41      -0.196748   0.130788   0.126956  -0.043384   0.084706   0.000158
     42      -0.022838  -0.001862  -0.052156  -0.414026  -0.151094  -0.000157
     43       0.012784   0.009992   0.002545   0.508866   0.168108  -0.000029
     44       0.000488   0.002432   0.000290   0.191867   0.071826   0.000003
     45      -0.000127  -0.001187   0.000430   0.054186   0.025510   0.000040
     46      -0.013871  -0.017154   0.010544  -0.281774  -0.064757   0.000040
     47      -0.004012  -0.005773   0.004322  -0.099566  -0.024863   0.000015
     48       0.030065  -0.002456   0.048162   0.291401   0.085334   0.000076
     49      -0.008627   0.000281  -0.015689  -0.145685  -0.052096  -0.000004
     50      -0.003043   0.000379  -0.006351  -0.058735  -0.022375  -0.000004
     51       0.000010   0.000020   0.000312   0.000376  -0.000029  -0.000005
     52       0.000008   0.000177   0.001166  -0.000609  -0.000716   0.000006
     53      -0.000005   0.000185   0.000792  -0.000779  -0.000626  -0.000007
                 48         49         50         51         52         53    
      0       0.000066  -0.001567   0.001230  -0.001455   0.001756   0.000245
      1      -0.000730   0.000669  -0.001361   0.000675   0.001401  -0.000050
      2       0.000562   0.000513  -0.000941   0.000566   0.000561  -0.000075
      3       0.000131   0.000505   0.000022   0.003023  -0.076639  -0.000388
      4       0.000074  -0.000240   0.000401  -0.001500   0.030070  -0.000471
      5      -0.000420  -0.000277   0.000220  -0.001233   0.026920  -0.000218
      6       0.000015  -0.000117  -0.000026  -0.000121  -0.000450   0.002636
      7       0.000075   0.000349   0.000315   0.000272  -0.003293  -0.000642
      8      -0.000073   0.000198   0.000184   0.000166  -0.001783  -0.000676
      9       0.000031   0.000181  -0.000388  -0.003013   0.000718  -0.005323
     10       0.000008   0.000007   0.002880   0.009433   0.000051   0.074674
     11      -0.000010  -0.000017   0.001661   0.005675  -0.000065   0.042563
     12      -0.000053  -0.000158   0.030971   0.069177   0.002834  -0.013391
     13      -0.000030  -0.000113  -0.009842  -0.028842  -0.001406   0.002691
     14      -0.000042  -0.000019  -0.009629  -0.025446  -0.001168   0.003259
     15      -0.000127   0.002290  -0.064004   0.029076   0.001989  -0.001363
     16      -0.000234   0.001650  -0.041663   0.022236   0.001030  -0.001882
     17       0.000165   0.000733  -0.015682   0.009009   0.000333  -0.000912
     18       0.003842  -0.088555  -0.002305   0.000840  -0.000568   0.000078
     19      -0.038585  -0.020163  -0.000763   0.000282   0.000002  -0.000058
     20       0.082128  -0.003844  -0.000382   0.000144   0.000228  -0.000007
     21       0.000074   0.000305   0.002941   0.011441  -0.000357   0.055755
     22      -0.000154  -0.000393  -0.037260  -0.123763  -0.001905  -0.855702
     23       0.000506  -0.000286  -0.021248  -0.070578  -0.001074  -0.485295
     24      -0.001622  -0.003305   0.003320  -0.037988   0.892034   0.003816
     25      -0.000129   0.002594  -0.001717   0.014145  -0.325234  -0.001140
     26       0.002682   0.002151  -0.001337   0.012872  -0.298481  -0.001163
     27      -0.086977   0.821704   0.025272  -0.008527   0.001638   0.000047
     28      -0.047223   0.353520   0.013170  -0.004483  -0.000615  -0.000030
     29      -0.001421   0.190812   0.007183  -0.002456  -0.000518  -0.000058
     30       0.380996   0.143409   0.001770  -0.000220   0.002536  -0.000464
     31       0.079426   0.036617   0.001191  -0.000752  -0.000731  -0.000142
     32      -0.633801  -0.282304  -0.002428  -0.000064  -0.006189   0.000370
     33      -0.340927   0.098753   0.001283  -0.000118   0.001120  -0.000526
     34       0.436409  -0.160327  -0.001244  -0.000312  -0.003595   0.000294
     35      -0.349403   0.131044   0.001984  -0.000615   0.001332  -0.000436
     36       0.001939  -0.022554   0.742867  -0.333554  -0.016897   0.015245
     37       0.001217  -0.017477   0.485649  -0.221744  -0.011109   0.010893
     38       0.000753  -0.007525   0.183169  -0.084337  -0.004196   0.004311
     39       0.000051   0.003375  -0.366247  -0.794899  -0.032840   0.130557
     40       0.000068  -0.001414   0.137072   0.305568   0.012635  -0.046871
     41       0.000009  -0.001291   0.125785   0.277582   0.011494  -0.043531
     42      -0.000017  -0.000030  -0.000064  -0.000078  -0.001122  -0.000303
     43      -0.000013   0.000028   0.000001   0.000072   0.000550   0.001066
     44       0.000014   0.000007   0.000004   0.000037   0.000345   0.000493
     45       0.000001   0.000006   0.000045   0.000137   0.000220   0.000654
     46       0.000014  -0.000031  -0.000018  -0.000014   0.000093  -0.000291
     47      -0.000014  -0.000009  -0.000008  -0.000027   0.000009  -0.000222
     48       0.000009   0.000021   0.000004   0.000044   0.000207  -0.000126
     49       0.000008  -0.000025  -0.000022   0.000007  -0.000657  -0.000149
     50      -0.000006  -0.000013  -0.000015   0.000001  -0.000344  -0.000065
     51       0.000020   0.000001  -0.000011  -0.000008  -0.000019  -0.000001
     52      -0.000045  -0.000016  -0.000053  -0.000018  -0.000053  -0.000009
     53       0.000018  -0.000022  -0.000038  -0.000007  -0.000034  -0.000007


-----------
IR SPECTRUM
-----------

 Mode   freq       eps      Int      T**2         TX        TY        TZ
       cm**-1   L/(mol*cm) km/mol    a.u.
----------------------------------------------------------------------------
  8:     22.08   0.055722  281.59  0.787594  (-0.540337 -0.000904 -0.704010)
  9:     37.05   0.030753  155.41  0.259039  (-0.254570  0.007103 -0.440662)
 10:     44.71   0.001314    6.64  0.009173  (-0.032179 -0.029604 -0.085214)
 11:    171.89   0.002075   10.49  0.003767  (-0.028609  0.030534 -0.044906)
 12:    204.89   0.000079    0.40  0.000121  (-0.001481  0.010156  0.003930)
 13:    212.71   0.000100    0.50  0.000146  (-0.007071  0.004693  0.008612)
 14:    357.06   0.000187    0.95  0.000164  ( 0.011887  0.004719  0.000124)
 15:    391.20   0.000150    0.76  0.000119  (-0.006857 -0.007806 -0.003366)
 16:    429.43   0.000148    0.75  0.000107  (-0.003513  0.007230 -0.006529)
 17:    500.93   0.000712    3.60  0.000444  (-0.001986 -0.001517  0.020917)
 18:    529.39   0.000489    2.47  0.000288  ( 0.002696 -0.013604  0.009781)
 19:    565.21   0.000129    0.65  0.000071  (-0.007772  0.001487 -0.002888)
 20:    683.10   0.000785    3.97  0.000359  ( 0.015601  0.010510  0.002229)
 21:    696.60   0.002666   13.47  0.001194  ( 0.004692 -0.017204  0.029604)
 22:    750.20   0.008253   41.71  0.003433  (-0.006057  0.025431 -0.052438)
 23:    815.90   0.006062   30.64  0.002319  ( 0.034391  0.032762  0.007917)
 24:    823.35   0.001856    9.38  0.000703  ( 0.001852 -0.015098  0.021724)
 25:    907.64   0.000715    3.61  0.000246  ( 0.007462 -0.001667  0.013687)
 26:    917.15   0.002918   14.74  0.000993  (-0.029936 -0.009718 -0.001463)
 27:    949.45   0.000831    4.20  0.000273  (-0.001887  0.007168 -0.014766)
 28:    984.93   0.000050    0.25  0.000016  (-0.002173 -0.002128  0.002538)
 29:    999.85   0.000546    2.76  0.000170  ( 0.001059 -0.011281 -0.006481)
 30:   1020.97   0.000208    1.05  0.000064  ( 0.002291  0.006186  0.004485)
 31:   1072.64   0.000628    3.17  0.000183  ( 0.003545 -0.009116  0.009329)
 32:   1093.72   0.002932   14.82  0.000837  (-0.015371 -0.022866 -0.008808)
 33:   1116.13   0.004985   25.19  0.001394  (-0.035235 -0.012138 -0.002207)
 34:   1191.89   0.000060    0.30  0.000016  ( 0.001847 -0.003101 -0.001599)
 35:   1258.72   0.000480    2.43  0.000119  (-0.000855  0.009773  0.004775)
 36:   1286.34   0.002462   12.44  0.000597  ( 0.024271 -0.000256 -0.002874)
 37:   1324.08   0.000902    4.56  0.000213  (-0.000134 -0.013062 -0.006476)
 38:   1388.63   0.055281  279.37  0.012423  (-0.086361 -0.066703 -0.022710)
 39:   1433.78   0.000527    2.66  0.000115  (-0.007247  0.007181  0.003257)
 40:   1479.53   0.001722    8.70  0.000363  ( 0.018480  0.000498 -0.004629)
 41:   1488.49   0.001538    7.77  0.000322  ( 0.005240 -0.009953  0.013994)
 42:   1493.15   0.001885    9.53  0.000394  (-0.000607 -0.015897 -0.011870)
 43:   1517.32   0.002852   14.41  0.000587  ( 0.017006  0.016059  0.006287)
 44:   1559.88   0.000927    4.68  0.000185  (-0.008497  0.009524  0.004742)
 45:   1622.56   0.054381  274.82  0.010459  (-0.062358  0.076298  0.027368)
 46:   1679.84   0.002049   10.36  0.000381  (-0.015129  0.012310 -0.000513)
 47:   3025.38   0.003956   19.99  0.000408  (-0.002844  0.017965  0.008790)
 48:   3067.22   0.002306   11.66  0.000235  ( 0.000440 -0.004611  0.014601)
 49:   3104.84   0.002726   13.78  0.000274  (-0.014739 -0.007085 -0.002557)
 50:   3176.80   0.001265    6.39  0.000124  (-0.004686 -0.009018 -0.004585)
 51:   3198.18   0.001504    7.60  0.000147  ( 0.011867 -0.001231 -0.002107)
 52:   3214.47   0.000360    1.82  0.000035  ( 0.005232  0.002508  0.001124)
 53:   3235.48   0.000512    2.59  0.000049  (-0.003217 -0.005834 -0.002243)

* The epsilon (eps) is given for a Dirac delta lineshape.
** The dipole moment derivative (T) already includes vibrational overlap.

The first frequency considered to be a vibration is 8
The total number of vibrations considered is 46


--------------------------
THERMOCHEMISTRY AT 298.15K
--------------------------

Temperature         ... 298.15 K
Pressure            ... 1.00 atm
Total Mass          ... 138.15 AMU

Throughout the following assumptions are being made:
  (1) The electronic state is orbitally nondegenerate
  (2) There are no thermally accessible electronically excited states
  (3) Hindered rotations indicated by low frequency modes are not
      treated as such but are treated as vibrations and this may
      cause some error
  (4) All equations used are the standard statistical mechanics
      equations for an ideal gas
  (5) All vibrations are strictly harmonic

freq.      22.08  E(vib)   ...       0.56 
freq.      37.05  E(vib)   ...       0.54 
freq.      44.71  E(vib)   ...       0.53 
freq.     171.89  E(vib)   ...       0.38 
freq.     204.89  E(vib)   ...       0.35 
freq.     212.71  E(vib)   ...       0.34 
freq.     357.06  E(vib)   ...       0.22 
freq.     391.20  E(vib)   ...       0.20 
freq.     429.43  E(vib)   ...       0.18 
freq.     500.93  E(vib)   ...       0.14 
freq.     529.39  E(vib)   ...       0.13 
freq.     565.21  E(vib)   ...       0.11 
freq.     683.10  E(vib)   ...       0.08 
freq.     696.60  E(vib)   ...       0.07 
freq.     750.20  E(vib)   ...       0.06 
freq.     815.90  E(vib)   ...       0.05 
freq.     823.35  E(vib)   ...       0.05 
freq.     907.64  E(vib)   ...       0.03 
freq.     917.15  E(vib)   ...       0.03 
freq.     949.45  E(vib)   ...       0.03 
freq.     984.93  E(vib)   ...       0.02 
freq.     999.85  E(vib)   ...       0.02 
freq.    1020.97  E(vib)   ...       0.02 
freq.    1072.64  E(vib)   ...       0.02 
freq.    1093.72  E(vib)   ...       0.02 
freq.    1116.13  E(vib)   ...       0.01 
freq.    1191.89  E(vib)   ...       0.01 
freq.    1258.72  E(vib)   ...       0.01 
freq.    1286.34  E(vib)   ...       0.01 
freq.    1324.08  E(vib)   ...       0.01 
freq.    1388.63  E(vib)   ...       0.00 
freq.    1433.78  E(vib)   ...       0.00 
freq.    1479.53  E(vib)   ...       0.00 
freq.    1488.49  E(vib)   ...       0.00 
freq.    1493.15  E(vib)   ...       0.00 
freq.    1517.32  E(vib)   ...       0.00 
freq.    1559.88  E(vib)   ...       0.00 
freq.    1622.56  E(vib)   ...       0.00 
freq.    1679.84  E(vib)   ...       0.00 
freq.    3025.38  E(vib)   ...       0.00 
freq.    3067.22  E(vib)   ...       0.00 
freq.    3104.84  E(vib)   ...       0.00 
freq.    3176.80  E(vib)   ...       0.00 
freq.    3198.18  E(vib)   ...       0.00 
freq.    3214.47  E(vib)   ...       0.00 
freq.    3235.48  E(vib)   ...       0.00 

------------
INNER ENERGY
------------

The inner energy is: U= E(el) + E(ZPE) + E(vib) + E(rot) + E(trans)
    E(el)   - is the total energy from the electronic structure calculation
              = E(kin-el) + E(nuc-el) + E(el-el) + E(nuc-nuc)
    E(ZPE)  - the the zero temperature vibrational energy from the frequency calculation
    E(vib)  - the the finite temperature correction to E(ZPE) due to population
              of excited vibrational states
    E(rot)  - is the rotational thermal energy
    E(trans)- is the translational thermal energy

Summary of contributions to the inner energy U:
Electronic energy                ...   -476.28372980 Eh
Zero point energy                ...      0.12995744 Eh      81.55 kcal/mol
Thermal vibrational correction   ...      0.00676790 Eh       4.25 kcal/mol
Thermal rotational correction    ...      0.00141627 Eh       0.89 kcal/mol
Thermal translational correction ...      0.00141627 Eh       0.89 kcal/mol
-----------------------------------------------------------------------
Total thermal energy                   -476.14417193 Eh


Summary of corrections to the electronic energy:
(perhaps to be used in another calculation)
Total thermal correction                  0.00960044 Eh       6.02 kcal/mol
Non-thermal (ZPE) correction              0.12995744 Eh      81.55 kcal/mol
-----------------------------------------------------------------------
Total correction                          0.13955788 Eh      87.57 kcal/mol


--------
ENTHALPY
--------

The enthalpy is H = U + kB*T
                kB is Boltzmann's constant
Total free energy                 ...   -476.14417193 Eh 
Thermal Enthalpy correction       ...      0.00094421 Eh       0.59 kcal/mol
-----------------------------------------------------------------------
Total Enthalpy                    ...   -476.14322772 Eh


Note: Only C1 symmetry has been detected, increase convergence thresholds 
      if your molecule has a higher symmetry. Symmetry factor of 1.0 is   
      used for the rotational entropy correction. 
 

Note: Rotational entropy computed according to Herzberg 
Infrared and Raman Spectra, Chapter V,1, Van Nostrand Reinhold, 1945 
Point Group:  C1, Symmetry Number:   1  
Rotational constants in cm-1:     0.044959     0.022889     0.015879 

Vibrational entropy computed according to the QRRHO of S. Grimme
Chem.Eur.J. 2012 18 9955


-------
ENTROPY
-------

The entropy contributions are T*S = T*(S(el)+S(vib)+S(rot)+S(trans))
     S(el)   - electronic entropy
     S(vib)  - vibrational entropy
     S(rot)  - rotational entropy
     S(trans)- translational entropy
The entropies will be listed as multiplied by the temperature to get
units of energy

Electronic entropy                ...      0.00000000 Eh      0.00 kcal/mol
Vibrational entropy               ...      0.01215265 Eh      7.63 kcal/mol
Rotational entropy                ...      0.01471413 Eh      9.23 kcal/mol
Translational entropy             ...      0.01932890 Eh     12.13 kcal/mol
-----------------------------------------------------------------------
Final entropy term                ...      0.04619567 Eh     28.99 kcal/mol

In case the symmetry of your molecule has not been determined correctly
or in case you have a reason to use a different symmetry number we print 
out the resulting rotational entropy values for sn=1,12 :
 --------------------------------------------------------
|  sn= 1 | S(rot)=       0.01471413 Eh      9.23 kcal/mol|
|  sn= 2 | S(rot)=       0.01405967 Eh      8.82 kcal/mol|
|  sn= 3 | S(rot)=       0.01367684 Eh      8.58 kcal/mol|
|  sn= 4 | S(rot)=       0.01340522 Eh      8.41 kcal/mol|
|  sn= 5 | S(rot)=       0.01319453 Eh      8.28 kcal/mol|
|  sn= 6 | S(rot)=       0.01302239 Eh      8.17 kcal/mol|
|  sn= 7 | S(rot)=       0.01287684 Eh      8.08 kcal/mol|
|  sn= 8 | S(rot)=       0.01275076 Eh      8.00 kcal/mol|
|  sn= 9 | S(rot)=       0.01263955 Eh      7.93 kcal/mol|
|  sn=10 | S(rot)=       0.01254007 Eh      7.87 kcal/mol|
|  sn=11 | S(rot)=       0.01245008 Eh      7.81 kcal/mol|
|  sn=12 | S(rot)=       0.01236793 Eh      7.76 kcal/mol|
 --------------------------------------------------------


-------------------
GIBBS FREE ENERGY
-------------------

The Gibbs free energy is G = H - T*S

Total enthalpy                    ...   -476.14322772 Eh 
Total entropy correction          ...     -0.04619567 Eh    -28.99 kcal/mol
-----------------------------------------------------------------------
Final Gibbs free energy         ...   -476.18942339 Eh

For completeness - the Gibbs free energy minus the electronic energy
G-E(el)                           ...      0.09430641 Eh     59.18 kcal/mol


Timings for individual modules:

Sum of individual times         ...    12013.697 sec (= 200.228 min)
GTO integral calculation        ...       23.303 sec (=   0.388 min)   0.2 %
SCF iterations                  ...     6090.154 sec (= 101.503 min)  50.7 %
SCF Gradient evaluation         ...     1870.029 sec (=  31.167 min)  15.6 %
Geometry relaxation             ...        3.791 sec (=   0.063 min)   0.0 %
Analytical frequency calculation...     4026.420 sec (=  67.107 min)  33.5 %
                             ****ORCA TERMINATED NORMALLY****
TOTAL RUN TIME: 0 days 3 hours 20 minutes 23 seconds 632 msec
