
                                 *****************
                                 * O   R   C   A *
                                 *****************

                                            #,                                       
                                            ###                                      
                                            ####                                     
                                            #####                                    
                                            ######                                   
                                           ########,                                 
                                     ,,################,,,,,                         
                               ,,#################################,,                 
                          ,,##########################################,,             
                       ,#########################################, ''#####,          
                    ,#############################################,,   '####,        
                  ,##################################################,,,,####,       
                ,###########''''           ''''###############################       
              ,#####''   ,,,,##########,,,,          '''####'''          '####       
            ,##' ,,,,###########################,,,                        '##       
           ' ,,###''''                  '''############,,,                           
         ,,##''                                '''############,,,,        ,,,,,,###''
      ,#''                                            '''#######################'''  
     '                                                          ''''####''''         
             ,#######,   #######,   ,#######,      ##                                
            ,#'     '#,  ##    ##  ,#'     '#,    #''#        ######   ,####,        
            ##       ##  ##   ,#'  ##            #'  '#       #        #'  '#        
            ##       ##  #######   ##           ,######,      #####,   #    #        
            '#,     ,#'  ##    ##  '#,     ,#' ,#      #,         ##   #,  ,#        
             '#######'   ##     ##  '#######'  #'      '#     #####' # '####'        



                  #######################################################
                  #                        -***-                        #
                  #          Department of theory and spectroscopy      #
                  #    Directorship and core code : Frank Neese         #
                  #        Max Planck Institute fuer Kohlenforschung    #
                  #                Kaiser Wilhelm Platz 1               #
                  #                 D-45470 Muelheim/Ruhr               #
                  #                      Germany                        #
                  #                                                     #
                  #                  All rights reserved                #
                  #                        -***-                        #
                  #######################################################



                         Program Version 5.0.4 -  RELEASE  -

 With contributions from (in alphabetic order):
   Daniel Aravena         : Magnetic Suceptibility
   Michael Atanasov       : Ab Initio Ligand Field Theory (pilot matlab implementation)
   Alexander A. Auer      : GIAO ZORA, VPT2 properties, NMR spectrum
   Ute Becker             : Parallelization
   Giovanni Bistoni       : ED, misc. LED, open-shell LED, HFLD
   Martin Brehm           : Molecular dynamics
   Dmytro Bykov           : SCF Hessian
   Vijay G. Chilkuri      : MRCI spin determinant printing, contributions to CSF-ICE
   Dipayan Datta          : RHF DLPNO-CCSD density
   Achintya Kumar Dutta   : EOM-CC, STEOM-CC
   Dmitry Ganyushin       : Spin-Orbit,Spin-Spin,Magnetic field MRCI
   Miquel Garcia          : C-PCM and meta-GGA Hessian, CC/C-PCM, Gaussian charge scheme
   Yang Guo               : DLPNO-NEVPT2, F12-NEVPT2, CIM, IAO-localization
   Andreas Hansen         : Spin unrestricted coupled pair/coupled cluster methods
   Benjamin Helmich-Paris : MC-RPA, TRAH-SCF, COSX integrals
   Lee Huntington         : MR-EOM, pCC
   Robert Izsak           : Overlap fitted RIJCOSX, COSX-SCS-MP3, EOM
   Marcus Kettner         : VPT2
   Christian Kollmar      : KDIIS, OOCD, Brueckner-CCSD(T), CCSD density, CASPT2, CASPT2-K
   Simone Kossmann        : Meta GGA functionals, TD-DFT gradient, OOMP2, MP2 Hessian
   Martin Krupicka        : Initial AUTO-CI
   Lucas Lang             : DCDCAS
   Marvin Lechner         : AUTO-CI (C++ implementation), FIC-MRCC
   Dagmar Lenk            : GEPOL surface, SMD
   Dimitrios Liakos       : Extrapolation schemes; Compound Job, initial MDCI parallelization
   Dimitrios Manganas     : Further ROCIS development; embedding schemes
   Dimitrios Pantazis     : SARC Basis sets
   Anastasios Papadopoulos: AUTO-CI, single reference methods and gradients
   Taras Petrenko         : DFT Hessian,TD-DFT gradient, ASA, ECA, R-Raman, ABS, FL, XAS/XES, NRVS
   Peter Pinski           : DLPNO-MP2, DLPNO-MP2 Gradient
   Christoph Reimann      : Effective Core Potentials
   Marius Retegan         : Local ZFS, SOC
   Christoph Riplinger    : Optimizer, TS searches, QM/MM, DLPNO-CCSD(T), (RO)-DLPNO pert. Triples
   Tobias Risthaus        : Range-separated hybrids, TD-DFT gradient, RPA, STAB
   Michael Roemelt        : Original ROCIS implementation
   Masaaki Saitow         : Open-shell DLPNO-CCSD energy and density
   Barbara Sandhoefer     : DKH picture change effects
   Avijit Sen             : IP-ROCIS
   Kantharuban Sivalingam : CASSCF convergence, NEVPT2, FIC-MRCI
   Bernardo de Souza      : ESD, SOC TD-DFT
   Georgi Stoychev        : AutoAux, RI-MP2 NMR, DLPNO-MP2 response
   Willem Van den Heuvel  : Paramagnetic NMR
   Boris Wezisla          : Elementary symmetry handling
   Frank Wennmohs         : Technical directorship


 We gratefully acknowledge several colleagues who have allowed us to
 interface, adapt or use parts of their codes:
   Stefan Grimme, W. Hujo, H. Kruse, P. Pracht,  : VdW corrections, initial TS optimization,
                  C. Bannwarth, S. Ehlert          DFT functionals, gCP, sTDA/sTD-DF
   Ed Valeev, F. Pavosevic, A. Kumar             : LibInt (2-el integral package), F12 methods
   Garnet Chan, S. Sharma, J. Yang, R. Olivares  : DMRG
   Ulf Ekstrom                                   : XCFun DFT Library
   Mihaly Kallay                                 : mrcc  (arbitrary order and MRCC methods)
   Jiri Pittner, Ondrej Demel                    : Mk-CCSD
   Frank Weinhold                                : gennbo (NPA and NBO analysis)
   Christopher J. Cramer and Donald G. Truhlar   : smd solvation model
   Lars Goerigk                                  : TD-DFT with DH, B97 family of functionals
   V. Asgeirsson, H. Jonsson                     : NEB implementation
   FAccTs GmbH                                   : IRC, NEB, NEB-TS, DLPNO-Multilevel, CI-OPT
                                                   MM, QMMM, 2- and 3-layer-ONIOM, Crystal-QMMM,
                                                   LR-CPCM, SF, NACMEs, symmetry and pop. for TD-DFT,
                                                   nearIR, NL-DFT gradient (VV10), updates on ESD,
                                                   ML-optimized integration grids
   S Lehtola, MJT Oliveira, MAL Marques          : LibXC Library
   Liviu Ungur et al                             : ANISO software


 Your calculation uses the libint2 library for the computation of 2-el integrals
 For citations please refer to: http://libint.valeyev.net

 Your ORCA version has been built with support for libXC version: 5.1.0
 For citations please refer to: https://tddft.org/programs/libxc/

 This ORCA versions uses:
   CBLAS   interface :  Fast vector & matrix operations
   LAPACKE interface :  Fast linear algebra routines
   Shared memory     :  Shared parallel matrices


Your calculation utilizes the atom-pairwise dispersion correction
based on tight binding partial charges (D4)
Cite in your paper:
E.Caldeweyher, C.Bannwarth, S.Grimme, J.Chem.Phys., (2017), 147, 034112.
E.Caldeweyher, S.Ehlert, A.Hansen, H.Neugebauer, S.Grimme, J.Chem.Phys., (2018), in progress.
   

================================================================================

----- Orbital basis set information -----
Your calculation utilizes the basis: def2-SVP
   F. Weigend and R. Ahlrichs, Phys. Chem. Chem. Phys. 7, 3297 (2005).

----- AuxJ basis set information -----
Your calculation utilizes the auxiliary basis: def2/J
   F. Weigend, Phys. Chem. Chem. Phys. 8, 1057 (2006).

================================================================================
                                        WARNINGS
                       Please study these warnings very carefully!
================================================================================


WARNING: Geometry Optimization
  ===> : Switching off AutoStart
         For restart on a previous wavefunction, please use MOREAD

INFO   : the flag for use of the SHARK integral package has been found!

================================================================================
                                       INPUT FILE
================================================================================
NAME = nitrobenzol_optfreq.inp
|  1> !B3LYP DEF2-SVP OPT FREQ D4 SOSCF
|  2> 
|  3> * xyz 0 1
|  4>    C       -5.46491        2.00200        0.00000
|  5>    C       -6.53845        1.08763        0.00000
|  6>    C       -6.29865       -0.28995        0.00000
|  7>    C       -4.98903       -0.77388        0.00000
|  8>    C       -3.91538        0.11862        0.00000
|  9>    C       -4.14811        1.49742        0.00000
| 10>    H       -7.56304        1.43708       -0.00000
| 11>    H       -7.13001       -0.98311       -0.00000
| 12>    H       -4.80615       -1.84068        0.00000
| 13>    H       -2.90061       -0.25805        0.00000
| 14>    H       -3.29842        2.16818        0.00000
| 15>    N       -5.70642        3.41078        0.00000
| 16>    O       -6.82333        3.83392       -0.00000
| 17>    O       -4.79423        4.18177        0.00000
| 18> **                         ****END OF INPUT****
================================================================================

                       *****************************
                       * Geometry Optimization Run *
                       *****************************

Geometry optimization settings:
Update method            Update   .... BFGS
Choice of coordinates    CoordSys .... Z-matrix Internals
Initial Hessian          InHess   .... Almoef's Model

Convergence Tolerances:
Energy Change            TolE     ....  5.0000e-06 Eh
Max. Gradient            TolMAXG  ....  3.0000e-04 Eh/bohr
RMS Gradient             TolRMSG  ....  1.0000e-04 Eh/bohr
Max. Displacement        TolMAXD  ....  4.0000e-03 bohr
RMS Displacement         TolRMSD  ....  2.0000e-03 bohr
Strict Convergence                ....  False
------------------------------------------------------------------------------
                        ORCA OPTIMIZATION COORDINATE SETUP
------------------------------------------------------------------------------

The optimization will be done in new redundant internal coordinates
Making redundant internal coordinates   ...  (new redundants) done
Evaluating the initial hessian          ...  (Almloef) done
Evaluating the coordinates              ...  done
Calculating the B-matrix                .... done
Calculating the G-matrix                .... done
Diagonalizing the G-matrix              .... done
The first mode is                       ....   27
The number of degrees of freedom        ....   36

    -----------------------------------------------------------------
                    Redundant Internal Coordinates


    -----------------------------------------------------------------
         Definition                    Initial Value    Approx d2E/dq
    -----------------------------------------------------------------
      1. B(C   1,C   0)                  1.4102         0.580189   
      2. B(C   2,C   1)                  1.3983         0.606043   
      3. B(C   3,C   2)                  1.3962         0.610792   
      4. B(C   4,C   3)                  1.3962         0.610802   
      5. B(C   5,C   4)                  1.3983         0.606025   
      6. B(C   5,C   0)                  1.4102         0.580187   
      7. B(H   6,C   1)                  1.0825         0.370101   
      8. B(H   7,C   2)                  1.0824         0.370270   
      9. B(H   8,C   3)                  1.0824         0.370347   
     10. B(H   9,C   4)                  1.0824         0.370265   
     11. B(H  10,C   5)                  1.0825         0.370106   
     12. B(N  11,C   0)                  1.4293         0.484311   
     13. B(O  12,N  11)                  1.1944         1.028293   
     14. B(O  13,N  11)                  1.1944         1.028324   
     15. A(C   1,C   0,N  11)          120.6944         0.407795   
     16. A(C   5,C   0,N  11)          120.6939         0.407795   
     17. A(C   1,C   0,C   5)          118.6117         0.423853   
     18. A(C   0,C   1,H   6)          120.7452         0.350591   
     19. A(C   2,C   1,H   6)          118.7073         0.353185   
     20. A(C   0,C   1,C   2)          120.5474         0.427174   
     21. A(C   3,C   2,H   7)          119.8995         0.353680   
     22. A(C   1,C   2,H   7)          119.9455         0.353213   
     23. A(C   1,C   2,C   3)          120.1550         0.431132   
     24. A(C   2,C   3,C   4)          119.9838         0.431738   
     25. A(C   4,C   3,H   8)          120.0084         0.353693   
     26. A(C   2,C   3,H   8)          120.0078         0.353692   
     27. A(C   5,C   4,H   9)          119.9450         0.353210   
     28. A(C   3,C   4,H   9)          119.8997         0.353680   
     29. A(C   3,C   4,C   5)          120.1552         0.431131   
     30. A(C   0,C   5,H  10)          120.7457         0.350592   
     31. A(C   0,C   5,C   4)          120.5469         0.427172   
     32. A(C   4,C   5,H  10)          118.7074         0.353184   
     33. A(O  12,N  11,O  13)          119.0461         0.508635   
     34. A(C   0,N  11,O  13)          120.4770         0.445879   
     35. A(C   0,N  11,O  12)          120.4769         0.445877   
     36. D(H   6,C   1,C   0,C   5)    180.0000         0.023128   
     37. D(C   2,C   1,C   0,C   5)      0.0000         0.023128   
     38. D(C   2,C   1,C   0,N  11)    180.0000         0.023128   
     39. D(H   6,C   1,C   0,N  11)      0.0000         0.023128   
     40. D(C   3,C   2,C   1,C   0)      0.0000         0.025348   
     41. D(C   3,C   2,C   1,H   6)    180.0000         0.025348   
     42. D(H   7,C   2,C   1,H   6)      0.0000         0.025348   
     43. D(H   7,C   2,C   1,C   0)    180.0000         0.025348   
     44. D(H   8,C   3,C   2,H   7)      0.0000         0.025770   
     45. D(H   8,C   3,C   2,C   1)    180.0000         0.025770   
     46. D(C   4,C   3,C   2,H   7)    180.0000         0.025770   
     47. D(C   4,C   3,C   2,C   1)      0.0000         0.025770   
     48. D(H   9,C   4,C   3,C   2)    180.0000         0.025770   
     49. D(C   5,C   4,C   3,H   8)    180.0000         0.025770   
     50. D(C   5,C   4,C   3,C   2)      0.0000         0.025770   
     51. D(H   9,C   4,C   3,H   8)      0.0000         0.025770   
     52. D(H  10,C   5,C   4,H   9)      0.0000         0.025346   
     53. D(C   0,C   5,C   4,H   9)    180.0000         0.025346   
     54. D(C   0,C   5,C   4,C   3)      0.0000         0.025346   
     55. D(H  10,C   5,C   0,N  11)      0.0000         0.023127   
     56. D(H  10,C   5,C   0,C   1)    180.0000         0.023127   
     57. D(H  10,C   5,C   4,C   3)    180.0000         0.025346   
     58. D(C   4,C   5,C   0,N  11)    180.0000         0.023127   
     59. D(C   4,C   5,C   0,C   1)      0.0000         0.023127   
     60. D(O  13,N  11,C   0,C   5)      0.0000         0.018511   
     61. D(O  13,N  11,C   0,C   1)    180.0000         0.018511   
     62. D(O  12,N  11,C   0,C   5)    180.0000         0.018511   
     63. D(O  12,N  11,C   0,C   1)      0.0000         0.018511   
    -----------------------------------------------------------------

Number of atoms                         .... 14
Number of degrees of freedom            .... 63

         *************************************************************
         *                GEOMETRY OPTIMIZATION CYCLE   1            *
         *************************************************************
---------------------------------
CARTESIAN COORDINATES (ANGSTROEM)
---------------------------------
  C     -5.464910    2.002000    0.000000
  C     -6.538450    1.087630    0.000000
  C     -6.298650   -0.289950    0.000000
  C     -4.989030   -0.773880    0.000000
  C     -3.915380    0.118620    0.000000
  C     -4.148110    1.497420    0.000000
  H     -7.563040    1.437080   -0.000000
  H     -7.130010   -0.983110   -0.000000
  H     -4.806150   -1.840680    0.000000
  H     -2.900610   -0.258050    0.000000
  H     -3.298420    2.168180    0.000000
  N     -5.706420    3.410780    0.000000
  O     -6.823330    3.833920   -0.000000
  O     -4.794230    4.181770    0.000000

----------------------------
CARTESIAN COORDINATES (A.U.)
----------------------------
  NO LB      ZA    FRAG     MASS         X           Y           Z
   0 C     6.0000    0    12.011  -10.327183    3.783232    0.000000
   1 C     6.0000    0    12.011  -12.355880    2.055323    0.000000
   2 C     6.0000    0    12.011  -11.902724   -0.547926    0.000000
   3 C     6.0000    0    12.011   -9.427900   -1.462421    0.000000
   4 C     6.0000    0    12.011   -7.398996    0.224159    0.000000
   5 C     6.0000    0    12.011   -7.838792    2.829714    0.000000
   6 H     1.0000    0     1.008  -14.292074    2.715688   -0.000000
   7 H     1.0000    0     1.008  -13.473766   -1.857809   -0.000000
   8 H     1.0000    0     1.008   -9.082307   -3.478381    0.000000
   9 H     1.0000    0     1.008   -5.481359   -0.487644    0.000000
  10 H     1.0000    0     1.008   -6.233110    4.097266    0.000000
  11 N     7.0000    0    14.007  -10.783571    6.445440    0.000000
  12 O     8.0000    0    15.999  -12.894225    7.245059   -0.000000
  13 O     8.0000    0    15.999   -9.059782    7.902400    0.000000

--------------------------------
INTERNAL COORDINATES (ANGSTROEM)
--------------------------------
 C      0   0   0     0.000000000000     0.00000000     0.00000000
 C      1   0   0     1.410163333979     0.00000000     0.00000000
 C      2   1   0     1.398295639842   120.54742618     0.00000000
 C      3   2   1     1.396170759363   120.15497283     0.00000000
 C      4   3   2     1.396166384247   119.98379981     0.00000000
 C      5   4   3     1.398303505288   120.15520454     0.00000000
 H      2   1   3     1.082543288095   120.74522758   180.00000085
 H      3   2   1     1.082418696808   119.94548692   180.00000000
 H      4   3   2     1.082361923942   120.00782805   180.00000085
 H      5   4   3     1.082422487664   119.89974989   180.00000000
 H      6   5   4     1.082539640706   118.70742742   180.00000000
 N      1   2   3     1.429331371131   120.69437906   180.00000000
 O     12   1   2     1.194376577006   120.47690262     0.00000000
 O     12   1   2     1.194368526126   120.47698123   180.00000000

---------------------------
INTERNAL COORDINATES (A.U.)
---------------------------
 C      0   0   0     0.000000000000     0.00000000     0.00000000
 C      1   0   0     2.664822505318     0.00000000     0.00000000
 C      2   1   0     2.642395813557   120.54742618     0.00000000
 C      3   2   1     2.638380371385   120.15497283     0.00000000
 C      4   3   2     2.638372103613   119.98379981     0.00000000
 C      5   4   3     2.642410677096   120.15520454     0.00000000
 H      2   1   3     2.045710342615   120.74522758   180.00000085
 H      3   2   1     2.045474899203   119.94548692   180.00000000
 H      4   3   2     2.045367614035   120.00782805   180.00000085
 H      5   4   3     2.045482062882   119.89974989   180.00000000
 H      6   5   4     2.045703450048   118.70742742   180.00000000
 N      1   2   3     2.701044846060   120.69437906   180.00000000
 O     12   1   2     2.257044631311   120.47690262     0.00000000
 O     12   1   2     2.257029417353   120.47698123   180.00000000

---------------------
BASIS SET INFORMATION
---------------------
There are 4 groups of distinct atoms

 Group   1 Type C   : 7s4p1d contracted to 3s2p1d pattern {511/31/1}
 Group   2 Type H   : 4s1p contracted to 2s1p pattern {31/1}
 Group   3 Type N   : 7s4p1d contracted to 3s2p1d pattern {511/31/1}
 Group   4 Type O   : 7s4p1d contracted to 3s2p1d pattern {511/31/1}

Atom   0C    basis set group =>   1
Atom   1C    basis set group =>   1
Atom   2C    basis set group =>   1
Atom   3C    basis set group =>   1
Atom   4C    basis set group =>   1
Atom   5C    basis set group =>   1
Atom   6H    basis set group =>   2
Atom   7H    basis set group =>   2
Atom   8H    basis set group =>   2
Atom   9H    basis set group =>   2
Atom  10H    basis set group =>   2
Atom  11N    basis set group =>   3
Atom  12O    basis set group =>   4
Atom  13O    basis set group =>   4
---------------------------------
AUXILIARY/J BASIS SET INFORMATION
---------------------------------
There are 4 groups of distinct atoms

 Group   1 Type C   : 12s5p4d2f1g contracted to 6s4p3d1f1g pattern {711111/2111/211/2/1}
 Group   2 Type H   : 5s2p1d contracted to 3s1p1d pattern {311/2/1}
 Group   3 Type N   : 12s5p4d2f1g contracted to 6s4p3d1f1g pattern {711111/2111/211/2/1}
 Group   4 Type O   : 12s5p4d2f1g contracted to 6s4p3d1f1g pattern {711111/2111/211/2/1}

Atom   0C    basis set group =>   1
Atom   1C    basis set group =>   1
Atom   2C    basis set group =>   1
Atom   3C    basis set group =>   1
Atom   4C    basis set group =>   1
Atom   5C    basis set group =>   1
Atom   6H    basis set group =>   2
Atom   7H    basis set group =>   2
Atom   8H    basis set group =>   2
Atom   9H    basis set group =>   2
Atom  10H    basis set group =>   2
Atom  11N    basis set group =>   3
Atom  12O    basis set group =>   4
Atom  13O    basis set group =>   4
------------------------------------------------------------------------------
                           ORCA GTO INTEGRAL CALCULATION
                           -- RI-GTO INTEGRALS CHOSEN --
------------------------------------------------------------------------------
------------------------------------------------------------------------------
                   ___                                                        
                  /   \      - P O W E R E D   B Y -                         
                 /     \                                                     
                 |  |  |   _    _      __       _____    __    __             
                 |  |  |  | |  | |    /  \     |  _  \  |  |  /  |          
                  \  \/   | |  | |   /    \    | | | |  |  | /  /          
                 / \  \   | |__| |  /  /\  \   | |_| |  |  |/  /          
                |  |  |   |  __  | /  /__\  \  |    /   |      \           
                |  |  |   | |  | | |   __   |  |    \   |  |\   \          
                \     /   | |  | | |  |  |  |  | |\  \  |  | \   \       
                 \___/    |_|  |_| |__|  |__|  |_| \__\ |__|  \__/        
                                                                              
                      - O R C A' S   B I G   F R I E N D -                    
                                      &                                       
                       - I N T E G R A L  F E E D E R -                       
                                                                              
 v1 FN, 2020, v2 2021                                                         
------------------------------------------------------------------------------


Reading SHARK input file nitrobenzol_optfreq.SHARKINP.tmp ... ok
----------------------
SHARK INTEGRAL PACKAGE
----------------------

Number of atoms                             ...     14
Number of basis functions                   ...    151
Number of shells                            ...     69
Maximum angular momentum                    ...      2
Integral batch strategy                     ... SHARK/LIBINT Hybrid
RI-J (if used) integral strategy            ... SPLIT-RIJ (Revised 2003 algorithm where possible)
Printlevel                                  ...      1
Contraction scheme used                     ... SEGMENTED contraction
Coulomb Range Separation                    ... NOT USED
Exchange Range Separation                   ... NOT USED
Finite Nucleus Model                        ... NOT USED
Auxiliary Coulomb fitting basis             ... AVAILABLE
   # of basis functions in Aux-J            ...    496
   # of shells in Aux-J                     ...    160
   Maximum angular momentum in Aux-J        ...      4
Auxiliary J/K fitting basis                 ... NOT available
Auxiliary Correlation fitting basis         ... NOT available
Auxiliary 'external' fitting basis          ... NOT available
Integral threshold                          ...     2.500000e-11
Primitive cut-off                           ...     2.500000e-12
Primitive pair pre-selection threshold      ...     2.500000e-12

Calculating pre-screening integrals         ... done (  0.1 sec) Dimension = 69
Organizing shell pair data                  ... done (  0.1 sec)
Shell pair information
Total number of shell pairs                 ...      2415
Shell pairs after pre-screening             ...      2251
Total number of primitive shell pairs       ...      9043
Primitive shell pairs kept                  ...      6141
          la=0 lb=0:    650 shell pairs
          la=1 lb=0:    803 shell pairs
          la=1 lb=1:    263 shell pairs
          la=2 lb=0:    302 shell pairs
          la=2 lb=1:    192 shell pairs
          la=2 lb=2:     41 shell pairs

Calculating one electron integrals          ... done (  0.1 sec)
Calculating RI/J V-Matrix + Cholesky decomp.... done (  0.1 sec)
Calculating Nuclear repulsion               ... done (  0.0 sec) ENN=    413.588576437095 Eh

SHARK setup successfully completed in   0.5 seconds

Maximum memory used throughout the entire GTOINT-calculation: 20.5 MB
-------------------------------------------------------------------------------
                                 ORCA SCF
-------------------------------------------------------------------------------

------------
SCF SETTINGS
------------
Hamiltonian:
 Density Functional     Method          .... DFT(GTOs)
 Exchange Functional    Exchange        .... B88
   X-Alpha parameter    XAlpha          ....  0.666667
   Becke's b parameter  XBeta           ....  0.004200
 Correlation Functional Correlation     .... LYP
 LDA part of GGA corr.  LDAOpt          .... VWN-5
 Gradients option       PostSCFGGA      .... off
 Hybrid DFT is turned on
   Fraction HF Exchange ScalHFX         ....  0.200000
   Scaling of DF-GGA-X  ScalDFX         ....  0.720000
   Scaling of DF-GGA-C  ScalDFC         ....  0.810000
   Scaling of DF-LDA-C  ScalLDAC        ....  1.000000
   Perturbative correction              ....  0.000000
   Density functional embedding theory  .... OFF
   NL short-range parameter             ....  4.800000
 RI-approximation to the Coulomb term is turned on
   Number of AuxJ basis functions       .... 496
   RIJ-COSX (HFX calculated with COS-X)).... on


General Settings:
 Integral files         IntName         .... nitrobenzol_optfreq
 Hartree-Fock type      HFTyp           .... RHF
 Total Charge           Charge          ....    0
 Multiplicity           Mult            ....    1
 Number of Electrons    NEL             ....   64
 Basis Dimension        Dim             ....  151
 Nuclear Repulsion      ENuc            ....    413.5885764371 Eh

Convergence Acceleration:
 DIIS                   CNVDIIS         .... on
   Start iteration      DIISMaxIt       ....    12
   Startup error        DIISStart       ....  0.200000
   # of expansion vecs  DIISMaxEq       ....     5
   Bias factor          DIISBfac        ....   1.050
   Max. coefficient     DIISMaxC        ....  10.000
 Trust-Rad. Augm. Hess. CNVTRAH         .... auto
   Auto Start mean grad. ratio tolernc. ....  1.125000
   Auto Start start iteration           ....    20
   Auto Start num. interpolation iter.  ....    10
   Max. Number of Micro iterations      ....    16
   Max. Number of Macro iterations      .... Maxiter - #DIIS iter
   Number of Davidson start vectors     ....     2
   Converg. threshold I  (grad. norm)   ....   1.000e-05
   Converg. threshold II (energy diff.) ....   1.000e-08
   Grad. Scal. Fac. for Micro threshold ....   0.100
   Minimum threshold for Micro iter.    ....   0.010
   NR start threshold (gradient norm)   ....   0.001
   Initial trust radius                 ....   0.400
   Minimum AH scaling param. (alpha)    ....   1.000
   Maximum AH scaling param. (alpha)    .... 1000.000
   Orbital update algorithm             .... Taylor
   White noise on init. David. guess    .... on
   Maximum white noise                  ....   0.010
   Quad. conv. algorithm                .... NR
 SOSCF                  CNVSOSCF        .... on
   Start iteration      SOSCFMaxIt      ....   150
   Startup grad/error   SOSCFStart      ....  0.003300
 Level Shifting         CNVShift        .... on
   Level shift para.    LevelShift      ....    0.2500
   Turn off err/grad.   ShiftErr        ....    0.0010
 Zerner damping         CNVZerner       .... off
 Static damping         CNVDamp         .... on
   Fraction old density DampFac         ....    0.7000
   Max. Damping (<1)    DampMax         ....    0.9800
   Min. Damping (>=0)   DampMin         ....    0.0000
   Turn off err/grad.   DampErr         ....    0.1000
 Fernandez-Rico         CNVRico         .... off

SCF Procedure:
 Maximum # iterations   MaxIter         ....   125
 SCF integral mode      SCFMode         .... Direct
   Integral package                     .... SHARK and LIBINT hybrid scheme
 Reset frequency        DirectResetFreq ....    20
 Integral Threshold     Thresh          ....  2.500e-11 Eh
 Primitive CutOff       TCut            ....  2.500e-12 Eh

Convergence Tolerance:
 Convergence Check Mode ConvCheckMode   .... Total+1el-Energy
 Convergence forced     ConvForced      .... 0
 Energy Change          TolE            ....  1.000e-08 Eh
 1-El. energy change                    ....  1.000e-05 Eh
 Orbital Gradient       TolG            ....  1.000e-05
 Orbital Rotation angle TolX            ....  1.000e-05
 DIIS Error             TolErr          ....  5.000e-07


Diagonalization of the overlap matrix:
Smallest eigenvalue                        ... 2.898e-04
Time for diagonalization                   ...    0.011 sec
Threshold for overlap eigenvalues          ... 1.000e-08
Number of eigenvalues below threshold      ... 0
Time for construction of square roots      ...    0.026 sec
Total time needed                          ...    0.037 sec

Time for model grid setup =    0.611 sec

------------------------------
INITIAL GUESS: MODEL POTENTIAL
------------------------------
Loading Hartree-Fock densities                     ... done
Calculating cut-offs                               ... done
Initializing the effective Hamiltonian             ... done
Setting up the integral package (SHARK)            ... done
Starting the Coulomb interaction                   ... done (   0.6 sec)
Reading the grid                                   ... done
Mapping shells                                     ... done
Starting the XC term evaluation                    ... done (   1.4 sec)
  promolecular density results
     # of electrons  =     63.995276446
     EX              =    -55.315709661
     EC              =     -2.212325516
     EX+EC           =    -57.528035177
Transforming the Hamiltonian                       ... done (   0.0 sec)
Diagonalizing the Hamiltonian                      ... done (   0.0 sec)
Back transforming the eigenvectors                 ... done (   0.0 sec)
Now organizing SCF variables                       ... done
                      ------------------
                      INITIAL GUESS DONE (   2.7 sec)
                      ------------------
-------------------
DFT GRID GENERATION
-------------------

General Integration Accuracy     IntAcc      ... 4.388
Radial Grid Type                 RadialGrid  ... OptM3 with GC (2021)
Angular Grid (max. ang.)         AngularGrid ... 4 (Lebedev-302)
Angular grid pruning method      GridPruning ... 4 (adaptive)
Weight generation scheme         WeightScheme... Becke
Basis function cutoff            BFCut       ... 1.0000e-11
Integration weight cutoff        WCut        ... 1.0000e-14
Angular grids for H and He will be reduced by one unit
Partially contracted basis set               ... off
Rotationally invariant grid construction     ... off

Total number of grid points                  ...    70421
Total number of batches                      ...     1107
Average number of points per batch           ...       63
Average number of grid points per atom       ...     5030
Time for grid setup =    3.767 sec

--------------------
COSX GRID GENERATION
--------------------

GRIDX 1
-------
General Integration Accuracy     IntAcc      ... 3.816
Radial Grid Type                 RadialGrid  ... OptM3 with GC (2021)
Angular Grid (max. ang.)         AngularGrid ... 1 (Lebedev-50)
Angular grid pruning method      GridPruning ... 4 (adaptive)
Weight generation scheme         WeightScheme... Becke
Basis function cutoff            BFCut       ... 1.0000e-11
Integration weight cutoff        WCut        ... 1.0000e-14
Angular grids for H and He will be reduced by one unit
Partially contracted basis set               ... on
Rotationally invariant grid construction     ... off

Total number of grid points                  ...     8973
Total number of batches                      ...      146
Average number of points per batch           ...       61
Average number of grid points per atom       ...      641
UseSFitting                                  ... on

GRIDX 2
-------
General Integration Accuracy     IntAcc      ... 4.020
Radial Grid Type                 RadialGrid  ... OptM3 with GC (2021)
Angular Grid (max. ang.)         AngularGrid ... 2 (Lebedev-110)
Angular grid pruning method      GridPruning ... 4 (adaptive)
Weight generation scheme         WeightScheme... Becke
Basis function cutoff            BFCut       ... 1.0000e-11
Integration weight cutoff        WCut        ... 1.0000e-14
Angular grids for H and He will be reduced by one unit
Partially contracted basis set               ... on
Rotationally invariant grid construction     ... off

Total number of grid points                  ...    20126
Total number of batches                      ...      323
Average number of points per batch           ...       62
Average number of grid points per atom       ...     1438
UseSFitting                                  ... on

GRIDX 3
-------
General Integration Accuracy     IntAcc      ... 4.338
Radial Grid Type                 RadialGrid  ... OptM3 with GC (2021)
Angular Grid (max. ang.)         AngularGrid ... 3 (Lebedev-194)
Angular grid pruning method      GridPruning ... 4 (adaptive)
Weight generation scheme         WeightScheme... Becke
Basis function cutoff            BFCut       ... 1.0000e-11
Integration weight cutoff        WCut        ... 1.0000e-14
Angular grids for H and He will be reduced by one unit
Partially contracted basis set               ... on
Rotationally invariant grid construction     ... off

Total number of grid points                  ...    44378
Total number of batches                      ...      701
Average number of points per batch           ...       63
Average number of grid points per atom       ...     3170
UseSFitting                                  ... on

Time for X-Grid setup             =    3.458 sec

--------------
SCF ITERATIONS
--------------
ITER       Energy         Delta-E        Max-DP      RMS-DP      [F,P]     Damp
               ***  Starting incremental Fock matrix formation  ***
  0   -435.9542749991   0.000000000000 0.09281176  0.00309671  0.2334392 0.7000
  1   -436.0649762706  -0.110701271540 0.04427271  0.00192345  0.0838461 0.7000
                               ***Turning on DIIS***
  2   -436.1035035120  -0.038527241422 0.05431379  0.00313318  0.0290390 0.0000
  3   -436.1737957212  -0.070292209143 0.03377231  0.00112547  0.0432711 0.0000
  4   -436.1843046350  -0.010508913855 0.01457461  0.00037145  0.0148637 0.0000
                      *** Initiating the SOSCF procedure ***
                           *** Shutting down DIIS ***
                      *** Re-Reading the Fockian *** 
                      *** Removing any level shift *** 
ITER      Energy       Delta-E        Grad      Rot      Max-DP    RMS-DP
  5   -436.18533386  -0.0010292283  0.000897  0.000897  0.002973  0.000135
               *** Restarting incremental Fock matrix formation ***
  6   -436.18542260  -0.0000887388  0.000545  0.001797  0.001409  0.000060
  7   -436.18541946   0.0000031419  0.000673  0.000882  0.000907  0.000031
  8   -436.18542649  -0.0000070263  0.000040  0.000088  0.000135  0.000006
  9   -436.18542646   0.0000000264  0.000048  0.000072  0.000080  0.000003
 10   -436.18542654  -0.0000000788  0.000004  0.000015  0.000026  0.000001
 11   -436.18542654   0.0000000009  0.000010  0.000017  0.000020  0.000000
 12   -436.18542654  -0.0000000001  0.000005  0.000010  0.000013  0.000000
 13   -436.18542654  -0.0000000027  0.000004  0.000006  0.000011  0.000000
                  ***Gradient check signals convergence***
              ***Rediagonalizing the Fockian in SOSCF/NRSCF***

               *****************************************************
               *                     SUCCESS                       *
               *           SCF CONVERGED AFTER  14 CYCLES          *
               *****************************************************

Old exchange energy                            =    -11.162160764 Eh
New exchange energy                            =    -11.162183608 Eh
Exchange energy change after final integration =     -0.000022844 Eh
Total energy after final integration           =   -436.185449384 Eh
Final COS-X integration done in                =    35.850 sec

----------------
TOTAL SCF ENERGY
----------------

Total Energy       :         -436.18544938 Eh          -11869.20950 eV

Components:
Nuclear Repulsion  :          413.58857644 Eh           11254.31732 eV
Electronic Energy  :         -849.77402582 Eh          -23123.52682 eV
One Electron Energy:        -1411.62833376 Eh          -38412.35981 eV
Two Electron Energy:          561.85430794 Eh           15288.83299 eV
Max COSX asymmetry :            0.00000348 Eh               0.00009 eV

Virial components:
Potential Energy   :         -868.93727450 Eh          -23644.98533 eV
Kinetic Energy     :          432.75182511 Eh           11775.77583 eV
Virial Ratio       :            2.00793440


DFT components:
N(Alpha)           :       31.999958855347 electrons
N(Beta)            :       31.999958855347 electrons
N(Total)           :       63.999917710695 electrons
E(X)               :      -44.440787877433 Eh       
E(C)               :       -2.605149148553 Eh       
E(XC)              :      -47.045937025986 Eh       
DFET-embed. en.    :        0.000000000000 Eh       

---------------
SCF CONVERGENCE
---------------

  Last Energy change         ...    3.1525e-10  Tolerance :   1.0000e-08
  Last MAX-Density change    ...    3.1086e-15  Tolerance :   1.0000e-07
  Last RMS-Density change    ...    4.5131e-17  Tolerance :   5.0000e-09
  Last Orbital Gradient      ...    9.9200e-07  Tolerance :   1.0000e-05
  Last Orbital Rotation      ...    2.7287e-06  Tolerance :   1.0000e-05

             **** THE GBW FILE WAS UPDATED (nitrobenzol_optfreq.gbw) ****
             **** DENSITY nitrobenzol_optfreq.scfp WAS UPDATED ****
             **** ENERGY FILE WAS UPDATED (nitrobenzol_optfreq.en.tmp) ****
             **** THE GBW FILE WAS UPDATED (nitrobenzol_optfreq.gbw) ****
             **** DENSITY nitrobenzol_optfreq.scfp WAS UPDATED ****
----------------
ORBITAL ENERGIES
----------------

  NO   OCC          E(Eh)            E(eV) 
   0   2.0000     -19.148812      -521.0657 
   1   2.0000     -19.148763      -521.0643 
   2   2.0000     -14.556990      -396.1158 
   3   2.0000     -10.255629      -279.0698 
   4   2.0000     -10.224537      -278.2238 
   5   2.0000     -10.224509      -278.2230 
   6   2.0000     -10.221089      -278.1300 
   7   2.0000     -10.218072      -278.0479 
   8   2.0000     -10.218039      -278.0470 
   9   2.0000      -1.246143       -33.9093 
  10   2.0000      -1.050169       -28.5765 
  11   2.0000      -0.888921       -24.1888 
  12   2.0000      -0.816011       -22.2048 
  13   2.0000      -0.768374       -20.9085 
  14   2.0000      -0.706867       -19.2348 
  15   2.0000      -0.630086       -17.1455 
  16   2.0000      -0.595702       -16.2099 
  17   2.0000      -0.553444       -15.0600 
  18   2.0000      -0.553010       -15.0482 
  19   2.0000      -0.515850       -14.0370 
  20   2.0000      -0.509150       -13.8547 
  21   2.0000      -0.474150       -12.9023 
  22   2.0000      -0.470101       -12.7921 
  23   2.0000      -0.449876       -12.2417 
  24   2.0000      -0.396687       -10.7944 
  25   2.0000      -0.395283       -10.7562 
  26   2.0000      -0.375698       -10.2233 
  27   2.0000      -0.316102        -8.6016 
  28   2.0000      -0.305580        -8.3153 
  29   2.0000      -0.290455        -7.9037 
  30   2.0000      -0.283802        -7.7227 
  31   2.0000      -0.278787        -7.5862 
  32   0.0000      -0.089206        -2.4274 
  33   0.0000      -0.036663        -0.9976 
  34   0.0000       0.001987         0.0541 
  35   0.0000       0.048832         1.3288 
  36   0.0000       0.087680         2.3859 
  37   0.0000       0.101525         2.7626 
  38   0.0000       0.130020         3.5380 
  39   0.0000       0.139207         3.7880 
  40   0.0000       0.140107         3.8125 
  41   0.0000       0.182274         4.9599 
  42   0.0000       0.245473         6.6796 
  43   0.0000       0.252437         6.8692 
  44   0.0000       0.267747         7.2858 
  45   0.0000       0.268038         7.2937 
  46   0.0000       0.310195         8.4408 
  47   0.0000       0.348835         9.4923 
  48   0.0000       0.362009         9.8508 
  49   0.0000       0.396980        10.8024 
  50   0.0000       0.398143        10.8340 
  51   0.0000       0.426694        11.6109 
  52   0.0000       0.442357        12.0371 
  53   0.0000       0.445451        12.1213 
  54   0.0000       0.467331        12.7167 
  55   0.0000       0.475761        12.9461 
  56   0.0000       0.504014        13.7149 
  57   0.0000       0.511908        13.9297 
  58   0.0000       0.512648        13.9499 
  59   0.0000       0.574849        15.6424 
  60   0.0000       0.575149        15.6506 
  61   0.0000       0.580993        15.8096 
  62   0.0000       0.615908        16.7597 
  63   0.0000       0.624627        16.9970 
  64   0.0000       0.650869        17.7110 
  65   0.0000       0.652594        17.7580 
  66   0.0000       0.660342        17.9688 
  67   0.0000       0.691716        18.8225 
  68   0.0000       0.708465        19.2783 
  69   0.0000       0.711266        19.3545 
  70   0.0000       0.714083        19.4312 
  71   0.0000       0.743011        20.2184 
  72   0.0000       0.780119        21.2281 
  73   0.0000       0.780994        21.2519 
  74   0.0000       0.813480        22.1359 
  75   0.0000       0.865205        23.5434 
  76   0.0000       0.919080        25.0094 
  77   0.0000       0.922604        25.1053 
  78   0.0000       0.985384        26.8137 
  79   0.0000       0.986238        26.8369 
  80   0.0000       1.008916        27.4540 
  81   0.0000       1.015664        27.6376 
  82   0.0000       1.042051        28.3557 
  83   0.0000       1.158248        31.5175 
  84   0.0000       1.162973        31.6461 
  85   0.0000       1.177600        32.0441 
  86   0.0000       1.214195        33.0399 
  87   0.0000       1.221412        33.2363 
  88   0.0000       1.238990        33.7146 
  89   0.0000       1.255738        34.1704 
  90   0.0000       1.257342        34.2140 
  91   0.0000       1.275730        34.7144 
  92   0.0000       1.338029        36.4096 
  93   0.0000       1.347006        36.6539 
  94   0.0000       1.396713        38.0065 
  95   0.0000       1.480420        40.2843 
  96   0.0000       1.509898        41.0864 
  97   0.0000       1.645034        44.7636 
  98   0.0000       1.659043        45.1448 
  99   0.0000       1.660071        45.1728 
 100   0.0000       1.717157        46.7262 
 101   0.0000       1.719964        46.8026 
 102   0.0000       1.736060        47.2406 
 103   0.0000       1.738774        47.3145 
 104   0.0000       1.752164        47.6788 
 105   0.0000       1.754467        47.7415 
 106   0.0000       1.772693        48.2374 
 107   0.0000       1.788122        48.6573 
 108   0.0000       1.869266        50.8653 
 109   0.0000       1.901958        51.7549 
 110   0.0000       1.926344        52.4185 
 111   0.0000       1.962771        53.4097 
 112   0.0000       1.972761        53.6816 
 113   0.0000       1.988195        54.1015 
 114   0.0000       2.059159        56.0326 
 115   0.0000       2.079201        56.5779 
 116   0.0000       2.111204        57.4488 
 117   0.0000       2.116347        57.5887 
 118   0.0000       2.128287        57.9136 
 119   0.0000       2.253940        61.3328 
 120   0.0000       2.271325        61.8059 
 121   0.0000       2.271603        61.8134 
 122   0.0000       2.273908        61.8762 
 123   0.0000       2.322780        63.2061 
 124   0.0000       2.334660        63.5293 
 125   0.0000       2.381320        64.7990 
 126   0.0000       2.436620        66.3038 
 127   0.0000       2.518719        68.5378 
 128   0.0000       2.542354        69.1810 
 129   0.0000       2.602753        70.8245 
 130   0.0000       2.607338        70.9493 
 131   0.0000       2.614202        71.1361 
 132   0.0000       2.622367        71.3582 
 133   0.0000       2.660779        72.4035 
 134   0.0000       2.700370        73.4808 
 135   0.0000       2.715022        73.8795 
 136   0.0000       2.725229        74.1572 
 137   0.0000       2.740551        74.5742 
 138   0.0000       2.786229        75.8171 
 139   0.0000       2.848048        77.4993 
 140   0.0000       2.868069        78.0441 
 141   0.0000       3.027694        82.3877 
 142   0.0000       3.065950        83.4288 
 143   0.0000       3.128384        85.1277 
 144   0.0000       3.134523        85.2947 
 145   0.0000       3.312180        90.1290 
 146   0.0000       3.331313        90.6496 
 147   0.0000       3.455515        94.0294 
 148   0.0000       3.611828        98.2828 
 149   0.0000       3.806058       103.5681 
 150   0.0000       3.838297       104.4454 

                    ********************************
                    * MULLIKEN POPULATION ANALYSIS *
                    ********************************

-----------------------
MULLIKEN ATOMIC CHARGES
-----------------------
   0 C :    0.175944
   1 C :   -0.013063
   2 C :    0.018712
   3 C :    0.055299
   4 C :    0.019425
   5 C :   -0.014302
   6 H :    0.003299
   7 H :   -0.003231
   8 H :   -0.003857
   9 H :   -0.003621
  10 H :    0.003779
  11 N :    0.241744
  12 O :   -0.240014
  13 O :   -0.240116
Sum of atomic charges:   -0.0000000

--------------------------------
MULLIKEN REDUCED ORBITAL CHARGES
--------------------------------
  0 C s       :     3.009649  s :     3.009649
      pz      :     1.073412  p :     2.766175
      px      :     0.867027
      py      :     0.825735
      dz2     :     0.004194  d :     0.048233
      dxz     :     0.006812
      dyz     :     0.004952
      dx2y2   :     0.019580
      dxy     :     0.012695
  1 C s       :     3.266710  s :     3.266710
      pz      :     0.936203  p :     2.712772
      px      :     0.855050
      py      :     0.921518
      dz2     :     0.002600  d :     0.033581
      dxz     :     0.002975
      dyz     :     0.006125
      dx2y2   :     0.009872
      dxy     :     0.012009
  2 C s       :     3.163350  s :     3.163350
      pz      :     0.982266  p :     2.783344
      px      :     0.888850
      py      :     0.912227
      dz2     :     0.002512  d :     0.034594
      dxz     :     0.003786
      dyz     :     0.004347
      dx2y2   :     0.010956
      dxy     :     0.012994
  3 C s       :     3.156702  s :     3.156702
      pz      :     0.943656  p :     2.752659
      px      :     0.963781
      py      :     0.845222
      dz2     :     0.002488  d :     0.035340
      dxz     :     0.006234
      dyz     :     0.002529
      dx2y2   :     0.013016
      dxy     :     0.011072
  4 C s       :     3.163171  s :     3.163171
      pz      :     0.982250  p :     2.782816
      px      :     0.862147
      py      :     0.938419
      dz2     :     0.002511  d :     0.034588
      dxz     :     0.002830
      dyz     :     0.005302
      dx2y2   :     0.012154
      dxy     :     0.011791
  5 C s       :     3.266987  s :     3.266987
      pz      :     0.936203  p :     2.713731
      px      :     0.912616
      py      :     0.864911
      dz2     :     0.002600  d :     0.033584
      dxz     :     0.004189
      dyz     :     0.004911
      dx2y2   :     0.009830
      dxy     :     0.012054
  6 H s       :     0.973155  s :     0.973155
      pz      :     0.004295  p :     0.023547
      px      :     0.014200
      py      :     0.005051
  7 H s       :     0.979979  s :     0.979979
      pz      :     0.004665  p :     0.023252
      px      :     0.010372
      py      :     0.008215
  8 H s       :     0.980776  s :     0.980776
      pz      :     0.004423  p :     0.023081
      px      :     0.003732
      py      :     0.014925
  9 H s       :     0.980364  s :     0.980364
      pz      :     0.004664  p :     0.023257
      px      :     0.013806
      py      :     0.004787
 10 H s       :     0.972680  s :     0.972680
      pz      :     0.004296  p :     0.023541
      px      :     0.010526
      py      :     0.008720
 11 N s       :     3.262992  s :     3.262992
      pz      :     1.186593  p :     3.369230
      px      :     1.059493
      py      :     1.123143
      dz2     :     0.004894  d :     0.126034
      dxz     :     0.028854
      dyz     :     0.009079
      dx2y2   :     0.045775
      dxy     :     0.037432
 12 O s       :     3.845073  s :     3.845073
      pz      :     1.414708  p :     4.371158
      px      :     1.221770
      py      :     1.734680
      dz2     :     0.002845  d :     0.023783
      dxz     :     0.006254
      dyz     :     0.001107
      dx2y2   :     0.006949
      dxy     :     0.006628
 13 O s       :     3.845170  s :     3.845170
      pz      :     1.414715  p :     4.371162
      px      :     1.439372
      py      :     1.517075
      dz2     :     0.002844  d :     0.023783
      dxz     :     0.004094
      dyz     :     0.003268
      dx2y2   :     0.004753
      dxy     :     0.008824


                     *******************************
                     * LOEWDIN POPULATION ANALYSIS *
                     *******************************

----------------------
LOEWDIN ATOMIC CHARGES
----------------------
   0 C :   -0.033299
   1 C :    0.008907
   2 C :   -0.015771
   3 C :    0.005918
   4 C :   -0.015691
   5 C :    0.008830
   6 H :    0.039013
   7 H :    0.033522
   8 H :    0.032223
   9 H :    0.033474
  10 H :    0.039060
  11 N :    0.262875
  12 O :   -0.199529
  13 O :   -0.199532

-------------------------------
LOEWDIN REDUCED ORBITAL CHARGES
-------------------------------
  0 C s       :     2.859489  s :     2.859489
      pz      :     1.045304  p :     3.050243
      px      :     1.088956
      py      :     0.915983
      dz2     :     0.010234  d :     0.123567
      dxz     :     0.013658
      dyz     :     0.010216
      dx2y2   :     0.051819
      dxy     :     0.037641
  1 C s       :     2.866723  s :     2.866723
      pz      :     0.929542  p :     3.037060
      px      :     1.047280
      py      :     1.060238
      dz2     :     0.006226  d :     0.087310
      dxz     :     0.005452
      dyz     :     0.012849
      dx2y2   :     0.029133
      dxy     :     0.033650
  2 C s       :     2.859094  s :     2.859094
      pz      :     0.963607  p :     3.066884
      px      :     1.052356
      py      :     1.050922
      dz2     :     0.006203  d :     0.089794
      dxz     :     0.007386
      dyz     :     0.008790
      dx2y2   :     0.031444
      dxy     :     0.035971
  3 C s       :     2.862773  s :     2.862773
      pz      :     0.925658  p :     3.040329
      px      :     1.069572
      py      :     1.045099
      dz2     :     0.006181  d :     0.090980
      dxz     :     0.013256
      dyz     :     0.004292
      dx2y2   :     0.035730
      dxy     :     0.031521
  4 C s       :     2.859094  s :     2.859094
      pz      :     0.963597  p :     3.066804
      px      :     1.045886
      py      :     1.057322
      dz2     :     0.006203  d :     0.089793
      dxz     :     0.005021
      dyz     :     0.011154
      dx2y2   :     0.034114
      dxy     :     0.033302
  5 C s       :     2.866739  s :     2.866739
      pz      :     0.929538  p :     3.037122
      px      :     1.042983
      py      :     1.064601
      dz2     :     0.006226  d :     0.087309
      dxz     :     0.008418
      dyz     :     0.009882
      dx2y2   :     0.028861
      dxy     :     0.033922
  6 H s       :     0.888832  s :     0.888832
      pz      :     0.013444  p :     0.072154
      px      :     0.042393
      py      :     0.016318
  7 H s       :     0.897860  s :     0.897860
      pz      :     0.014350  p :     0.068618
      px      :     0.030192
      py      :     0.024076
  8 H s       :     0.899344  s :     0.899344
      pz      :     0.013544  p :     0.068433
      px      :     0.012407
      py      :     0.042481
  9 H s       :     0.897912  s :     0.897912
      pz      :     0.014349  p :     0.068614
      px      :     0.039426
      py      :     0.014839
 10 H s       :     0.888783  s :     0.888783
      pz      :     0.013445  p :     0.072156
      px      :     0.032235
      py      :     0.026477
 11 N s       :     3.023573  s :     3.023573
      pz      :     1.126444  p :     3.446325
      px      :     1.138962
      py      :     1.180920
      dz2     :     0.012430  d :     0.267226
      dxz     :     0.051453
      dyz     :     0.015119
      dx2y2   :     0.100993
      dxy     :     0.087232
 12 O s       :     3.598066  s :     3.598066
      pz      :     1.424663  p :     4.555421
      px      :     1.376264
      py      :     1.754494
      dz2     :     0.006934  d :     0.046043
      dxz     :     0.009045
      dyz     :     0.001408
      dx2y2   :     0.014633
      dxy     :     0.014024
 13 O s       :     3.598056  s :     3.598056
      pz      :     1.424667  p :     4.555431
      px      :     1.535313
      py      :     1.595452
      dz2     :     0.006934  d :     0.046044
      dxz     :     0.006037
      dyz     :     0.004416
      dx2y2   :     0.007743
      dxy     :     0.020914


                      *****************************
                      * MAYER POPULATION ANALYSIS *
                      *****************************

  NA   - Mulliken gross atomic population
  ZA   - Total nuclear charge
  QA   - Mulliken gross atomic charge
  VA   - Mayer's total valence
  BVA  - Mayer's bonded valence
  FA   - Mayer's free valence

  ATOM       NA         ZA         QA         VA         BVA        FA
  0 C      5.8241     6.0000     0.1759     3.7670     3.7670     0.0000
  1 C      6.0131     6.0000    -0.0131     3.8524     3.8524     0.0000
  2 C      5.9813     6.0000     0.0187     3.8319     3.8319     0.0000
  3 C      5.9447     6.0000     0.0553     3.8141     3.8141    -0.0000
  4 C      5.9806     6.0000     0.0194     3.8323     3.8323    -0.0000
  5 C      6.0143     6.0000    -0.0143     3.8522     3.8522    -0.0000
  6 H      0.9967     1.0000     0.0033     1.0152     1.0152    -0.0000
  7 H      1.0032     1.0000    -0.0032     0.9804     0.9804     0.0000
  8 H      1.0039     1.0000    -0.0039     0.9788     0.9788    -0.0000
  9 H      1.0036     1.0000    -0.0036     0.9804     0.9804     0.0000
 10 H      0.9962     1.0000     0.0038     1.0152     1.0152    -0.0000
 11 N      6.7583     7.0000     0.2417     4.0353     4.0353     0.0000
 12 O      8.2400     8.0000    -0.2400     1.9501     1.9501     0.0000
 13 O      8.2401     8.0000    -0.2401     1.9499     1.9499     0.0000

  Mayer bond orders larger than 0.100000
B(  0-C ,  1-C ) :   1.3595 B(  0-C ,  5-C ) :   1.3589 B(  0-C , 11-N ) :   0.8938 
B(  1-C ,  2-C ) :   1.3727 B(  1-C ,  6-H ) :   0.9880 B(  2-C ,  3-C ) :   1.3725 
B(  2-C ,  7-H ) :   0.9857 B(  3-C ,  4-C ) :   1.3726 B(  3-C ,  8-H ) :   0.9885 
B(  4-C ,  5-C ) :   1.3730 B(  4-C ,  9-H ) :   0.9857 B(  5-C , 10-H ) :   0.9881 
B( 11-N , 12-O ) :   1.5611 B( 11-N , 13-O ) :   1.5608 B( 12-O , 13-O ) :   0.2597 


-------
TIMINGS
-------

Total SCF time: 0 days 0 hours 3 min 56 sec 

Total time                  ....     236.145 sec
Sum of individual times     ....     234.600 sec  ( 99.3%)

Fock matrix formation       ....     224.032 sec  ( 94.9%)
  Split-RI-J                ....      14.548 sec  (  6.5% of F)
  Chain of spheres X        ....     174.218 sec  ( 77.8% of F)
  XC integration            ....      35.020 sec  ( 15.6% of F)
    Basis function eval.    ....      13.583 sec  ( 38.8% of XC)
    Density eval.           ....       9.750 sec  ( 27.8% of XC)
    XC-Functional eval.     ....       2.765 sec  (  7.9% of XC)
    XC-Potential eval.      ....       7.011 sec  ( 20.0% of XC)
Diagonalization             ....       0.104 sec  (  0.0%)
Density matrix formation    ....       0.026 sec  (  0.0%)
Population analysis         ....       0.245 sec  (  0.1%)
Initial guess               ....       2.082 sec  (  0.9%)
Orbital Transformation      ....       0.000 sec  (  0.0%)
Orbital Orthonormalization  ....       0.000 sec  (  0.0%)
DIIS solution               ....       0.160 sec  (  0.1%)
SOSCF solution              ....       0.115 sec  (  0.0%)
Grid generation             ....       7.836 sec  (  3.3%)

Maximum memory used throughout the entire SCF-calculation: 68.1 MB


-------------------------------------------------------------------------------
                          DFT DISPERSION CORRECTION                            
                                                                               
                                 DFTD4 V2.5                                    
-------------------------------------------------------------------------------
The B3LYP functional is recognized
Active option DFTDOPT                   ...         5   

Starting D4
-------------------------   ----------------
Dispersion correction           -0.023182807
-------------------------   ----------------


-------------------------   --------------------
FINAL SINGLE POINT ENERGY      -436.208632191840
-------------------------   --------------------

------------------------------------------------------------------------------
                         ORCA SCF GRADIENT CALCULATION
------------------------------------------------------------------------------

 ... reading COSX grid (gridx3)
Gradient of the Kohn-Sham DFT energy:
Kohn-Sham wavefunction type      ... RKS
Hartree-Fock exchange scaling    ...    0.200
Number of operators              ...    1
Number of atoms                  ...   14
Basis set dimensions             ...  151
Integral neglect threshold       ... 2.5e-11
Integral primitive cutoff        ... 2.5e-12
SHARK Integral package           ... ON

Nuc. rep. gradient       (SHARK) ... done (  0.0 sec)
HCore & Overlap gradient (SHARK) ... done (  0.7 sec)
RI-J gradient            (SHARK) ... done (  3.9 sec)
COSX-gradient                    ... done ( 41.2 sec)
Exchange-correlation gradient    ... done
Dispersion correction            ... Starting D4


------------------- 
Dispersion Gradient 
------------------- 
   1  :   -0.000049505    0.000288772    0.000000000
   2  :   -0.000442066   -0.000183070    0.000000000
   3  :   -0.000325645   -0.000480433    0.000000000
   4  :    0.000084573   -0.000493334    0.000000000
   5  :    0.000467071   -0.000344536    0.000000000
   6  :    0.000477801   -0.000025369    0.000000000
   7  :   -0.000211830    0.000010465    0.000000000
   8  :   -0.000135530   -0.000126797    0.000000000
   9  :    0.000029330   -0.000171089    0.000000000
  10  :    0.000170024   -0.000074415    0.000000000
  11  :    0.000196249    0.000080424    0.000000000
  12  :   -0.000098814    0.000576402    0.000000000
  13  :   -0.000301357    0.000433686    0.000000000
  14  :    0.000139699    0.000509296    0.000000000

  |G| =    0.001598985

done

------------------
CARTESIAN GRADIENT
------------------

   1   C   :   -0.007938158    0.046359875    0.000000005
   2   C   :   -0.002200631   -0.002963819    0.000000001
   3   C   :   -0.007517436   -0.008841239    0.000000002
   4   C   :    0.000876219   -0.005166967    0.000000008
   5   C   :    0.009923738   -0.005888014    0.000000000
   6   C   :    0.003161558   -0.002097734   -0.000000000
   7   H   :    0.003856531   -0.006506799   -0.000000000
   8   H   :    0.006095997    0.003249659    0.000000001
   9   H   :   -0.001268992    0.007365462   -0.000000006
  10   H   :   -0.006796533    0.001055153   -0.000000001
  11   H   :   -0.001495217   -0.007430567    0.000000000
  12   N   :    0.002578670   -0.015088148    0.000000001
  13   O   :    0.064277996    0.009066291   -0.000000004
  14   O   :   -0.063555196   -0.013073382   -0.000000037

Difference to translation invariance:
           :   -0.0000014535    0.0000397717   -0.0000000282

Difference to rotation invariance:
           :   -0.0000002864   -0.0000002434   -0.0013818786

Norm of the cartesian gradient     ...    0.1070488390
RMS gradient                       ...    0.0165179945
MAX gradient                       ...    0.0642779960

-------
TIMINGS
-------

Total SCF gradient time            ...       61.451 sec

One electron gradient       ....       0.743 sec  (  1.2%)
RI-J Coulomb gradient       ....       3.948 sec  (  6.4%)
COSX gradient               ....      41.189 sec  ( 67.0%)
XC gradient                 ....      13.224 sec  ( 21.5%)

Maximum memory used throughout the entire SCFGRAD-calculation: 54.6 MB
------------------------------------------------------------------------------
                         ORCA GEOMETRY RELAXATION STEP
------------------------------------------------------------------------------

Reading the OPT-File                    .... done
Getting information on internals        .... done
Copying old internal coords+grads       .... done
Making the new internal coordinates     .... (new redundants).... done
Validating the new internal coordinates .... (new redundants).... done
Calculating the B-matrix                .... done
Calculating the G,G- and P matrices     .... done
Transforming gradient to internals      .... done
Projecting the internal gradient        .... done
Number of atoms                         ....  14
Number of internal coordinates          ....  63
Current Energy                          ....  -436.208632192 Eh
Current gradient norm                   ....     0.107048839 Eh/bohr
Maximum allowed component of the step   ....  0.300
Current trust radius                    ....  0.300
Evaluating the initial hessian          ....  (Almloef) done
Projecting the Hessian                  .... done
Forming the augmented Hessian           .... done
Diagonalizing the augmented Hessian     .... done
Last element of RFO vector              ....  0.987412260
Lowest eigenvalues of augmented Hessian:
 -0.015796476  0.018510880  0.018510880  0.021796682  0.023434377
Length of the computed step             ....  0.160184080
The final length of the internal step   ....  0.160184080
Converting the step to cartesian space:
 Initial RMS(Int)=    0.0201812972
Transforming coordinates:
 Iter   0:  RMS(Cart)=    0.0297243185 RMS(Int)=    2.0944919890
 Iter   1:  RMS(Cart)=    0.0007492250 RMS(Int)=    0.0005502526
 Iter   2:  RMS(Cart)=    0.0000276775 RMS(Int)=    0.7916069414
 Iter   3:  RMS(Cart)=    0.0000013810 RMS(Int)=    0.0000009236
 Iter   4:  RMS(Cart)=    0.0000000660 RMS(Int)=    0.0000000550
done
Storing new coordinates                 .... done

                                .--------------------.
          ----------------------|Geometry convergence|-------------------------
          Item                value                   Tolerance       Converged
          ---------------------------------------------------------------------
          RMS gradient        0.0133288376            0.0001000000      NO
          MAX gradient        0.0569950749            0.0003000000      NO
          RMS step            0.0201812972            0.0020000000      NO
          MAX step            0.0930690829            0.0040000000      NO
          ........................................................
          Max(Bonds)      0.0289      Max(Angles)    5.33
          Max(Dihed)        0.00      Max(Improp)    0.00
          ---------------------------------------------------------------------

The optimization has not yet converged - more geometry cycles are needed


    ---------------------------------------------------------------------------
                         Redundant Internal Coordinates
                            (Angstroem and degrees)

        Definition                    Value    dE/dq     Step     New-Value
    ----------------------------------------------------------------------------
     1. B(C   1,C   0)                1.4102  0.011639 -0.0106    1.3995   
     2. B(C   2,C   1)                1.3983  0.004200 -0.0036    1.3947   
     3. B(C   3,C   2)                1.3962 -0.003149  0.0030    1.3991   
     4. B(C   4,C   3)                1.3962 -0.003192  0.0030    1.3992   
     5. B(C   5,C   4)                1.3983  0.004119 -0.0035    1.3948   
     6. B(C   5,C   0)                1.4102  0.011628 -0.0106    1.3995   
     7. B(H   6,C   1)                1.0825 -0.005755  0.0079    1.0904   
     8. B(H   7,C   2)                1.0824 -0.006765  0.0093    1.0917   
     9. B(H   8,C   3)                1.0824 -0.007471  0.0102    1.0926   
    10. B(H   9,C   4)                1.0824 -0.006735  0.0092    1.0917   
    11. B(H  10,C   5)                1.0825 -0.005776  0.0079    1.0905   
    12. B(N  11,C   0)                1.4293 -0.019387  0.0205    1.4498   
    13. B(O  12,N  11)                1.1944 -0.056884  0.0288    1.2232   
    14. B(O  13,N  11)                1.1944 -0.056995  0.0289    1.2233   
    15. A(C   1,C   0,N  11)          120.69  0.007061   -0.89    119.80   
    16. A(C   5,C   0,N  11)          120.69  0.006754   -0.85    119.85   
    17. A(C   1,C   0,C   5)          118.61 -0.013815    1.74    120.35   
    18. A(C   0,C   1,H   6)          120.75  0.002145   -0.37    120.38   
    19. A(C   2,C   1,H   6)          118.71 -0.007945    1.20    119.91   
    20. A(C   0,C   1,C   2)          120.55  0.005801   -0.83    119.72   
    21. A(C   3,C   2,H   7)          119.90 -0.001824    0.25    120.15   
    22. A(C   1,C   2,H   7)          119.95  0.001100   -0.21    119.74   
    23. A(C   1,C   2,C   3)          120.15  0.000724   -0.04    120.12   
    24. A(C   2,C   3,C   4)          119.98  0.000719    0.01    119.99   
    25. A(C   4,C   3,H   8)          120.01 -0.000374   -0.00    120.01   
    26. A(C   2,C   3,H   8)          120.01 -0.000344   -0.01    120.00   
    27. A(C   5,C   4,H   9)          119.95  0.001026   -0.20    119.75   
    28. A(C   3,C   4,H   9)          119.90 -0.001754    0.24    120.14   
    29. A(C   3,C   4,C   5)          120.16  0.000728   -0.04    120.12   
    30. A(C   0,C   5,H  10)          120.75  0.002082   -0.36    120.39   
    31. A(C   0,C   5,C   4)          120.55  0.005844   -0.84    119.71   
    32. A(C   4,C   5,H  10)          118.71 -0.007926    1.20    119.90   
    33. A(O  12,N  11,O  13)          119.05 -0.046861    5.33    124.38   
    34. A(C   0,N  11,O  13)          120.48  0.023234   -2.64    117.84   
    35. A(C   0,N  11,O  12)          120.48  0.023628   -2.69    117.79   
    36. D(H   6,C   1,C   0,C   5)    180.00  0.000000   -0.00    180.00   
    37. D(C   2,C   1,C   0,C   5)      0.00 -0.000000    0.00      0.00   
    38. D(C   2,C   1,C   0,N  11)    180.00 -0.000000    0.00    180.00   
    39. D(H   6,C   1,C   0,N  11)      0.00 -0.000000    0.00      0.00   
    40. D(C   3,C   2,C   1,C   0)      0.00  0.000000   -0.00     -0.00   
    41. D(C   3,C   2,C   1,H   6)    180.00 -0.000000    0.00    180.00   
    42. D(H   7,C   2,C   1,H   6)      0.00 -0.000000    0.00      0.00   
    43. D(H   7,C   2,C   1,C   0)    180.00  0.000000   -0.00    180.00   
    44. D(H   8,C   3,C   2,H   7)      0.00  0.000000   -0.00     -0.00   
    45. D(H   8,C   3,C   2,C   1)    180.00  0.000000   -0.00    180.00   
    46. D(C   4,C   3,C   2,H   7)    180.00 -0.000000    0.00    180.00   
    47. D(C   4,C   3,C   2,C   1)      0.00  0.000000   -0.00     -0.00   
    48. D(H   9,C   4,C   3,C   2)    180.00 -0.000000    0.00    180.00   
    49. D(C   5,C   4,C   3,H   8)    180.00 -0.000000    0.00    180.00   
    50. D(C   5,C   4,C   3,C   2)      0.00 -0.000000    0.00      0.00   
    51. D(H   9,C   4,C   3,H   8)      0.00 -0.000000    0.00      0.00   
    52. D(H  10,C   5,C   4,H   9)      0.00 -0.000000    0.00      0.00   
    53. D(C   0,C   5,C   4,H   9)    180.00 -0.000000    0.00    180.00   
    54. D(C   0,C   5,C   4,C   3)      0.00  0.000000   -0.00     -0.00   
    55. D(H  10,C   5,C   0,N  11)      0.00  0.000000   -0.00     -0.00   
    56. D(H  10,C   5,C   0,C   1)    180.00  0.000000   -0.00    180.00   
    57. D(H  10,C   5,C   4,C   3)    180.00  0.000000   -0.00    180.00   
    58. D(C   4,C   5,C   0,N  11)    180.00  0.000000   -0.00    180.00   
    59. D(C   4,C   5,C   0,C   1)      0.00  0.000000   -0.00     -0.00   
    60. D(O  13,N  11,C   0,C   5)      0.00  0.000000   -0.00     -0.00   
    61. D(O  13,N  11,C   0,C   1)    180.00  0.000000   -0.00    180.00   
    62. D(O  12,N  11,C   0,C   5)    180.00 -0.000000    0.00    180.00   
    63. D(O  12,N  11,C   0,C   1)      0.00  0.000000   -0.00     -0.00   
    ----------------------------------------------------------------------------

         *************************************************************
         *                GEOMETRY OPTIMIZATION CYCLE   2            *
         *************************************************************
---------------------------------
CARTESIAN COORDINATES (ANGSTROEM)
---------------------------------
  C     -5.461188    1.981989   -0.000000
  C     -6.540399    1.090907   -0.000000
  C     -6.302341   -0.283346   -0.000000
  C     -4.990013   -0.768401    0.000000
  C     -3.913937    0.125822   -0.000000
  C     -4.146867    1.501036   -0.000000
  H     -7.564557    1.465271   -0.000000
  H     -7.143899   -0.978738    0.000000
  H     -4.805579   -1.845323    0.000000
  H     -2.889013   -0.249996   -0.000000
  H     -3.305637    2.194893   -0.000000
  N     -5.706565    3.410919   -0.000000
  O     -6.869624    3.789771   -0.000000
  O     -4.737120    4.156927    0.000001

----------------------------
CARTESIAN COORDINATES (A.U.)
----------------------------
  NO LB      ZA    FRAG     MASS         X           Y           Z
   0 C     6.0000    0    12.011  -10.320150    3.745415   -0.000001
   1 C     6.0000    0    12.011  -12.359563    2.061516   -0.000000
   2 C     6.0000    0    12.011  -11.909699   -0.535447   -0.000000
   3 C     6.0000    0    12.011   -9.429759   -1.452068    0.000000
   4 C     6.0000    0    12.011   -7.396268    0.237770   -0.000000
   5 C     6.0000    0    12.011   -7.836443    2.836547   -0.000001
   6 H     1.0000    0     1.008  -14.294941    2.768961   -0.000000
   7 H     1.0000    0     1.008  -13.500013   -1.849547    0.000000
   8 H     1.0000    0     1.008   -9.081229   -3.487154    0.000001
   9 H     1.0000    0     1.008   -5.459444   -0.472425   -0.000000
  10 H     1.0000    0     1.008   -6.246749    4.147746   -0.000001
  11 N     7.0000    0    14.007  -10.783844    6.445702   -0.000000
  12 O     8.0000    0    15.999  -12.981708    7.161629   -0.000000
  13 O     8.0000    0    15.999   -8.951859    7.855454    0.000002

--------------------------------
INTERNAL COORDINATES (ANGSTROEM)
--------------------------------
 C      0   0   0     0.000000000000     0.00000000     0.00000000
 C      1   0   0     1.399543567095     0.00000000     0.00000000
 C      2   1   0     1.394720542609   119.71809552     0.00000000
 C      3   2   1     1.399100638964   120.11266030     0.00000000
 C      4   3   2     1.399134361420   119.98829485     0.00000000
 C      5   4   3     1.394800692919   120.11331794     0.00000000
 H      2   1   3     1.090434413092   120.37521669   179.99998742
 H      3   2   1     1.091690795768   119.73976690   179.99998861
 H      4   3   2     1.092600513250   120.00323005   179.99999195
 H      5   4   3     1.091653710031   120.13634428   180.00000000
 H      6   5   4     1.090460634603   119.90286954   179.99999582
 N      1   2   3     1.449845230965   119.80192326   180.00002236
 O     12   1   2     1.223207008919   117.78618730     0.00000000
 O     12   1   2     1.223254557211   117.83523151   179.99995258

---------------------------
INTERNAL COORDINATES (A.U.)
---------------------------
 C      0   0   0     0.000000000000     0.00000000     0.00000000
 C      1   0   0     2.644754054300     0.00000000     0.00000000
 C      2   1   0     2.635639858884   119.71809552     0.00000000
 C      3   2   1     2.643917041437   120.11266030     0.00000000
 C      4   3   2     2.643980767642   119.98829485     0.00000000
 C      5   4   3     2.635791321020   120.11331794     0.00000000
 H      2   1   3     2.060622407746   120.37521669   179.99998742
 H      3   2   1     2.062996626924   119.73976690   179.99998861
 H      4   3   2     2.064715743824   120.00323005   179.99999195
 H      5   4   3     2.062926545037   120.13634428   180.00000000
 H      6   5   4     2.060671959222   119.90286954   179.99999582
 N      1   2   3     2.739810423096   119.80192326   180.00002236
 O     12   1   2     2.311526251951   117.78618730     0.00000000
 O     12   1   2     2.311616105201   117.83523151   179.99995258

------------------------------------------------------------------------------
                   ___                                                        
                  /   \      - P O W E R E D   B Y -                         
                 /     \                                                     
                 |  |  |   _    _      __       _____    __    __             
                 |  |  |  | |  | |    /  \     |  _  \  |  |  /  |          
                  \  \/   | |  | |   /    \    | | | |  |  | /  /          
                 / \  \   | |__| |  /  /\  \   | |_| |  |  |/  /          
                |  |  |   |  __  | /  /__\  \  |    /   |      \           
                |  |  |   | |  | | |   __   |  |    \   |  |\   \          
                \     /   | |  | | |  |  |  |  | |\  \  |  | \   \       
                 \___/    |_|  |_| |__|  |__|  |_| \__\ |__|  \__/        
                                                                              
                      - O R C A' S   B I G   F R I E N D -                    
                                      &                                       
                       - I N T E G R A L  F E E D E R -                       
                                                                              
 v1 FN, 2020, v2 2021                                                         
------------------------------------------------------------------------------


Reading SHARK input file nitrobenzol_optfreq.SHARKINP.tmp ... ok
----------------------
SHARK INTEGRAL PACKAGE
----------------------

Number of atoms                             ...     14
Number of basis functions                   ...    151
Number of shells                            ...     69
Maximum angular momentum                    ...      2
Integral batch strategy                     ... SHARK/LIBINT Hybrid
RI-J (if used) integral strategy            ... SPLIT-RIJ (Revised 2003 algorithm where possible)
Printlevel                                  ...      1
Contraction scheme used                     ... SEGMENTED contraction
Coulomb Range Separation                    ... NOT USED
Exchange Range Separation                   ... NOT USED
Finite Nucleus Model                        ... NOT USED
Auxiliary Coulomb fitting basis             ... AVAILABLE
   # of basis functions in Aux-J            ...    496
   # of shells in Aux-J                     ...    160
   Maximum angular momentum in Aux-J        ...      4
[...]
     12       0.165248   0.053224   0.122432   0.021859  -0.005217  -0.036925
     13       0.003330  -0.044268  -0.031722   0.033165   0.066489  -0.014996
     14      -0.000020   0.000000   0.000001  -0.000000  -0.000001   0.000000
     15      -0.046893   0.024198   0.040176   0.005983   0.017480   0.028856
     16       0.051094   0.090107   0.011728   0.013088  -0.048540  -0.075769
     17       0.000010  -0.000001  -0.000001  -0.000000   0.000000   0.000001
     18       0.179361  -0.122122  -0.278093   0.069730  -0.115368  -0.214648
     19       0.453330  -0.535837  -0.568439   0.138642  -0.355266  -0.457032
     20      -0.000066   0.000004   0.000005  -0.000001   0.000004   0.000004
     21      -0.394831  -0.119972  -0.164547   0.294852  -0.351838   0.251596
     22       0.213268   0.257267  -0.013077  -0.337992   0.471628  -0.354595
     23       0.000106  -0.000003   0.000000   0.000003  -0.000006   0.000004
     24       0.030806  -0.441746  -0.000077  -0.724731   0.000301   0.279494
     25      -0.176005  -0.075853  -0.003068  -0.124309   0.001966   0.047936
     26      -0.000123   0.000000  -0.000001  -0.000000   0.000000   0.000000
     27       0.301119  -0.027293   0.159525   0.165769   0.174257   0.119134
     28       0.332801  -0.282200   0.042148   0.417897   0.560922   0.418299
     29       0.000106   0.000003   0.000000  -0.000003  -0.000006  -0.000004
     30      -0.319986  -0.294578   0.451236   0.112177   0.227160  -0.354687
     31       0.367135   0.465324  -0.442437  -0.107664  -0.296394   0.359070
     32      -0.000066  -0.000004   0.000004   0.000001   0.000004  -0.000004
     33       0.000559  -0.004046   0.010969   0.001021  -0.002405  -0.004793
     34      -0.003229  -0.000662  -0.063894   0.000185   0.013912  -0.000780
     35       0.000002  -0.000000   0.000000   0.000000  -0.000000  -0.000000
     36       0.002602   0.007115   0.076746   0.002267  -0.026314  -0.009573
     37      -0.005123  -0.001259  -0.008799  -0.002243   0.009335   0.008476
     38      -0.000000  -0.000000  -0.000001  -0.000000   0.000000   0.000000
     39      -0.000755   0.006417  -0.069468   0.001430   0.021723  -0.006218
     40      -0.005720   0.003568  -0.033822   0.002906   0.017572  -0.011208
     41      -0.000000   0.000000  -0.000000   0.000000   0.000000  -0.000000
                 30         31         32         33         34         35    
      0       0.314041  -0.026869  -0.173337   0.023799   0.335531   0.047040
      1       0.053934   0.156268  -0.030138  -0.136465   0.069869  -0.157763
      2       0.000000  -0.000002  -0.000000  -0.000000  -0.000000   0.000001
      3      -0.088895  -0.013033   0.073608   0.099321  -0.185119   0.021525
      4      -0.301717  -0.042522  -0.083033   0.110800  -0.164263   0.306683
      5       0.000002   0.000001   0.000001  -0.000000   0.000002  -0.000002
      6      -0.226469   0.005972   0.013823  -0.125983   0.197962   0.147741
      7       0.264149   0.004964   0.139650   0.075023  -0.015252  -0.294643
      8      -0.000003  -0.000000  -0.000001  -0.000001   0.000000   0.000003
      9       0.314173  -0.000038  -0.184136   0.018165  -0.350100  -0.046840
     10       0.053899   0.000341  -0.031890  -0.101258  -0.072381   0.152818
     11       0.000000  -0.000000  -0.000000   0.000001   0.000000  -0.000002
     12      -0.125727  -0.007427   0.060134   0.093196   0.186400  -0.020130
     13      -0.324302   0.001973  -0.126434   0.113046   0.129297  -0.315379
     14       0.000003  -0.000000   0.000001  -0.000001  -0.000001   0.000003
     15      -0.184117   0.026619   0.040999  -0.130694  -0.209335  -0.147818
     16       0.254210  -0.035486   0.103260   0.070995   0.050075   0.290516
     17      -0.000002   0.000001  -0.000000  -0.000000  -0.000002  -0.000002
     18       0.087109   0.053726   0.177447  -0.100357  -0.038557  -0.215675
     19       0.127042   0.115901   0.126657  -0.431779   0.243079  -0.255213
     20       0.000003  -0.000003   0.000000   0.000004  -0.000007   0.000002
     21       0.224548   0.011691   0.324192   0.262130   0.033536  -0.297205
     22      -0.279174   0.004491  -0.199789  -0.409131   0.220524   0.222737
     23       0.000004  -0.000000   0.000002   0.000005  -0.000002  -0.000003
     24      -0.223279   0.000850   0.685915   0.019025   0.420437  -0.007486
     25      -0.038271   0.001302   0.117234  -0.124505   0.057716   0.186941
     26       0.000000   0.000000   0.000000   0.000003   0.000000  -0.000003
     27       0.118819  -0.011694   0.238519  -0.112213   0.072658   0.216461
     28       0.339172   0.002132   0.293640  -0.474261  -0.242879   0.284248
     29      -0.000004  -0.000000  -0.000002   0.000005   0.000003  -0.000003
     30       0.122416  -0.088818   0.211033   0.237541   0.001067   0.291115
     31      -0.088585   0.091206  -0.062461  -0.372984  -0.215172  -0.194623
     32      -0.000003  -0.000003   0.000000   0.000004   0.000006   0.000002
     33       0.012246   0.119738  -0.020029   0.002839   0.311576   0.024562
     34       0.002295  -0.708548  -0.003272  -0.016773   0.055465  -0.032151
     35       0.000000  -0.000029   0.000000  -0.000001  -0.000001  -0.000001
     36      -0.020946  -0.408034   0.023494  -0.021402  -0.155014  -0.033053
     37       0.021446   0.208974  -0.013090   0.011639   0.054990   0.014120
     38       0.000001   0.000013  -0.000001   0.000001   0.000005   0.000001
     39      -0.012799   0.316454   0.017702   0.016293  -0.130073   0.011215
     40      -0.027377   0.333590   0.020070   0.018047  -0.105541   0.011988
     41      -0.000001   0.000013   0.000001   0.000001  -0.000004   0.000000
                 36         37         38         39         40         41    
      0       0.337788   0.000059  -0.000306   0.000004   0.003884  -0.001770
      1       0.057400  -0.000290  -0.000063  -0.000033  -0.000685  -0.002599
      2      -0.000000   0.000000   0.000000   0.000000   0.000000   0.000000
      3      -0.155894   0.004983  -0.007424   0.008046  -0.020231   0.078500
      4      -0.078201  -0.000662   0.000601  -0.001014   0.008510  -0.030989
      5      -0.000003   0.000000  -0.000000  -0.000000  -0.000000   0.000000
      6       0.136692  -0.030224   0.047478  -0.036435  -0.000848   0.009140
      7      -0.038359  -0.027626   0.039414  -0.026610  -0.002201   0.012110
      8       0.000001   0.000000  -0.000000   0.000000   0.000000  -0.000000
      9      -0.197567  -0.010599  -0.004793   0.010230   0.000738  -0.001132
     10      -0.033717   0.062195   0.001390  -0.060146   0.002036   0.002932
     11      -0.000000  -0.000001  -0.000000   0.000001  -0.000000  -0.000000
     12       0.116076   0.035980   0.057157   0.045515  -0.012113  -0.004890
     13       0.080924  -0.015332  -0.021250  -0.013798   0.008301   0.002537
     14      -0.000001   0.000000   0.000000   0.000000  -0.000000  -0.000000
     15      -0.173729  -0.004357  -0.006805  -0.007694  -0.063469  -0.016784
     16       0.022718  -0.002265  -0.003113  -0.003923  -0.055546  -0.014036
     17       0.000003  -0.000000   0.000000   0.000000   0.000000   0.000000
     18      -0.085221  -0.061703   0.090314  -0.095493   0.232818  -0.885215
     19       0.192667   0.023456  -0.033722   0.035806  -0.092441   0.350745
     20       0.000010  -0.000000   0.000000  -0.000000   0.000001  -0.000003
     21      -0.032870   0.368490  -0.538894   0.383609   0.015203  -0.112516
     22       0.184000   0.308822  -0.448363   0.315190   0.013759  -0.097007
     23      -0.000003  -0.000002   0.000003  -0.000002  -0.000000   0.000001
     24       0.203755   0.124301   0.008687  -0.113047   0.001913   0.005006
     25       0.035172  -0.725351  -0.023412   0.659803  -0.016302  -0.026207
     26      -0.000000   0.000009   0.000000  -0.000008   0.000000   0.000000
     27       0.030704  -0.430742  -0.650810  -0.492903   0.133642   0.051664
     28      -0.184044   0.161186   0.240959   0.179099  -0.052326  -0.019680
     29       0.000002  -0.000002  -0.000004  -0.000003   0.000001   0.000000
     30      -0.015347   0.049085   0.074152   0.083098   0.718106   0.184164
     31      -0.210613   0.041672   0.062217   0.069885   0.626455   0.160420
     32      -0.000009  -0.000000  -0.000000  -0.000000  -0.000003  -0.000001
     33      -0.618356  -0.000008  -0.000240  -0.000012  -0.001416   0.000967
     34      -0.105087   0.000059  -0.000043   0.000023  -0.000592  -0.000427
     35       0.000003  -0.000000  -0.000000  -0.000000  -0.000000  -0.000000
     36       0.262713  -0.000029   0.000098  -0.000028   0.000195  -0.000587
     37      -0.066528  -0.000053   0.000071  -0.000092   0.000297  -0.000380
     38      -0.000007   0.000000  -0.000000  -0.000000   0.000000   0.000000
     39       0.224716   0.000042   0.000117   0.000064   0.000731   0.000083
     40       0.149366  -0.000040  -0.000033  -0.000080  -0.000249   0.000107
     41       0.000005   0.000000   0.000000  -0.000000  -0.000000   0.000000


-----------
IR SPECTRUM
-----------

 Mode   freq       eps      Int      T**2         TX        TY        TZ
       cm**-1   L/(mol*cm) km/mol    a.u.
----------------------------------------------------------------------------
  6:     52.98   0.000000    0.00  0.000000  ( 0.000008  0.000004 -0.000045)
  7:    171.15   0.000209    1.06  0.000381  ( 0.000007  0.000007 -0.019518)
  8:    261.01   0.000220    1.11  0.000263  ( 0.015996  0.002728  0.000000)
  9:    401.30   0.000296    1.49  0.000230  (-0.002571  0.014948  0.000000)
 10:    423.75   0.000000    0.00  0.000000  ( 0.000006  0.000001  0.000010)
 11:    454.83   0.000030    0.15  0.000021  ( 0.000003  0.000004  0.004532)
 12:    533.80   0.000187    0.95  0.000109  ( 0.010308  0.001789 -0.000000)
 13:    624.97   0.000003    0.02  0.000001  ( 0.001213  0.000164  0.000000)
 14:    701.79   0.001861    9.40  0.000827  (-0.004850  0.028353  0.000000)
 15:    706.32   0.001685    8.51  0.000744  (-0.000001 -0.000001 -0.027281)
 16:    721.95   0.013235   66.88  0.005721  ( 0.000007  0.000000 -0.075635)
 17:    811.58   0.001127    5.70  0.000434  ( 0.000004  0.000003  0.020821)
 18:    864.70   0.000000    0.00  0.000000  (-0.000013 -0.000002  0.000000)
 19:    881.85   0.007987   40.36  0.002826  (-0.008981  0.052400  0.000001)
 20:    973.23   0.000399    2.02  0.000128  ( 0.000001 -0.000000  0.011310)
 21:   1015.68   0.000000    0.00  0.000000  ( 0.000012  0.000002  0.000048)
 22:   1018.33   0.000051    0.26  0.000016  (-0.000676  0.003903 -0.000000)
 23:   1039.79   0.000005    0.03  0.000002  (-0.000001  0.000003  0.001225)
 24:   1041.20   0.001430    7.23  0.000429  (-0.003489  0.020406 -0.000000)
 25:   1090.83   0.001967    9.94  0.000563  (-0.023383 -0.003981 -0.000000)
 26:   1126.87   0.007094   35.85  0.001964  ( 0.007507 -0.043682 -0.000000)
 27:   1170.34   0.000043    0.22  0.000012  (-0.003350 -0.000586  0.000000)
 28:   1183.15   0.000002    0.01  0.000000  ( 0.000103 -0.000653 -0.000000)
 29:   1318.51   0.000115    0.58  0.000027  (-0.005156 -0.000862 -0.000000)
 30:   1385.49   0.002224   11.24  0.000501  ( 0.022059  0.003788 -0.000000)
 31:   1424.17   0.052589  265.76  0.011523  ( 0.017957 -0.105834 -0.000001)
 32:   1488.55   0.000445    2.25  0.000093  ( 0.009510  0.001695  0.000000)
 33:   1508.31   0.002539   12.83  0.000525  ( 0.003868 -0.022593  0.000000)
 34:   1646.46   0.016123   81.48  0.003056  ( 0.054619  0.008517 -0.000000)
 35:   1648.61   0.000623    3.15  0.000118  ( 0.001960  0.010679 -0.000000)
 36:   1699.79   0.028812  145.61  0.005290  (-0.071718 -0.012091  0.000000)
 37:   3183.30   0.000084    0.42  0.000008  (-0.000654  0.002791 -0.000000)
 38:   3194.84   0.001541    7.79  0.000150  ( 0.012042  0.002342 -0.000000)
 39:   3203.32   0.001323    6.69  0.000129  ( 0.002104 -0.011156  0.000000)
 40:   3234.20   0.000509    2.57  0.000049  ( 0.004452  0.005414  0.000000)
 41:   3234.73   0.000723    3.65  0.000070  (-0.004484  0.007043  0.000000)

* The epsilon (eps) is given for a Dirac delta lineshape.
** The dipole moment derivative (T) already includes vibrational overlap.

The first frequency considered to be a vibration is 6
The total number of vibrations considered is 36


--------------------------
THERMOCHEMISTRY AT 298.15K
--------------------------

Temperature         ... 298.15 K
Pressure            ... 1.00 atm
Total Mass          ... 123.11 AMU

Throughout the following assumptions are being made:
  (1) The electronic state is orbitally nondegenerate
  (2) There are no thermally accessible electronically excited states
  (3) Hindered rotations indicated by low frequency modes are not
      treated as such but are treated as vibrations and this may
      cause some error
  (4) All equations used are the standard statistical mechanics
      equations for an ideal gas
  (5) All vibrations are strictly harmonic

freq.      52.98  E(vib)   ...       0.52 
freq.     171.15  E(vib)   ...       0.38 
freq.     261.01  E(vib)   ...       0.30 
freq.     401.30  E(vib)   ...       0.19 
freq.     423.75  E(vib)   ...       0.18 
freq.     454.83  E(vib)   ...       0.16 
freq.     533.80  E(vib)   ...       0.13 
freq.     624.97  E(vib)   ...       0.09 
freq.     701.79  E(vib)   ...       0.07 
freq.     706.32  E(vib)   ...       0.07 
freq.     721.95  E(vib)   ...       0.07 
freq.     811.58  E(vib)   ...       0.05 
freq.     864.70  E(vib)   ...       0.04 
freq.     881.85  E(vib)   ...       0.04 
freq.     973.23  E(vib)   ...       0.03 
freq.    1015.68  E(vib)   ...       0.02 
freq.    1018.33  E(vib)   ...       0.02 
freq.    1039.79  E(vib)   ...       0.02 
freq.    1041.20  E(vib)   ...       0.02 
freq.    1090.83  E(vib)   ...       0.02 
freq.    1126.87  E(vib)   ...       0.01 
freq.    1170.34  E(vib)   ...       0.01 
freq.    1183.15  E(vib)   ...       0.01 
freq.    1318.51  E(vib)   ...       0.01 
freq.    1385.49  E(vib)   ...       0.00 
freq.    1424.17  E(vib)   ...       0.00 
freq.    1488.55  E(vib)   ...       0.00 
freq.    1508.31  E(vib)   ...       0.00 
freq.    1646.46  E(vib)   ...       0.00 
freq.    1648.61  E(vib)   ...       0.00 
freq.    1699.79  E(vib)   ...       0.00 
freq.    3183.30  E(vib)   ...       0.00 
freq.    3194.84  E(vib)   ...       0.00 
freq.    3203.32  E(vib)   ...       0.00 
freq.    3234.20  E(vib)   ...       0.00 
freq.    3234.73  E(vib)   ...       0.00 

------------
INNER ENERGY
------------

The inner energy is: U= E(el) + E(ZPE) + E(vib) + E(rot) + E(trans)
    E(el)   - is the total energy from the electronic structure calculation
              = E(kin-el) + E(nuc-el) + E(el-el) + E(nuc-nuc)
    E(ZPE)  - the the zero temperature vibrational energy from the frequency calculation
    E(vib)  - the the finite temperature correction to E(ZPE) due to population
              of excited vibrational states
    E(rot)  - is the rotational thermal energy
    E(trans)- is the translational thermal energy

Summary of contributions to the inner energy U:
Electronic energy                ...   -436.21770946 Eh
Zero point energy                ...      0.10352381 Eh      64.96 kcal/mol
Thermal vibrational correction   ...      0.00393024 Eh       2.47 kcal/mol
Thermal rotational correction    ...      0.00141627 Eh       0.89 kcal/mol
Thermal translational correction ...      0.00141627 Eh       0.89 kcal/mol
-----------------------------------------------------------------------
Total thermal energy                   -436.10742287 Eh


Summary of corrections to the electronic energy:
(perhaps to be used in another calculation)
Total thermal correction                  0.00676278 Eh       4.24 kcal/mol
Non-thermal (ZPE) correction              0.10352381 Eh      64.96 kcal/mol
-----------------------------------------------------------------------
Total correction                          0.11028660 Eh      69.21 kcal/mol


--------
ENTHALPY
--------

The enthalpy is H = U + kB*T
                kB is Boltzmann's constant
Total free energy                 ...   -436.10742287 Eh 
Thermal Enthalpy correction       ...      0.00094421 Eh       0.59 kcal/mol
-----------------------------------------------------------------------
Total Enthalpy                    ...   -436.10647866 Eh


Note: Rotational entropy computed according to Herzberg 
Infrared and Raman Spectra, Chapter V,1, Van Nostrand Reinhold, 1945 
Point Group:  Cs, Symmetry Number:   1  
Rotational constants in cm-1:     0.132276     0.042761     0.032315 

Vibrational entropy computed according to the QRRHO of S. Grimme
Chem.Eur.J. 2012 18 9955


-------
ENTROPY
-------

The entropy contributions are T*S = T*(S(el)+S(vib)+S(rot)+S(trans))
     S(el)   - electronic entropy
     S(vib)  - vibrational entropy
     S(rot)  - rotational entropy
     S(trans)- translational entropy
The entropies will be listed as multiplied by the temperature to get
units of energy

Electronic entropy                ...      0.00000000 Eh      0.00 kcal/mol
Vibrational entropy               ...      0.00636930 Eh      4.00 kcal/mol
Rotational entropy                ...      0.01357419 Eh      8.52 kcal/mol
Translational entropy             ...      0.01916571 Eh     12.03 kcal/mol
-----------------------------------------------------------------------
Final entropy term                ...      0.03910920 Eh     24.54 kcal/mol

In case the symmetry of your molecule has not been determined correctly
or in case you have a reason to use a different symmetry number we print 
out the resulting rotational entropy values for sn=1,12 :
 --------------------------------------------------------
|  sn= 1 | S(rot)=       0.01357419 Eh      8.52 kcal/mol|
|  sn= 2 | S(rot)=       0.01291974 Eh      8.11 kcal/mol|
|  sn= 3 | S(rot)=       0.01253690 Eh      7.87 kcal/mol|
|  sn= 4 | S(rot)=       0.01226528 Eh      7.70 kcal/mol|
|  sn= 5 | S(rot)=       0.01205459 Eh      7.56 kcal/mol|
|  sn= 6 | S(rot)=       0.01188245 Eh      7.46 kcal/mol|
|  sn= 7 | S(rot)=       0.01173690 Eh      7.37 kcal/mol|
|  sn= 8 | S(rot)=       0.01161082 Eh      7.29 kcal/mol|
|  sn= 9 | S(rot)=       0.01149962 Eh      7.22 kcal/mol|
|  sn=10 | S(rot)=       0.01140014 Eh      7.15 kcal/mol|
|  sn=11 | S(rot)=       0.01131015 Eh      7.10 kcal/mol|
|  sn=12 | S(rot)=       0.01122799 Eh      7.05 kcal/mol|
 --------------------------------------------------------


-------------------
GIBBS FREE ENERGY
-------------------

The Gibbs free energy is G = H - T*S

Total enthalpy                    ...   -436.10647866 Eh 
Total entropy correction          ...     -0.03910920 Eh    -24.54 kcal/mol
-----------------------------------------------------------------------
Final Gibbs free energy         ...   -436.14558786 Eh

For completeness - the Gibbs free energy minus the electronic energy
G-E(el)                           ...      0.07212160 Eh     45.26 kcal/mol


Timings for individual modules:

Sum of individual times         ...     2307.775 sec (=  38.463 min)
GTO integral calculation        ...        8.414 sec (=   0.140 min)   0.4 %
SCF iterations                  ...     1407.009 sec (=  23.450 min)  61.0 %
SCF Gradient evaluation         ...      397.708 sec (=   6.628 min)  17.2 %
Geometry relaxation             ...        2.115 sec (=   0.035 min)   0.1 %
Analytical frequency calculation...      492.529 sec (=   8.209 min)  21.3 %
                             ****ORCA TERMINATED NORMALLY****
TOTAL RUN TIME: 0 days 0 hours 38 minutes 34 seconds 689 msec
