
                                 *****************
                                 * O   R   C   A *
                                 *****************

                                            #,                                       
                                            ###                                      
                                            ####                                     
                                            #####                                    
                                            ######                                   
                                           ########,                                 
                                     ,,################,,,,,                         
                               ,,#################################,,                 
                          ,,##########################################,,             
                       ,#########################################, ''#####,          
                    ,#############################################,,   '####,        
                  ,##################################################,,,,####,       
                ,###########''''           ''''###############################       
              ,#####''   ,,,,##########,,,,          '''####'''          '####       
            ,##' ,,,,###########################,,,                        '##       
           ' ,,###''''                  '''############,,,                           
         ,,##''                                '''############,,,,        ,,,,,,###''
      ,#''                                            '''#######################'''  
     '                                                          ''''####''''         
             ,#######,   #######,   ,#######,      ##                                
            ,#'     '#,  ##    ##  ,#'     '#,    #''#        ######   ,####,        
            ##       ##  ##   ,#'  ##            #'  '#       #        #'  '#        
            ##       ##  #######   ##           ,######,      #####,   #    #        
            '#,     ,#'  ##    ##  '#,     ,#' ,#      #,         ##   #,  ,#        
             '#######'   ##     ##  '#######'  #'      '#     #####' # '####'        



                  #######################################################
                  #                        -***-                        #
                  #          Department of theory and spectroscopy      #
                  #    Directorship and core code : Frank Neese         #
                  #        Max Planck Institute fuer Kohlenforschung    #
                  #                Kaiser Wilhelm Platz 1               #
                  #                 D-45470 Muelheim/Ruhr               #
                  #                      Germany                        #
                  #                                                     #
                  #                  All rights reserved                #
                  #                        -***-                        #
                  #######################################################



                         Program Version 5.0.4 -  RELEASE  -

 With contributions from (in alphabetic order):
   Daniel Aravena         : Magnetic Suceptibility
   Michael Atanasov       : Ab Initio Ligand Field Theory (pilot matlab implementation)
   Alexander A. Auer      : GIAO ZORA, VPT2 properties, NMR spectrum
   Ute Becker             : Parallelization
   Giovanni Bistoni       : ED, misc. LED, open-shell LED, HFLD
   Martin Brehm           : Molecular dynamics
   Dmytro Bykov           : SCF Hessian
   Vijay G. Chilkuri      : MRCI spin determinant printing, contributions to CSF-ICE
   Dipayan Datta          : RHF DLPNO-CCSD density
   Achintya Kumar Dutta   : EOM-CC, STEOM-CC
   Dmitry Ganyushin       : Spin-Orbit,Spin-Spin,Magnetic field MRCI
   Miquel Garcia          : C-PCM and meta-GGA Hessian, CC/C-PCM, Gaussian charge scheme
   Yang Guo               : DLPNO-NEVPT2, F12-NEVPT2, CIM, IAO-localization
   Andreas Hansen         : Spin unrestricted coupled pair/coupled cluster methods
   Benjamin Helmich-Paris : MC-RPA, TRAH-SCF, COSX integrals
   Lee Huntington         : MR-EOM, pCC
   Robert Izsak           : Overlap fitted RIJCOSX, COSX-SCS-MP3, EOM
   Marcus Kettner         : VPT2
   Christian Kollmar      : KDIIS, OOCD, Brueckner-CCSD(T), CCSD density, CASPT2, CASPT2-K
   Simone Kossmann        : Meta GGA functionals, TD-DFT gradient, OOMP2, MP2 Hessian
   Martin Krupicka        : Initial AUTO-CI
   Lucas Lang             : DCDCAS
   Marvin Lechner         : AUTO-CI (C++ implementation), FIC-MRCC
   Dagmar Lenk            : GEPOL surface, SMD
   Dimitrios Liakos       : Extrapolation schemes; Compound Job, initial MDCI parallelization
   Dimitrios Manganas     : Further ROCIS development; embedding schemes
   Dimitrios Pantazis     : SARC Basis sets
   Anastasios Papadopoulos: AUTO-CI, single reference methods and gradients
   Taras Petrenko         : DFT Hessian,TD-DFT gradient, ASA, ECA, R-Raman, ABS, FL, XAS/XES, NRVS
   Peter Pinski           : DLPNO-MP2, DLPNO-MP2 Gradient
   Christoph Reimann      : Effective Core Potentials
   Marius Retegan         : Local ZFS, SOC
   Christoph Riplinger    : Optimizer, TS searches, QM/MM, DLPNO-CCSD(T), (RO)-DLPNO pert. Triples
   Tobias Risthaus        : Range-separated hybrids, TD-DFT gradient, RPA, STAB
   Michael Roemelt        : Original ROCIS implementation
   Masaaki Saitow         : Open-shell DLPNO-CCSD energy and density
   Barbara Sandhoefer     : DKH picture change effects
   Avijit Sen             : IP-ROCIS
   Kantharuban Sivalingam : CASSCF convergence, NEVPT2, FIC-MRCI
   Bernardo de Souza      : ESD, SOC TD-DFT
   Georgi Stoychev        : AutoAux, RI-MP2 NMR, DLPNO-MP2 response
   Willem Van den Heuvel  : Paramagnetic NMR
   Boris Wezisla          : Elementary symmetry handling
   Frank Wennmohs         : Technical directorship


 We gratefully acknowledge several colleagues who have allowed us to
 interface, adapt or use parts of their codes:
   Stefan Grimme, W. Hujo, H. Kruse, P. Pracht,  : VdW corrections, initial TS optimization,
                  C. Bannwarth, S. Ehlert          DFT functionals, gCP, sTDA/sTD-DF
   Ed Valeev, F. Pavosevic, A. Kumar             : LibInt (2-el integral package), F12 methods
   Garnet Chan, S. Sharma, J. Yang, R. Olivares  : DMRG
   Ulf Ekstrom                                   : XCFun DFT Library
   Mihaly Kallay                                 : mrcc  (arbitrary order and MRCC methods)
   Jiri Pittner, Ondrej Demel                    : Mk-CCSD
   Frank Weinhold                                : gennbo (NPA and NBO analysis)
   Christopher J. Cramer and Donald G. Truhlar   : smd solvation model
   Lars Goerigk                                  : TD-DFT with DH, B97 family of functionals
   V. Asgeirsson, H. Jonsson                     : NEB implementation
   FAccTs GmbH                                   : IRC, NEB, NEB-TS, DLPNO-Multilevel, CI-OPT
                                                   MM, QMMM, 2- and 3-layer-ONIOM, Crystal-QMMM,
                                                   LR-CPCM, SF, NACMEs, symmetry and pop. for TD-DFT,
                                                   nearIR, NL-DFT gradient (VV10), updates on ESD,
                                                   ML-optimized integration grids
   S Lehtola, MJT Oliveira, MAL Marques          : LibXC Library
   Liviu Ungur et al                             : ANISO software


 Your calculation uses the libint2 library for the computation of 2-el integrals
 For citations please refer to: http://libint.valeyev.net

 Your ORCA version has been built with support for libXC version: 5.1.0
 For citations please refer to: https://tddft.org/programs/libxc/

 This ORCA versions uses:
   CBLAS   interface :  Fast vector & matrix operations
   LAPACKE interface :  Fast linear algebra routines
   Shared memory     :  Shared parallel matrices


Your calculation utilizes the atom-pairwise dispersion correction
based on tight binding partial charges (D4)
Cite in your paper:
E.Caldeweyher, C.Bannwarth, S.Grimme, J.Chem.Phys., (2017), 147, 034112.
E.Caldeweyher, S.Ehlert, A.Hansen, H.Neugebauer, S.Grimme, J.Chem.Phys., (2018), in progress.
   

================================================================================

----- Orbital basis set information -----
Your calculation utilizes the basis: def2-TZVP
   F. Weigend and R. Ahlrichs, Phys. Chem. Chem. Phys. 7, 3297 (2005).

----- AuxJ basis set information -----
Your calculation utilizes the auxiliary basis: def2/J
   F. Weigend, Phys. Chem. Chem. Phys. 8, 1057 (2006).

================================================================================
                                        WARNINGS
                       Please study these warnings very carefully!
================================================================================


WARNING: Geometry Optimization
  ===> : Switching off AutoStart
         For restart on a previous wavefunction, please use MOREAD

INFO   : the flag for use of the SHARK integral package has been found!

================================================================================
                                       INPUT FILE
================================================================================
NAME = para_ts_optfreq_4.inp
|  1> !B3LYP DEF2-TZVP OPT FREQ D4
|  2> 
|  3> * xyz 1 1
|  4>    C       -6.44150        0.36344       -0.12321
|  5>    C       -7.24091        1.04273       -1.09289
|  6>    C       -7.26131        0.62801       -2.39474
|  7>    C       -6.53476       -0.58640       -2.80355
|  8>    C       -5.63919       -1.19862       -1.80473
|  9>    C       -5.64559       -0.76234       -0.51357
| 10>    C       -6.30136        0.89765        1.25467
| 11>    H       -5.32273        2.41780        0.86814
| 12>    H       -5.18010       -0.24284        2.19356
| 13>    H       -7.79050        1.11938        1.71696
| 14>    H       -7.82763        1.91066       -0.78446
| 15>    H       -7.83746        1.15641       -3.16000
| 16>    H       -5.00772       -2.03016       -2.12940
| 17>    H       -5.02350       -1.25832        0.23781
| 18>    N       -5.84742       -0.42123       -4.22846
| 19>    O       -4.89288       -1.12492       -4.42503
| 20>    O       -6.38776        0.35693       -4.96893
| 21>    H       -7.30975       -1.35099       -3.05493
| 22> **                         ****END OF INPUT****
================================================================================

                       *****************************
                       * Geometry Optimization Run *
                       *****************************

Geometry optimization settings:
Update method            Update   .... BFGS
Choice of coordinates    CoordSys .... Z-matrix Internals
Initial Hessian          InHess   .... Almoef's Model

Convergence Tolerances:
Energy Change            TolE     ....  5.0000e-06 Eh
Max. Gradient            TolMAXG  ....  3.0000e-04 Eh/bohr
RMS Gradient             TolRMSG  ....  1.0000e-04 Eh/bohr
Max. Displacement        TolMAXD  ....  4.0000e-03 bohr
RMS Displacement         TolRMSD  ....  2.0000e-03 bohr
Strict Convergence                ....  False
------------------------------------------------------------------------------
                        ORCA OPTIMIZATION COORDINATE SETUP
------------------------------------------------------------------------------

The optimization will be done in new redundant internal coordinates
Making redundant internal coordinates   ...  (new redundants) done
Evaluating the initial hessian          ...  (Almloef) done
Evaluating the coordinates              ...  done
Calculating the B-matrix                .... done
Calculating the G-matrix                .... done
Diagonalizing the G-matrix              .... done
The first mode is                       ....   49
The number of degrees of freedom        ....   48

    -----------------------------------------------------------------
                    Redundant Internal Coordinates


    -----------------------------------------------------------------
         Definition                    Initial Value    Approx d2E/dq
    -----------------------------------------------------------------
      1. B(C   1,C   0)                  1.4286         0.542283   
      2. B(C   2,C   1)                  1.3665         0.681224   
      3. B(C   3,C   2)                  1.4730         0.460557   
      4. B(C   4,C   3)                  1.4746         0.457862   
      5. B(C   5,C   4)                  1.3629         0.690219   
      6. B(C   5,C   0)                  1.4329         0.533675   
      7. B(C   6,C   0)                  1.4844         0.441631   
      8. B(H   7,C   6)                  1.8488         0.022174   
      9. B(H   8,C   6)                  1.8546         0.021706   
     10. B(H   9,C   6)                  1.5749         0.060638   
     11. B(H  10,C   1)                  1.0921         0.357339   
     12. B(H  11,C   2)                  1.0940         0.354882   
     13. B(H  12,C   4)                  1.0934         0.355570   
     14. B(H  13,C   5)                  1.0943         0.354414   
     15. B(H  13,H   8)                  2.2092         0.001129   
     16. B(N  14,C   3)                  1.5906         0.267789   
     17. B(O  15,N  14)                  1.2021         0.999647   
     18. B(O  16,N  14)                  1.2024         0.998380   
     19. B(H  17,C   3)                  1.1173         0.325716   
     20. A(C   5,C   0,C   6)          118.8925         0.397900   
     21. A(C   1,C   0,C   5)          119.9667         0.412593   
     22. A(C   1,C   0,C   6)          120.7813         0.399020   
     23. A(C   0,C   1,C   2)          120.7121         0.430975   
     24. A(C   2,C   1,H  10)          120.1488         0.358125   
     25. A(C   0,C   1,H  10)          119.1331         0.344583   
     26. A(C   3,C   2,H  11)          117.6350         0.334922   
     27. A(C   1,C   2,C   3)          120.4815         0.418562   
     28. A(C   1,C   2,H  11)          121.8513         0.357705   
     29. A(C   4,C   3,H  17)          106.8301         0.329874   
     30. A(N  14,C   3,H  17)           99.7435         0.300582   
     31. A(C   2,C   3,H  17)          106.5284         0.330194   
     32. A(C   4,C   3,N  14)          112.7959         0.353236   
     33. A(C   2,C   3,N  14)          112.0952         0.353587   
     34. A(C   2,C   3,C   4)          116.9912         0.390218   
     35. A(C   3,C   4,H  12)          117.7323         0.334703   
     36. A(C   5,C   4,H  12)          121.8331         0.358622   
     37. A(C   3,C   4,C   5)          120.3936         0.419103   
     38. A(C   0,C   5,C   4)          120.8101         0.430752   
     39. A(C   4,C   5,H  13)          120.1801         0.358424   
     40. A(C   0,C   5,H  13)          118.9984         0.343186   
     41. A(H   7,C   6,H   8)          106.9453         0.145874   
     42. A(H   8,C   6,H   9)          120.6394         0.160417   
     43. A(C   0,C   6,H   8)          107.7993         0.218424   
     44. A(H   7,C   6,H   9)          116.4945         0.160762   
     45. A(C   0,C   6,H   7)           98.7319         0.219049   
     46. A(C   0,C   6,H   9)          103.5245         0.252303   
     47. A(C   6,H   8,H  13)           82.9552         0.112181   
     48. A(C   5,H  13,H   8)          111.0516         0.132617   
     49. A(O  15,N  14,O  16)          129.4194         0.503181   
     50. A(C   3,N  14,O  16)          115.1303         0.399008   
     51. A(C   3,N  14,O  15)          115.3940         0.399097   
     52. D(C   2,C   1,C   0,C   5)      0.2586         0.020099   
     53. D(H  10,C   1,C   0,C   6)     -5.8152         0.020099   
     54. D(C   2,C   1,C   0,C   6)    173.2984         0.020099   
     55. D(H  10,C   1,C   0,C   5)   -178.8550         0.020099   
     56. D(C   3,C   2,C   1,H  10)   -176.4821         0.032539   
     57. D(H  11,C   2,C   1,C   0)   -177.7007         0.032539   
     58. D(H  11,C   2,C   1,H  10)      1.4040         0.032539   
     59. D(C   3,C   2,C   1,C   0)      4.4132         0.032539   
     60. D(H  17,C   3,C   2,H  11)    -67.5662         0.015638   
     61. D(N  14,C   3,C   2,H  11)     40.5529         0.015638   
     62. D(N  14,C   3,C   2,C   1)   -141.4739         0.015638   
     63. D(C   4,C   3,C   2,H  11)    173.0881         0.015638   
     64. D(C   4,C   3,C   2,C   1)     -8.9388         0.015638   
     65. D(H  17,C   3,C   2,C   1)    110.4069         0.015638   
     66. D(C   5,C   4,C   3,C   2)      9.1788         0.015456   
     67. D(H  12,C   4,C   3,H  17)     67.7082         0.015456   
     68. D(H  12,C   4,C   3,N  14)    -40.8896         0.015456   
     69. D(H  12,C   4,C   3,C   2)   -173.1074         0.015456   
     70. D(C   5,C   4,C   3,H  17)   -110.0056         0.015456   
     71. D(C   5,C   4,C   3,N  14)    141.3966         0.015456   
     72. D(H  13,C   5,C   4,H  12)     -1.2712         0.033475   
     73. D(C   0,C   5,C   4,H  12)    177.4883         0.033475   
     74. D(C   0,C   5,C   4,C   3)     -4.8936         0.033475   
     75. D(H  13,C   5,C   0,C   6)      5.5962         0.019447   
     76. D(H  13,C   5,C   0,C   1)    178.7670         0.019447   
     77. D(H  13,C   5,C   4,C   3)    176.3469         0.033475   
     78. D(C   4,C   5,C   0,C   6)   -173.1777         0.019447   
     79. D(C   4,C   5,C   0,C   1)     -0.0069         0.019447   
     80. D(H   7,C   6,C   0,C   1)    -68.2710         0.014390   
     81. D(H   9,C   6,C   0,C   5)   -135.0809         0.014390   
     82. D(H   9,C   6,C   0,C   1)     51.8057         0.014390   
     83. D(H   8,C   6,C   0,C   5)     -6.1971         0.014390   
     84. D(H   8,C   6,C   0,C   1)   -179.3105         0.014390   
     85. D(H   7,C   6,C   0,C   5)    104.8424         0.014390   
     86. D(H  13,H   8,C   6,H   7)   -101.6118         0.001733   
     87. D(H  13,H   8,C   6,H   9)    122.1264         0.001733   
     88. D(H  13,H   8,C   6,C   0)      3.7254         0.001733   
     89. D(C   5,H  13,H   8,C   6)     -1.3632         0.001510   
     90. D(H   8,H  13,C   5,C   4)    176.8877         0.105471   
     91. D(H   8,H  13,C   5,C   0)     -1.8941         0.105471   
     92. D(O  16,N  14,C   3,H  17)     84.9039         0.006580   
     93. D(O  16,N  14,C   3,C   4)   -162.0899         0.006580   
     94. D(O  16,N  14,C   3,C   2)    -27.5068         0.006580   
     95. D(O  15,N  14,C   3,H  17)    -92.6282         0.006580   
     96. D(O  15,N  14,C   3,C   4)     20.3780         0.006580   
     97. D(O  15,N  14,C   3,C   2)    154.9611         0.006580   
    -----------------------------------------------------------------

Number of atoms                         .... 18
Number of degrees of freedom            .... 97

         *************************************************************
         *                GEOMETRY OPTIMIZATION CYCLE   1            *
         *************************************************************
---------------------------------
CARTESIAN COORDINATES (ANGSTROEM)
---------------------------------
  C     -6.441500    0.363440   -0.123210
  C     -7.240910    1.042730   -1.092890
  C     -7.261310    0.628010   -2.394740
  C     -6.534760   -0.586400   -2.803550
  C     -5.639190   -1.198620   -1.804730
  C     -5.645590   -0.762340   -0.513570
  C     -6.301360    0.897650    1.254670
  H     -5.322730    2.417800    0.868140
  H     -5.180100   -0.242840    2.193560
  H     -7.790500    1.119380    1.716960
  H     -7.827630    1.910660   -0.784460
  H     -7.837460    1.156410   -3.160000
  H     -5.007720   -2.030160   -2.129400
  H     -5.023500   -1.258320    0.237810
  N     -5.847420   -0.421230   -4.228460
  O     -4.892880   -1.124920   -4.425030
  O     -6.387760    0.356930   -4.968930
  H     -7.309750   -1.350990   -3.054930

----------------------------
CARTESIAN COORDINATES (A.U.)
----------------------------
  NO LB      ZA    FRAG     MASS         X           Y           Z
   0 C     6.0000    0    12.011  -12.172671    0.686802   -0.232833
   1 C     6.0000    0    12.011  -13.683337    1.970474   -2.065263
   2 C     6.0000    0    12.011  -13.721887    1.186767   -4.525403
   3 C     6.0000    0    12.011  -12.348907   -1.108135   -5.297942
   4 C     6.0000    0    12.011  -10.656525   -2.265064   -3.410445
   5 C     6.0000    0    12.011  -10.668619   -1.440614   -0.970507
   6 C     6.0000    0    12.011  -11.907845    1.696313    2.370983
   7 H     1.0000    0     1.008  -10.058502    4.568980    1.640547
   8 H     1.0000    0     1.008   -9.788970   -0.458901    4.145228
   9 H     1.0000    0     1.008  -14.721911    2.115322    3.244584
  10 H     1.0000    0     1.008  -14.792077    3.610624   -1.482415
  11 H     1.0000    0     1.008  -14.810653    2.185298   -5.971535
  12 H     1.0000    0     1.008   -9.463219   -3.836446   -4.023983
  13 H     1.0000    0     1.008   -9.493039   -2.377880    0.449396
  14 N     7.0000    0    14.007  -11.050022   -0.796009   -7.990631
  15 O     8.0000    0    15.999   -9.246203   -2.125791   -8.362095
  16 O     8.0000    0    15.999  -12.071117    0.674500   -9.389917
  17 H     1.0000    0     1.008  -13.813426   -2.553001   -5.772981

--------------------------------
INTERNAL COORDINATES (ANGSTROEM)
--------------------------------
 C      0   0   0     0.000000000000     0.00000000     0.00000000
 C      1   0   0     1.428555408306     0.00000000     0.00000000
 C      2   1   0     1.366463413670   120.71214860     0.00000000
 C      3   2   1     1.473021441358   120.48148138     4.41322202
 C      4   3   2     1.474618711973   116.99116896   351.06122720
 C      5   4   3     1.362892271605   120.39358398     9.17875371
 C      1   2   3     1.484443612301   120.78129526   173.29844785
 H      7   1   2     1.848777471818    98.73192460   291.72903036
 H      7   1   2     1.854577002931   107.79926143   180.68948951
 H      7   1   2     1.574933070514   103.52446623    51.80573387
 H      2   1   3     1.092095191913   119.13307432   180.88631811
 H      3   2   1     1.093973605760   121.85125174   182.29926545
 H      5   4   3     1.093445810912   117.73233355   186.89255349
 H      6   5   4     1.094332688400   120.18006080   176.34693885
 N      4   3   2     1.590624378224   112.09519199   218.52608694
 O     15   4   3     1.202067382720   115.39401141   154.96111959
 O     15   4   3     1.202412625557   115.13031492   332.49324945
 H      4   3   2     1.117317892365   106.52837764   110.40694164

---------------------------
INTERNAL COORDINATES (A.U.)
---------------------------
 C      0   0   0     0.000000000000     0.00000000     0.00000000
 C      1   0   0     2.699578488830     0.00000000     0.00000000
 C      2   1   0     2.582241623860   120.71214860     0.00000000
 C      3   2   1     2.783607113560   120.48148138     4.41322202
 C      4   3   2     2.786625517584   116.99116896   351.06122720
 C      5   4   3     2.575493143371   120.39358398     9.17875371
 C      1   2   3     2.805191888497   120.78129526   173.29844785
 H      7   1   2     3.493683104298    98.73192460   291.72903036
 H      7   1   2     3.504642629808   107.79926143   180.68948951
 H      7   1   2     2.976192182528   103.52446623    51.80573387
 H      2   1   3     2.063760824888   119.13307432   180.88631811
 H      3   2   1     2.067310512625   121.85125174   182.29926545
 H      5   4   3     2.066313124906   117.73233355   186.89255349
 H      6   5   4     2.067989080473   120.18006080   176.34693885
 N      4   3   2     3.005844456782   112.09519199   218.52608694
 O     15   4   3     2.271578147861   115.39401141   154.96111959
 O     15   4   3     2.272230562273   115.13031492   332.49324945
 H      4   3   2     2.111424821101   106.52837764   110.40694164

---------------------
BASIS SET INFORMATION
---------------------
There are 4 groups of distinct atoms

 Group   1 Type C   : 11s6p2d1f contracted to 5s3p2d1f pattern {62111/411/11/1}
 Group   2 Type H   : 5s1p contracted to 3s1p pattern {311/1}
 Group   3 Type N   : 11s6p2d1f contracted to 5s3p2d1f pattern {62111/411/11/1}
 Group   4 Type O   : 11s6p2d1f contracted to 5s3p2d1f pattern {62111/411/11/1}

Atom   0C    basis set group =>   1
Atom   1C    basis set group =>   1
Atom   2C    basis set group =>   1
Atom   3C    basis set group =>   1
Atom   4C    basis set group =>   1
Atom   5C    basis set group =>   1
Atom   6C    basis set group =>   1
Atom   7H    basis set group =>   2
Atom   8H    basis set group =>   2
Atom   9H    basis set group =>   2
Atom  10H    basis set group =>   2
Atom  11H    basis set group =>   2
Atom  12H    basis set group =>   2
Atom  13H    basis set group =>   2
Atom  14N    basis set group =>   3
Atom  15O    basis set group =>   4
Atom  16O    basis set group =>   4
Atom  17H    basis set group =>   2
---------------------------------
AUXILIARY/J BASIS SET INFORMATION
---------------------------------
There are 4 groups of distinct atoms

 Group   1 Type C   : 12s5p4d2f1g contracted to 6s4p3d1f1g pattern {711111/2111/211/2/1}
 Group   2 Type H   : 5s2p1d contracted to 3s1p1d pattern {311/2/1}
 Group   3 Type N   : 12s5p4d2f1g contracted to 6s4p3d1f1g pattern {711111/2111/211/2/1}
 Group   4 Type O   : 12s5p4d2f1g contracted to 6s4p3d1f1g pattern {711111/2111/211/2/1}

Atom   0C    basis set group =>   1
Atom   1C    basis set group =>   1
Atom   2C    basis set group =>   1
Atom   3C    basis set group =>   1
Atom   4C    basis set group =>   1
Atom   5C    basis set group =>   1
Atom   6C    basis set group =>   1
Atom   7H    basis set group =>   2
Atom   8H    basis set group =>   2
Atom   9H    basis set group =>   2
Atom  10H    basis set group =>   2
Atom  11H    basis set group =>   2
Atom  12H    basis set group =>   2
Atom  13H    basis set group =>   2
Atom  14N    basis set group =>   3
Atom  15O    basis set group =>   4
Atom  16O    basis set group =>   4
Atom  17H    basis set group =>   2
------------------------------------------------------------------------------
                           ORCA GTO INTEGRAL CALCULATION
                           -- RI-GTO INTEGRALS CHOSEN --
------------------------------------------------------------------------------
------------------------------------------------------------------------------
                   ___                                                        
                  /   \      - P O W E R E D   B Y -                         
                 /     \                                                     
                 |  |  |   _    _      __       _____    __    __             
                 |  |  |  | |  | |    /  \     |  _  \  |  |  /  |          
                  \  \/   | |  | |   /    \    | | | |  |  | /  /          
                 / \  \   | |__| |  /  /\  \   | |_| |  |  |/  /          
                |  |  |   |  __  | /  /__\  \  |    /   |      \           
                |  |  |   | |  | | |   __   |  |    \   |  |\   \          
                \     /   | |  | | |  |  |  |  | |\  \  |  | \   \       
                 \___/    |_|  |_| |__|  |__|  |_| \__\ |__|  \__/        
                                                                              
                      - O R C A' S   B I G   F R I E N D -                    
                                      &                                       
                       - I N T E G R A L  F E E D E R -                       
                                                                              
 v1 FN, 2020, v2 2021                                                         
------------------------------------------------------------------------------


Reading SHARK input file para_ts_optfreq_4.SHARKINP.tmp ... ok
----------------------
SHARK INTEGRAL PACKAGE
----------------------

Number of atoms                             ...     18
Number of basis functions                   ...    358
Number of shells                            ...    142
Maximum angular momentum                    ...      3
Integral batch strategy                     ... SHARK/LIBINT Hybrid
RI-J (if used) integral strategy            ... SPLIT-RIJ (Revised 2003 algorithm where possible)
Printlevel                                  ...      1
Contraction scheme used                     ... SEGMENTED contraction
Coulomb Range Separation                    ... NOT USED
Exchange Range Separation                   ... NOT USED
Finite Nucleus Model                        ... NOT USED
Auxiliary Coulomb fitting basis             ... AVAILABLE
   # of basis functions in Aux-J            ...    578
   # of shells in Aux-J                     ...    190
   Maximum angular momentum in Aux-J        ...      4
Auxiliary J/K fitting basis                 ... NOT available
Auxiliary Correlation fitting basis         ... NOT available
Auxiliary 'external' fitting basis          ... NOT available
Integral threshold                          ...     2.500000e-11
Primitive cut-off                           ...     2.500000e-12
Primitive pair pre-selection threshold      ...     2.500000e-12

Calculating pre-screening integrals         ... done (  0.5 sec) Dimension = 142
Organizing shell pair data                  ... done (  0.8 sec)
Shell pair information
Total number of shell pairs                 ...     10153
Shell pairs after pre-screening             ...      8842
Total number of primitive shell pairs       ...     31120
Primitive shell pairs kept                  ...     19805
          la=0 lb=0:   2301 shell pairs
          la=1 lb=0:   2495 shell pairs
          la=1 lb=1:    681 shell pairs
          la=2 lb=0:   1289 shell pairs
          la=2 lb=1:    693 shell pairs
          la=2 lb=2:    190 shell pairs
          la=3 lb=0:    623 shell pairs
          la=3 lb=1:    342 shell pairs
          la=3 lb=2:    180 shell pairs
          la=3 lb=3:     48 shell pairs

Calculating one electron integrals          ... done (  0.3 sec)
Calculating RI/J V-Matrix + Cholesky decomp.... done (  0.1 sec)
Calculating Nuclear repulsion               ... done (  0.0 sec) ENN=    499.083499468005 Eh

SHARK setup successfully completed in   2.6 seconds

Maximum memory used throughout the entire GTOINT-calculation: 129.4 MB
-------------------------------------------------------------------------------
                                 ORCA SCF
-------------------------------------------------------------------------------

------------
SCF SETTINGS
------------
Hamiltonian:
 Density Functional     Method          .... DFT(GTOs)
 Exchange Functional    Exchange        .... B88
   X-Alpha parameter    XAlpha          ....  0.666667
   Becke's b parameter  XBeta           ....  0.004200
 Correlation Functional Correlation     .... LYP
 LDA part of GGA corr.  LDAOpt          .... VWN-5
 Gradients option       PostSCFGGA      .... off
 Hybrid DFT is turned on
   Fraction HF Exchange ScalHFX         ....  0.200000
   Scaling of DF-GGA-X  ScalDFX         ....  0.720000
   Scaling of DF-GGA-C  ScalDFC         ....  0.810000
   Scaling of DF-LDA-C  ScalLDAC        ....  1.000000
   Perturbative correction              ....  0.000000
   Density functional embedding theory  .... OFF
   NL short-range parameter             ....  4.800000
 RI-approximation to the Coulomb term is turned on
   Number of AuxJ basis functions       .... 578
   RIJ-COSX (HFX calculated with COS-X)).... on


General Settings:
 Integral files         IntName         .... para_ts_optfreq_4
 Hartree-Fock type      HFTyp           .... RHF
 Total Charge           Charge          ....    1
 Multiplicity           Mult            ....    1
 Number of Electrons    NEL             ....   72
 Basis Dimension        Dim             ....  358
 Nuclear Repulsion      ENuc            ....    499.0834994680 Eh

Convergence Acceleration:
 DIIS                   CNVDIIS         .... on
   Start iteration      DIISMaxIt       ....    12
   Startup error        DIISStart       ....  0.200000
   # of expansion vecs  DIISMaxEq       ....     5
   Bias factor          DIISBfac        ....   1.050
   Max. coefficient     DIISMaxC        ....  10.000
 Trust-Rad. Augm. Hess. CNVTRAH         .... auto
   Auto Start mean grad. ratio tolernc. ....  1.125000
   Auto Start start iteration           ....    20
   Auto Start num. interpolation iter.  ....    10
   Max. Number of Micro iterations      ....    16
   Max. Number of Macro iterations      .... Maxiter - #DIIS iter
   Number of Davidson start vectors     ....     2
   Converg. threshold I  (grad. norm)   ....   1.000e-05
   Converg. threshold II (energy diff.) ....   1.000e-08
   Grad. Scal. Fac. for Micro threshold ....   0.100
   Minimum threshold for Micro iter.    ....   0.010
   NR start threshold (gradient norm)   ....   0.001
   Initial trust radius                 ....   0.400
   Minimum AH scaling param. (alpha)    ....   1.000
   Maximum AH scaling param. (alpha)    .... 1000.000
   Orbital update algorithm             .... Taylor
   White noise on init. David. guess    .... on
   Maximum white noise                  ....   0.010
   Quad. conv. algorithm                .... NR
 SOSCF                  CNVSOSCF        .... on
   Start iteration      SOSCFMaxIt      ....   150
   Startup grad/error   SOSCFStart      ....  0.003300
 Level Shifting         CNVShift        .... on
   Level shift para.    LevelShift      ....    0.2500
   Turn off err/grad.   ShiftErr        ....    0.0010
 Zerner damping         CNVZerner       .... off
 Static damping         CNVDamp         .... on
   Fraction old density DampFac         ....    0.7000
   Max. Damping (<1)    DampMax         ....    0.9800
   Min. Damping (>=0)   DampMin         ....    0.0000
   Turn off err/grad.   DampErr         ....    0.1000
 Fernandez-Rico         CNVRico         .... off

SCF Procedure:
 Maximum # iterations   MaxIter         ....   125
 SCF integral mode      SCFMode         .... Direct
   Integral package                     .... SHARK and LIBINT hybrid scheme
 Reset frequency        DirectResetFreq ....    20
 Integral Threshold     Thresh          ....  2.500e-11 Eh
 Primitive CutOff       TCut            ....  2.500e-12 Eh

Convergence Tolerance:
 Convergence Check Mode ConvCheckMode   .... Total+1el-Energy
 Convergence forced     ConvForced      .... 0
 Energy Change          TolE            ....  1.000e-08 Eh
 1-El. energy change                    ....  1.000e-05 Eh
 Orbital Gradient       TolG            ....  1.000e-05
 Orbital Rotation angle TolX            ....  1.000e-05
 DIIS Error             TolErr          ....  5.000e-07


Diagonalization of the overlap matrix:
Smallest eigenvalue                        ... 1.161e-05
Time for diagonalization                   ...    0.099 sec
Threshold for overlap eigenvalues          ... 1.000e-08
Number of eigenvalues below threshold      ... 0
Time for construction of square roots      ...    0.026 sec
Total time needed                          ...    0.126 sec

Time for model grid setup =    2.011 sec

------------------------------
INITIAL GUESS: MODEL POTENTIAL
------------------------------
Loading Hartree-Fock densities                     ... done
Calculating cut-offs                               ... done
Initializing the effective Hamiltonian             ... done
Setting up the integral package (SHARK)            ... done
Starting the Coulomb interaction                   ... done (   3.1 sec)
Reading the grid                                   ... done
Mapping shells                                     ... done
Starting the XC term evaluation                    ... done (   2.8 sec)
  promolecular density results
     # of electrons  =     72.992330241
     EX              =    -61.126790921
     EC              =     -2.471558441
     EX+EC           =    -63.598349362
Transforming the Hamiltonian                       ... done (   0.0 sec)
Diagonalizing the Hamiltonian                      ... done (   0.1 sec)
Back transforming the eigenvectors                 ... done (   0.0 sec)
Now organizing SCF variables                       ... done
                      ------------------
                      INITIAL GUESS DONE (   8.1 sec)
                      ------------------
-------------------
DFT GRID GENERATION
-------------------

General Integration Accuracy     IntAcc      ... 4.388
Radial Grid Type                 RadialGrid  ... OptM3 with GC (2021)
Angular Grid (max. ang.)         AngularGrid ... 4 (Lebedev-302)
Angular grid pruning method      GridPruning ... 4 (adaptive)
Weight generation scheme         WeightScheme... Becke
Basis function cutoff            BFCut       ... 1.0000e-11
Integration weight cutoff        WCut        ... 1.0000e-14
Angular grids for H and He will be reduced by one unit
Partially contracted basis set               ... off
Rotationally invariant grid construction     ... off

Total number of grid points                  ...    86190
Total number of batches                      ...     1354
Average number of points per batch           ...       63
Average number of grid points per atom       ...     4788
Time for grid setup =    4.328 sec

--------------------
COSX GRID GENERATION
--------------------

GRIDX 1
-------
General Integration Accuracy     IntAcc      ... 3.816
Radial Grid Type                 RadialGrid  ... OptM3 with GC (2021)
Angular Grid (max. ang.)         AngularGrid ... 1 (Lebedev-50)
Angular grid pruning method      GridPruning ... 4 (adaptive)
Weight generation scheme         WeightScheme... Becke
Basis function cutoff            BFCut       ... 1.0000e-11
Integration weight cutoff        WCut        ... 1.0000e-14
Angular grids for H and He will be reduced by one unit
Partially contracted basis set               ... on
Rotationally invariant grid construction     ... off

Total number of grid points                  ...    11008
Total number of batches                      ...      181
Average number of points per batch           ...       60
Average number of grid points per atom       ...      612
UseSFitting                                  ... on

GRIDX 2
-------
General Integration Accuracy     IntAcc      ... 4.020
Radial Grid Type                 RadialGrid  ... OptM3 with GC (2021)
Angular Grid (max. ang.)         AngularGrid ... 2 (Lebedev-110)
Angular grid pruning method      GridPruning ... 4 (adaptive)
Weight generation scheme         WeightScheme... Becke
Basis function cutoff            BFCut       ... 1.0000e-11
Integration weight cutoff        WCut        ... 1.0000e-14
Angular grids for H and He will be reduced by one unit
Partially contracted basis set               ... on
Rotationally invariant grid construction     ... off

Total number of grid points                  ...    24173
Total number of batches                      ...      388
Average number of points per batch           ...       62
Average number of grid points per atom       ...     1343
UseSFitting                                  ... on

GRIDX 3
-------
General Integration Accuracy     IntAcc      ... 4.338
Radial Grid Type                 RadialGrid  ... OptM3 with GC (2021)
Angular Grid (max. ang.)         AngularGrid ... 3 (Lebedev-194)
Angular grid pruning method      GridPruning ... 4 (adaptive)
Weight generation scheme         WeightScheme... Becke
Basis function cutoff            BFCut       ... 1.0000e-11
Integration weight cutoff        WCut        ... 1.0000e-14
Angular grids for H and He will be reduced by one unit
Partially contracted basis set               ... on
Rotationally invariant grid construction     ... off

Total number of grid points                  ...    53075
Total number of batches                      ...      838
Average number of points per batch           ...       63
Average number of grid points per atom       ...     2949
UseSFitting                                  ... on

Time for X-Grid setup             =    6.783 sec

--------------
SCF ITERATIONS
--------------
ITER       Energy         Delta-E        Max-DP      RMS-DP      [F,P]     Damp
               ***  Starting incremental Fock matrix formation  ***
  0   -475.7414022677   0.000000000000 0.05832149  0.00107860  0.2226790 0.7000
  1   -475.8578837751  -0.116481507333 0.04746229  0.00078985  0.0687534 0.7000
                               ***Turning on DIIS***
  2   -475.8971548836  -0.039271108508 0.07497096  0.00137735  0.0277114 0.0000
  3   -475.9672509588  -0.070096075200 0.03537163  0.00053696  0.0342149 0.0000
  4   -475.9793843483  -0.012133389505 0.01295527  0.00020853  0.0180018 0.0000
                      *** Initiating the SOSCF procedure ***
                           *** Shutting down DIIS ***
                      *** Re-Reading the Fockian *** 
                      *** Removing any level shift *** 
ITER      Energy       Delta-E        Grad      Rot      Max-DP    RMS-DP
  5   -475.98119032  -0.0018059767  0.001754  0.001754  0.004619  0.000085
               *** Restarting incremental Fock matrix formation ***
  6   -475.98130282  -0.0001124929  0.000617  0.002531  0.002451  0.000051
  7   -475.98129401   0.0000088071  0.000992  0.001820  0.001745  0.000027
  8   -475.98132402  -0.0000300088  0.000175  0.000928  0.000696  0.000017
  9   -475.98132233   0.0000016862  0.000250  0.000519  0.000561  0.000008
 10   -475.98132566  -0.0000033279  0.000098  0.000188  0.000370  0.000008
 11   -475.98132542   0.0000002406  0.000096  0.000107  0.000154  0.000003
 12   -475.98132597  -0.0000005453  0.000016  0.000107  0.000120  0.000002
 13   -475.98132597  -0.0000000010  0.000023  0.000044  0.000056  0.000001
 14   -475.98132598  -0.0000000174  0.000010  0.000031  0.000062  0.000001
 15   -475.98132599  -0.0000000019  0.000023  0.000027  0.000040  0.000001
 16   -475.98132599  -0.0000000033  0.000007  0.000014  0.000078  0.000001
 17   -475.98132599   0.0000000045  0.000004  0.000010  0.000023  0.000000
                  ***Gradient check signals convergence***
              ***Rediagonalizing the Fockian in SOSCF/NRSCF***

               *****************************************************
               *                     SUCCESS                       *
               *           SCF CONVERGED AFTER  18 CYCLES          *
               *****************************************************

Old exchange energy                            =    -12.248491989 Eh
New exchange energy                            =    -12.248474766 Eh
Exchange energy change after final integration =      0.000017223 Eh
Total energy after final integration           =   -475.981308763 Eh
Final COS-X integration done in                =   127.327 sec

----------------
TOTAL SCF ENERGY
----------------

Total Energy       :         -475.98130876 Eh          -12952.10988 eV

Components:
Nuclear Repulsion  :          499.08349947 Eh           13580.75245 eV
Electronic Energy  :         -975.06480823 Eh          -26532.86234 eV
One Electron Energy:        -1622.46809564 Eh          -44149.60140 eV
Two Electron Energy:          647.40328741 Eh           17616.73907 eV
Max COSX asymmetry :            0.00000079 Eh               0.00002 eV

Virial components:
Potential Energy   :         -948.97729852 Eh          -25822.98511 eV
Kinetic Energy     :          472.99598975 Eh           12870.87522 eV
Virial Ratio       :            2.00631151


DFT components:
N(Alpha)           :       36.000008535348 electrons
N(Beta)            :       36.000008535348 electrons
N(Total)           :       72.000017070695 electrons
E(X)               :      -48.855869751125 Eh       
E(C)               :       -2.881262663619 Eh       
E(XC)              :      -51.737132414744 Eh       
DFET-embed. en.    :        0.000000000000 Eh       

---------------
SCF CONVERGENCE
---------------

  Last Energy change         ...   -4.1598e-10  Tolerance :   1.0000e-08
  Last MAX-Density change    ...    2.4425e-15  Tolerance :   1.0000e-07
  Last RMS-Density change    ...    1.5923e-17  Tolerance :   5.0000e-09
  Last Orbital Gradient      ...    7.0050e-07  Tolerance :   1.0000e-05
  Last Orbital Rotation      ...    5.4207e-06  Tolerance :   1.0000e-05

             **** THE GBW FILE WAS UPDATED (para_ts_optfreq_4.gbw) ****
             **** DENSITY para_ts_optfreq_4.scfp WAS UPDATED ****
             **** ENERGY FILE WAS UPDATED (para_ts_optfreq_4.en.tmp) ****
             **** THE GBW FILE WAS UPDATED (para_ts_optfreq_4.gbw) ****
             **** DENSITY para_ts_optfreq_4.scfp WAS UPDATED ****
----------------
ORBITAL ENERGIES
----------------

  NO   OCC          E(Eh)            E(eV) 
   0   2.0000     -19.334863      -526.1284 
   1   2.0000     -19.334764      -526.1257 
   2   2.0000     -14.725770      -400.7086 
   3   2.0000     -10.469470      -284.8888 
   4   2.0000     -10.441954      -284.1400 
   5   2.0000     -10.434352      -283.9332 
   6   2.0000     -10.410771      -283.2915 
   7   2.0000     -10.409471      -283.2561 
   8   2.0000     -10.389634      -282.7163 
   9   2.0000     -10.388455      -282.6842 
  10   2.0000      -1.412345       -38.4319 
  11   2.0000      -1.247167       -33.9371 
  12   2.0000      -1.080884       -29.4124 
  13   2.0000      -1.001786       -27.2600 
  14   2.0000      -0.967430       -26.3251 
  15   2.0000      -0.900459       -24.5027 
  16   2.0000      -0.816120       -22.2078 
  17   2.0000      -0.809831       -22.0366 
  18   2.0000      -0.770002       -20.9528 
  19   2.0000      -0.733089       -19.9484 
  20   2.0000      -0.726066       -19.7573 
  21   2.0000      -0.689334       -18.7577 
  22   2.0000      -0.671539       -18.2735 
  23   2.0000      -0.669193       -18.2097 
  24   2.0000      -0.648849       -17.6561 
  25   2.0000      -0.635530       -17.2937 
  26   2.0000      -0.607261       -16.5244 
  27   2.0000      -0.571753       -15.5582 
  28   2.0000      -0.553102       -15.0507 
  29   2.0000      -0.540890       -14.7184 
  30   2.0000      -0.497014       -13.5244 
  31   2.0000      -0.491706       -13.3800 
  32   2.0000      -0.482324       -13.1247 
  33   2.0000      -0.474512       -12.9121 
  34   2.0000      -0.467668       -12.7259 
  35   2.0000      -0.460006       -12.5174 
  36   0.0000      -0.325264        -8.8509 
  37   0.0000      -0.266114        -7.2413 
  38   0.0000      -0.229241        -6.2380 
  39   0.0000      -0.219453        -5.9716 
  40   0.0000      -0.216899        -5.9021 
  41   0.0000      -0.174015        -4.7352 
  42   0.0000      -0.118882        -3.2349 
  43   0.0000      -0.116000        -3.1565 
  44   0.0000      -0.082895        -2.2557 
  45   0.0000      -0.073083        -1.9887 
  46   0.0000      -0.051638        -1.4051 
  47   0.0000      -0.040687        -1.1072 
  48   0.0000      -0.031333        -0.8526 
  49   0.0000      -0.025680        -0.6988 
  50   0.0000      -0.010933        -0.2975 
  51   0.0000       0.007254         0.1974 
  52   0.0000       0.030000         0.8163 
  53   0.0000       0.033793         0.9195 
  54   0.0000       0.038914         1.0589 
  55   0.0000       0.047882         1.3029 
  56   0.0000       0.059718         1.6250 
  57   0.0000       0.062907         1.7118 
  58   0.0000       0.083640         2.2760 
  59   0.0000       0.088360         2.4044 
  60   0.0000       0.105611         2.8738 
  61   0.0000       0.114906         3.1268 
  62   0.0000       0.125909         3.4261 
  63   0.0000       0.130211         3.5432 
  64   0.0000       0.138810         3.7772 
  65   0.0000       0.143085         3.8935 
  66   0.0000       0.144712         3.9378 
  67   0.0000       0.148184         4.0323 
  68   0.0000       0.153399         4.1742 
  69   0.0000       0.161026         4.3817 
  70   0.0000       0.173266         4.7148 
  71   0.0000       0.181163         4.9297 
  72   0.0000       0.196559         5.3486 
  73   0.0000       0.203277         5.5314 
  74   0.0000       0.219508         5.9731 
  75   0.0000       0.228025         6.2049 
  76   0.0000       0.232864         6.3365 
  77   0.0000       0.244953         6.6655 
  78   0.0000       0.250121         6.8061 
  79   0.0000       0.257435         7.0052 
  80   0.0000       0.258473         7.0334 
  81   0.0000       0.264007         7.1840 
  82   0.0000       0.276541         7.5251 
  83   0.0000       0.283698         7.7198 
  84   0.0000       0.303990         8.2720 
  85   0.0000       0.311664         8.4808 
  86   0.0000       0.327481         8.9112 
  87   0.0000       0.341958         9.3051 
  88   0.0000       0.348300         9.4777 
  89   0.0000       0.365708         9.9514 
  90   0.0000       0.370824        10.0906 
  91   0.0000       0.388420        10.5695 
  92   0.0000       0.397806        10.8249 
  93   0.0000       0.433160        11.7869 
  94   0.0000       0.438521        11.9328 
  95   0.0000       0.444350        12.0914 
  96   0.0000       0.447955        12.1895 
  97   0.0000       0.453124        12.3301 
  98   0.0000       0.459047        12.4913 
  99   0.0000       0.484383        13.1807 
 100   0.0000       0.505574        13.7574 
 101   0.0000       0.519534        14.1372 
 102   0.0000       0.526033        14.3141 
 103   0.0000       0.550699        14.9853 
 104   0.0000       0.557517        15.1708 
 105   0.0000       0.579108        15.7583 
 106   0.0000       0.582988        15.8639 
 107   0.0000       0.593370        16.1464 
 108   0.0000       0.635596        17.2954 
 109   0.0000       0.658944        17.9308 
 110   0.0000       0.670156        18.2359 
 111   0.0000       0.688080        18.7236 
 112   0.0000       0.708461        19.2782 
 113   0.0000       0.740258        20.1434 
 114   0.0000       0.744090        20.2477 
 115   0.0000       0.778296        21.1785 
 116   0.0000       0.782465        21.2920 
 117   0.0000       0.793323        21.5874 
 118   0.0000       0.806468        21.9451 
 119   0.0000       0.819086        22.2885 
 120   0.0000       0.836482        22.7618 
 121   0.0000       0.844924        22.9916 
 122   0.0000       0.867844        23.6152 
 123   0.0000       0.878850        23.9147 
 124   0.0000       0.908482        24.7210 
 125   0.0000       0.933082        25.3905 
 126   0.0000       0.963132        26.2082 
 127   0.0000       0.966345        26.2956 
 128   0.0000       0.973259        26.4837 
 129   0.0000       0.997809        27.1518 
 130   0.0000       1.019359        27.7382 
 131   0.0000       1.035608        28.1803 
 132   0.0000       1.038317        28.2541 
 133   0.0000       1.055941        28.7336 
 134   0.0000       1.067673        29.0529 
 135   0.0000       1.087222        29.5848 
 136   0.0000       1.099694        29.9242 
 137   0.0000       1.137607        30.9559 
 138   0.0000       1.158224        31.5169 
 139   0.0000       1.179238        32.0887 
 140   0.0000       1.185468        32.2582 
 141   0.0000       1.190684        32.4001 
 142   0.0000       1.232333        33.5335 
 143   0.0000       1.252401        34.0796 
 144   0.0000       1.261362        34.3234 
 145   0.0000       1.278806        34.7981 
 146   0.0000       1.283431        34.9239 
 147   0.0000       1.301025        35.4027 
 148   0.0000       1.313956        35.7545 
 149   0.0000       1.316324        35.8190 
 150   0.0000       1.340813        36.4854 
 151   0.0000       1.352464        36.8024 
 152   0.0000       1.363744        37.1094 
 153   0.0000       1.366155        37.1750 
 154   0.0000       1.379875        37.5483 
 155   0.0000       1.394041        37.9338 
 156   0.0000       1.418865        38.6093 
 157   0.0000       1.422769        38.7155 
 158   0.0000       1.436655        39.0934 
 159   0.0000       1.460616        39.7454 
 160   0.0000       1.483294        40.3625 
 161   0.0000       1.490032        40.5458 
 162   0.0000       1.513742        41.1910 
 163   0.0000       1.517262        41.2868 
 164   0.0000       1.520623        41.3783 
 165   0.0000       1.553764        42.2801 
 166   0.0000       1.564458        42.5711 
 167   0.0000       1.575957        42.8840 
 168   0.0000       1.589249        43.2457 
 169   0.0000       1.596795        43.4510 
 170   0.0000       1.629024        44.3280 
 171   0.0000       1.646818        44.8122 
 172   0.0000       1.678218        45.6666 
 173   0.0000       1.696880        46.1745 
 174   0.0000       1.706843        46.4456 
 175   0.0000       1.720638        46.8209 
 176   0.0000       1.757676        47.8288 
 177   0.0000       1.800057        48.9820 
 178   0.0000       1.803752        49.0826 
 179   0.0000       1.830943        49.8225 
 180   0.0000       1.849747        50.3342 
 181   0.0000       1.861198        50.6458 
 182   0.0000       1.877004        51.0759 
 183   0.0000       1.896199        51.5982 
 184   0.0000       1.914102        52.0854 
 185   0.0000       1.933858        52.6229 
 186   0.0000       1.953258        53.1509 
 187   0.0000       1.956660        53.2434 
 188   0.0000       1.981520        53.9199 
 189   0.0000       1.989152        54.1276 
 190   0.0000       2.006604        54.6025 
 191   0.0000       2.061637        56.1000 
 192   0.0000       2.074169        56.4410 
 193   0.0000       2.079292        56.5804 
 194   0.0000       2.093290        56.9613 
 195   0.0000       2.116264        57.5865 
 196   0.0000       2.128793        57.9274 
 197   0.0000       2.149721        58.4969 
 198   0.0000       2.187962        59.5375 
 199   0.0000       2.234002        60.7903 
 200   0.0000       2.243651        61.0529 
 201   0.0000       2.291794        62.3629 
 202   0.0000       2.301780        62.6346 
 203   0.0000       2.307324        62.7855 
 204   0.0000       2.336312        63.5743 
 205   0.0000       2.346139        63.8417 
 206   0.0000       2.362167        64.2778 
 207   0.0000       2.364743        64.3479 
 208   0.0000       2.377116        64.6846 
 209   0.0000       2.403799        65.4107 
 210   0.0000       2.429525        66.1107 
 211   0.0000       2.444740        66.5248 
 212   0.0000       2.456366        66.8411 
 213   0.0000       2.473677        67.3122 
 214   0.0000       2.498208        67.9797 
 215   0.0000       2.509850        68.2965 
 216   0.0000       2.512361        68.3648 
 217   0.0000       2.534023        68.9543 
 218   0.0000       2.547878        69.3313 
 219   0.0000       2.558401        69.6176 
 220   0.0000       2.570958        69.9593 
 221   0.0000       2.590156        70.4817 
 222   0.0000       2.596384        70.6512 
 223   0.0000       2.608848        70.9904 
 224   0.0000       2.618534        71.2539 
 225   0.0000       2.638797        71.8053 
 226   0.0000       2.649096        72.0856 
 227   0.0000       2.657418        72.3120 
 228   0.0000       2.691557        73.2410 
 229   0.0000       2.707339        73.6704 
 230   0.0000       2.739349        74.5415 
 231   0.0000       2.747401        74.7606 
 232   0.0000       2.788393        75.8760 
 233   0.0000       2.808291        76.4175 
 234   0.0000       2.851891        77.6039 
 235   0.0000       2.857705        77.7621 
 236   0.0000       2.884903        78.5022 
 237   0.0000       2.885846        78.5279 
 238   0.0000       2.895634        78.7942 
 239   0.0000       2.901731        78.9601 
 240   0.0000       2.919236        79.4365 
 241   0.0000       2.938025        79.9477 
 242   0.0000       2.942945        80.0816 
 243   0.0000       2.949448        80.2586 
 244   0.0000       2.975427        80.9655 
 245   0.0000       2.996098        81.5280 
 246   0.0000       3.015212        82.0481 
 247   0.0000       3.029940        82.4489 
 248   0.0000       3.045840        82.8815 
 249   0.0000       3.056740        83.1781 
 250   0.0000       3.058094        83.2150 
 251   0.0000       3.086637        83.9917 
 252   0.0000       3.103146        84.4409 
 253   0.0000       3.119189        84.8775 
 254   0.0000       3.126683        85.0814 
 255   0.0000       3.135324        85.3165 
 256   0.0000       3.158434        85.9454 
 257   0.0000       3.167301        86.1867 
 258   0.0000       3.178897        86.5022 
 259   0.0000       3.195714        86.9598 
 260   0.0000       3.212198        87.4084 
 261   0.0000       3.229181        87.8705 
 262   0.0000       3.242875        88.2431 
 263   0.0000       3.257142        88.6313 
 264   0.0000       3.259881        88.7059 
 265   0.0000       3.292566        89.5953 
 266   0.0000       3.321396        90.3798 
 267   0.0000       3.337578        90.8201 
 268   0.0000       3.372855        91.7800 
 269   0.0000       3.404063        92.6293 
 270   0.0000       3.406058        92.6835 
 271   0.0000       3.431200        93.3677 
 272   0.0000       3.477316        94.6226 
 273   0.0000       3.525488        95.9334 
 274   0.0000       3.550463        96.6130 
 275   0.0000       3.553017        96.6825 
 276   0.0000       3.602059        98.0170 
 277   0.0000       3.611456        98.2727 
 278   0.0000       3.638442        99.0070 
 279   0.0000       3.639952        99.0481 
 280   0.0000       3.673136        99.9511 
 281   0.0000       3.698405       100.6387 
 282   0.0000       3.764238       102.4301 
 283   0.0000       3.787173       103.0542 
 284   0.0000       3.797237       103.3281 
 285   0.0000       3.835377       104.3659 
 286   0.0000       3.843127       104.5768 
 287   0.0000       3.884965       105.7153 
 288   0.0000       3.908337       106.3512 
 289   0.0000       3.941286       107.2479 
 290   0.0000       3.948462       107.4431 
 291   0.0000       3.972027       108.0844 
 292   0.0000       3.977097       108.2223 
 293   0.0000       4.039399       109.9176 
 294   0.0000       4.066248       110.6482 
 295   0.0000       4.090104       111.2974 
 296   0.0000       4.105299       111.7109 
 297   0.0000       4.191623       114.0599 
 298   0.0000       4.263610       116.0187 
 299   0.0000       4.275149       116.3327 
 300   0.0000       4.295949       116.8987 
 301   0.0000       4.309518       117.2680 
 302   0.0000       4.395303       119.6023 
 303   0.0000       4.407236       119.9270 
 304   0.0000       4.443145       120.9041 
 305   0.0000       4.451685       121.1365 
 306   0.0000       4.464433       121.4834 
 307   0.0000       4.467923       121.5784 
 308   0.0000       4.562651       124.1560 
 309   0.0000       4.585679       124.7827 
 310   0.0000       4.625553       125.8677 
 311   0.0000       4.677463       127.2802 
 312   0.0000       4.705009       128.0298 
 313   0.0000       4.760661       129.5442 
 314   0.0000       4.772961       129.8789 
 315   0.0000       4.857026       132.1664 
 316   0.0000       4.883413       132.8844 
 317   0.0000       4.909645       133.5982 
 318   0.0000       4.922231       133.9407 
 319   0.0000       4.962117       135.0261 
 320   0.0000       4.969497       135.2269 
 321   0.0000       5.026577       136.7801 
 322   0.0000       5.042793       137.2214 
 323   0.0000       5.084845       138.3657 
 324   0.0000       5.153813       140.2424 
 325   0.0000       5.160237       140.4172 
 326   0.0000       5.195326       141.3720 
 327   0.0000       5.234980       142.4511 
 328   0.0000       5.384582       146.5219 
 329   0.0000       5.418601       147.4476 
 330   0.0000       5.441720       148.0767 
 331   0.0000       5.525145       150.3468 
 332   0.0000       5.867726       159.6689 
 333   0.0000       6.063521       164.9968 
 334   0.0000       6.162507       167.6904 
 335   0.0000       6.200875       168.7344 
 336   0.0000       6.214158       169.0958 
 337   0.0000       6.216133       169.1496 
 338   0.0000       6.366983       173.2544 
 339   0.0000       6.504888       177.0070 
 340   0.0000       6.734001       183.2415 
 341   0.0000       6.744866       183.5371 
 342   0.0000       6.799173       185.0149 
 343   0.0000       6.927363       188.5031 
 344   0.0000       7.096365       193.1019 
 345   0.0000       7.122775       193.8205 
 346   0.0000       7.249103       197.2581 
 347   0.0000       7.339536       199.7189 
 348   0.0000      21.676115       589.8371 
 349   0.0000      21.812546       593.5495 
 350   0.0000      22.226782       604.8215 
 351   0.0000      22.385209       609.1325 
 352   0.0000      22.460493       611.1811 
 353   0.0000      22.480525       611.7262 
 354   0.0000      22.788567       620.1084 
 355   0.0000      32.342821       880.0929 
 356   0.0000      43.839505      1192.9336 
 357   0.0000      43.858804      1193.4587 

                    ********************************
                    * MULLIKEN POPULATION ANALYSIS *
                    ********************************

-----------------------
MULLIKEN ATOMIC CHARGES
-----------------------
   0 C :    0.274906
   1 C :   -0.099956
   2 C :   -0.131903
   3 C :    0.068974
   4 C :   -0.137729
   5 C :   -0.112269
   6 C :   -0.413214
   7 H :    0.208416
   8 H :    0.177923
   9 H :    0.214406
  10 H :    0.183978
  11 H :    0.215709
  12 H :    0.213298
  13 H :    0.157238
  14 N :    0.428961
  15 O :   -0.227604
  16 O :   -0.228040
  17 H :    0.206907
Sum of atomic charges:    1.0000000

--------------------------------
MULLIKEN REDUCED ORBITAL CHARGES
--------------------------------
  0 C s       :     3.151447  s :     3.151447
      pz      :     0.823477  p :     2.438505
      px      :     0.800361
      py      :     0.814667
      dz2     :     0.031878  d :     0.125777
      dxz     :     0.027082
      dyz     :     0.027464
      dx2y2   :     0.022491
      dxy     :     0.016862
      f0      :     0.001652  f :     0.009365
      f+1     :     0.001540
      f-1     :     0.001667
      f+2     :     0.001181
      f-2     :     0.001386
      f+3     :     0.000802
      f-3     :     0.001137
  1 C s       :     3.209705  s :     3.209705
      pz      :     0.893009  p :     2.812734
      px      :     0.927918
      py      :     0.991807
      dz2     :     0.016516  d :     0.070616
      dxz     :     0.017988
      dyz     :     0.019847
      dx2y2   :     0.007576
      dxy     :     0.008689
      f0      :     0.001435  f :     0.006900
      f+1     :     0.001520
      f-1     :     0.001223
      f+2     :     0.000565
      f-2     :     0.001049
      f+3     :     0.000655
      f-3     :     0.000452
  2 C s       :     3.295874  s :     3.295874
      pz      :     0.980493  p :     2.742173
      px      :     0.884771
      py      :     0.876909
      dz2     :     0.019037  d :     0.086630
      dxz     :     0.022065
      dyz     :     0.022683
      dx2y2   :     0.011340
      dxy     :     0.011505
      f0      :     0.001166  f :     0.007227
      f+1     :     0.001535
      f-1     :     0.001370
      f+2     :     0.000413
      f-2     :     0.001158
      f+3     :     0.000622
      f-3     :     0.000963
  3 C s       :     3.062426  s :     3.062426
      pz      :     0.813746  p :     2.728862
      px      :     0.948012
      py      :     0.967104
      dz2     :     0.033278  d :     0.131498
      dxz     :     0.027338
      dyz     :     0.025555
      dx2y2   :     0.021796
      dxy     :     0.023531
      f0      :     0.001331  f :     0.008240
      f+1     :     0.001894
      f-1     :     0.001157
      f+2     :     0.001139
      f-2     :     0.001396
      f+3     :     0.000634
      f-3     :     0.000688
  4 C s       :     3.300422  s :     3.300422
      pz      :     0.943698  p :     2.743563
      px      :     0.864549
      py      :     0.935316
      dz2     :     0.018569  d :     0.086561
      dxz     :     0.026758
      dyz     :     0.023264
      dx2y2   :     0.007826
      dxy     :     0.010144
      f0      :     0.001341  f :     0.007183
      f+1     :     0.001530
      f-1     :     0.001091
      f+2     :     0.000983
      f-2     :     0.001211
      f+3     :     0.000647
      f-3     :     0.000378
  5 C s       :     3.203766  s :     3.203766
      pz      :     0.995663  p :     2.828105
      px      :     0.943646
      py      :     0.888796
      dz2     :     0.019334  d :     0.073427
      dxz     :     0.016632
      dyz     :     0.019322
      dx2y2   :     0.008677
      dxy     :     0.009462
      f0      :     0.001174  f :     0.006970
      f+1     :     0.001391
      f-1     :     0.001211
      f+2     :     0.000406
      f-2     :     0.001263
      f+3     :     0.000571
      f-3     :     0.000955
  6 C s       :     3.661041  s :     3.661041
      pz      :     0.859562  p :     2.689673
      px      :     0.937549
      py      :     0.892562
      dz2     :     0.016597  d :     0.059347
      dxz     :     0.012907
      dyz     :     0.014594
      dx2y2   :     0.007575
      dxy     :     0.007674
      f0      :     0.000787  f :     0.003153
      f+1     :     0.000560
      f-1     :     0.000742
      f+2     :     0.000350
      f-2     :     0.000323
      f+3     :     0.000299
      f-3     :     0.000092
  7 H s       :     0.787114  s :     0.787114
      pz      :     0.000380  p :     0.004470
      px      :     0.001326
      py      :     0.002764
  8 H s       :     0.817718  s :     0.817718
      pz      :     0.001531  p :     0.004358
      px      :     0.001451
      py      :     0.001376
  9 H s       :     0.776866  s :     0.776866
      pz      :     0.001587  p :     0.008729
      px      :     0.006146
      py      :     0.000996
 10 H s       :     0.793386  s :     0.793386
      pz      :     0.004091  p :     0.022635
      px      :     0.007351
      py      :     0.011193
 11 H s       :     0.761430  s :     0.761430
      pz      :     0.009906  p :     0.022861
      px      :     0.006715
      py      :     0.006241
 12 H s       :     0.763878  s :     0.763878
      pz      :     0.004729  p :     0.022824
      px      :     0.007700
      py      :     0.010395
 13 H s       :     0.819579  s :     0.819579
      pz      :     0.009079  p :     0.023183
      px      :     0.007822
      py      :     0.006283
 14 N s       :     3.285924  s :     3.285924
      pz      :     1.063703  p :     3.016016
      px      :     0.968046
      py      :     0.984268
      dz2     :     0.056010  d :     0.254859
      dxz     :     0.058567
      dyz     :     0.034039
      dx2y2   :     0.068097
      dxy     :     0.038146
      f0      :     0.001870  f :     0.014240
      f+1     :     0.001676
      f-1     :     0.002211
      f+2     :     0.001926
      f-2     :     0.002439
      f+3     :     0.002311
      f-3     :     0.001808
 15 O s       :     3.905072  s :     3.905072
      pz      :     1.723911  p :     4.274022
      px      :     1.211229
      py      :     1.338883
      dz2     :     0.005633  d :     0.045123
      dxz     :     0.007267
      dyz     :     0.004795
      dx2y2   :     0.013117
      dxy     :     0.014311
      f0      :     0.000368  f :     0.003388
      f+1     :     0.000441
      f-1     :     0.000261
      f+2     :     0.000102
      f-2     :     0.000535
      f+3     :     0.000858
      f-3     :     0.000822
 16 O s       :     3.905749  s :     3.905749
      pz      :     1.479081  p :     4.273786
      px      :     1.507734
      py      :     1.286972
      dz2     :     0.008051  d :     0.045117
      dxz     :     0.009109
      dyz     :     0.012284
      dx2y2   :     0.008085
      dxy     :     0.007588
      f0      :     0.000356  f :     0.003387
      f+1     :     0.000386
      f-1     :     0.000549
      f+2     :     0.000637
      f-2     :     0.000795
      f+3     :     0.000324
      f-3     :     0.000340
 17 H s       :     0.769547  s :     0.769547
      pz      :     0.004512  p :     0.023546
      px      :     0.009610
      py      :     0.009424


                     *******************************
                     * LOEWDIN POPULATION ANALYSIS *
                     *******************************

----------------------
LOEWDIN ATOMIC CHARGES
----------------------
   0 C :   -0.118549
   1 C :   -0.073922
   2 C :   -0.010258
   3 C :   -0.176369
   4 C :   -0.002985
   5 C :   -0.074397
   6 C :   -0.213545
   7 H :    0.234996
   8 H :    0.197252
   9 H :    0.238006
  10 H :    0.172922
  11 H :    0.178549
  12 H :    0.178623
  13 H :    0.167115
  14 N :   -0.043048
  15 O :    0.058228
  16 O :    0.057621
  17 H :    0.229760

-------------------------------
LOEWDIN REDUCED ORBITAL CHARGES
-------------------------------
  0 C s       :     2.755330  s :     2.755330
      pz      :     1.030989  p :     2.784507
      px      :     0.827906
      py      :     0.925611
      dz2     :     0.142679  d :     0.525584
      dxz     :     0.103196
      dyz     :     0.124771
      dx2y2   :     0.075906
      dxy     :     0.079031
      f0      :     0.009090  f :     0.053128
      f+1     :     0.009421
      f-1     :     0.009443
      f+2     :     0.007438
      f-2     :     0.007571
      f+3     :     0.005047
      f-3     :     0.005119
  1 C s       :     2.767871  s :     2.767871
      pz      :     1.042773  p :     2.914587
      px      :     0.921156
      py      :     0.950658
      dz2     :     0.113861  d :     0.351039
      dxz     :     0.080579
      dyz     :     0.089276
      dx2y2   :     0.023697
      dxy     :     0.043627
      f0      :     0.009380  f :     0.040425
      f+1     :     0.008296
      f-1     :     0.008320
      f+2     :     0.004085
      f-2     :     0.005878
      f+3     :     0.002848
      f-3     :     0.001618
  2 C s       :     2.789946  s :     2.789946
      pz      :     1.059233  p :     2.811768
      px      :     0.838250
      py      :     0.914286
      dz2     :     0.081225  d :     0.367552
      dxz     :     0.081406
      dyz     :     0.110854
      dx2y2   :     0.045104
      dxy     :     0.048963
      f0      :     0.008634  f :     0.040992
      f+1     :     0.007503
      f-1     :     0.008432
      f+2     :     0.002915
      f-2     :     0.004755
      f+3     :     0.003835
      f-3     :     0.004917
  3 C s       :     2.747683  s :     2.747683
      pz      :     0.871293  p :     2.875712
      px      :     0.983452
      py      :     1.020967
      dz2     :     0.122118  d :     0.499162
      dxz     :     0.105988
      dyz     :     0.087205
      dx2y2   :     0.073373
      dxy     :     0.110479
      f0      :     0.009177  f :     0.053812
      f+1     :     0.011175
      f-1     :     0.008593
      f+2     :     0.008018
      f-2     :     0.006795
      f+3     :     0.004973
      f-3     :     0.005081
  4 C s       :     2.790614  s :     2.790614
      pz      :     1.055187  p :     2.803481
      px      :     0.854621
      py      :     0.893673
      dz2     :     0.101470  d :     0.367812
      dxz     :     0.101728
      dyz     :     0.093000
      dx2y2   :     0.026816
      dxy     :     0.044796
      f0      :     0.008651  f :     0.041078
      f+1     :     0.008565
      f-1     :     0.007208
      f+2     :     0.006224
      f-2     :     0.005822
      f+3     :     0.002958
      f-3     :     0.001651
  5 C s       :     2.769706  s :     2.769706
      pz      :     1.047282  p :     2.914183
      px      :     0.917286
      py      :     0.949615
      dz2     :     0.085187  d :     0.349963
      dxz     :     0.080394
      dyz     :     0.107255
      dx2y2   :     0.031312
      dxy     :     0.045815
      f0      :     0.008792  f :     0.040544
      f+1     :     0.007456
      f-1     :     0.008083
      f+2     :     0.002759
      f-2     :     0.005753
      f+3     :     0.003986
      f-3     :     0.003715
  6 C s       :     3.131204  s :     3.131204
      pz      :     1.029638  p :     2.880280
      px      :     0.948678
      py      :     0.901964
      dz2     :     0.055409  d :     0.184579
      dxz     :     0.045543
      dyz     :     0.046546
      dx2y2   :     0.017772
      dxy     :     0.019309
      f0      :     0.004696  f :     0.017483
      f+1     :     0.003477
      f-1     :     0.004773
      f+2     :     0.001924
      f-2     :     0.001432
      f+3     :     0.000771
      f-3     :     0.000411
  7 H s       :     0.758435  s :     0.758435
      pz      :     0.000750  p :     0.006569
      px      :     0.001849
      py      :     0.003970
  8 H s       :     0.796096  s :     0.796096
      pz      :     0.001757  p :     0.006652
      px      :     0.002325
      py      :     0.002571
  9 H s       :     0.745265  s :     0.745265
      pz      :     0.002219  p :     0.016729
      px      :     0.012859
      py      :     0.001651
 10 H s       :     0.767696  s :     0.767696
      pz      :     0.011486  p :     0.059381
      px      :     0.019290
      py      :     0.028605
 11 H s       :     0.759815  s :     0.759815
      pz      :     0.025716  p :     0.061636
      px      :     0.018672
      py      :     0.017247
 12 H s       :     0.759959  s :     0.759959
      pz      :     0.012994  p :     0.061418
      px      :     0.020461
      py      :     0.027962
 13 H s       :     0.773222  s :     0.773222
      pz      :     0.023026  p :     0.059663
      px      :     0.020317
      py      :     0.016320
 14 N s       :     2.945649  s :     2.945649
      pz      :     1.092821  p :     3.259736
      px      :     1.089436
      py      :     1.077479
      dz2     :     0.157747  d :     0.766258
      dxz     :     0.166975
      dyz     :     0.115369
      dx2y2   :     0.174854
      dxy     :     0.151312
      f0      :     0.010290  f :     0.071405
      f+1     :     0.009059
      f-1     :     0.011975
      f+2     :     0.010808
      f-2     :     0.011705
      f+3     :     0.009399
      f-3     :     0.008169
 15 O s       :     3.489624  s :     3.489624
      pz      :     1.639618  p :     4.334434
      px      :     1.319248
      py      :     1.375567
      dz2     :     0.013706  d :     0.105817
      dxz     :     0.017599
      dyz     :     0.010378
      dx2y2   :     0.026005
      dxy     :     0.038129
      f0      :     0.001224  f :     0.011897
      f+1     :     0.001502
      f-1     :     0.000867
      f+2     :     0.000337
      f-2     :     0.002000
      f+3     :     0.002685
      f-3     :     0.003282
 16 O s       :     3.489642  s :     3.489642
      pz      :     1.497131  p :     4.335116
      px      :     1.492443
      py      :     1.345542
      dz2     :     0.017325  d :     0.105742
      dxz     :     0.020249
      dyz     :     0.031651
      dx2y2   :     0.016554
      dxy     :     0.019963
      f0      :     0.001242  f :     0.011879
      f+1     :     0.001178
      f-1     :     0.002156
      f+2     :     0.001901
      f-2     :     0.003043
      f+3     :     0.001254
      f-3     :     0.001105
 17 H s       :     0.711943  s :     0.711943
      pz      :     0.011967  p :     0.058296
      px      :     0.023500
      py      :     0.022829


                      *****************************
                      * MAYER POPULATION ANALYSIS *
                      *****************************

  NA   - Mulliken gross atomic population
  ZA   - Total nuclear charge
  QA   - Mulliken gross atomic charge
  VA   - Mayer's total valence
  BVA  - Mayer's bonded valence
  FA   - Mayer's free valence

  ATOM       NA         ZA         QA         VA         BVA        FA
  0 C      5.7251     6.0000     0.2749     3.5785     3.5785    -0.0000
  1 C      6.1000     6.0000    -0.1000     3.8096     3.8096    -0.0000
  2 C      6.1319     6.0000    -0.1319     3.9404     3.9404     0.0000
  3 C      5.9310     6.0000     0.0690     3.9550     3.9550    -0.0000
  4 C      6.1377     6.0000    -0.1377     3.9818     3.9818    -0.0000
  5 C      6.1123     6.0000    -0.1123     3.8783     3.8783    -0.0000
  6 C      6.4132     6.0000    -0.4132     3.5206     3.5206    -0.0000
  7 H      0.7916     1.0000     0.2084     0.9444     0.9444     0.0000
  8 H      0.8221     1.0000     0.1779     0.9586     0.9586    -0.0000
  9 H      0.7856     1.0000     0.2144     0.9409     0.9409    -0.0000
 10 H      0.8160     1.0000     0.1840     0.9656     0.9656    -0.0000
 11 H      0.7843     1.0000     0.2157     0.9621     0.9621     0.0000
 12 H      0.7867     1.0000     0.2133     0.9622     0.9622     0.0000
 13 H      0.8428     1.0000     0.1572     0.9867     0.9867    -0.0000
 14 N      6.5710     7.0000     0.4290     4.1696     4.1696     0.0000
 15 O      8.2276     8.0000    -0.2276     2.0283     2.0283    -0.0000
 16 O      8.2280     8.0000    -0.2280     2.0288     2.0288    -0.0000
 17 H      0.7931     1.0000     0.2069     0.9462     0.9462    -0.0000

  Mayer bond orders larger than 0.100000
B(  0-C ,  1-C ) :   1.1797 B(  0-C ,  5-C ) :   1.1836 B(  0-C ,  6-C ) :   0.9662 
B(  1-C ,  2-C ) :   1.6058 B(  1-C , 10-H ) :   0.9399 B(  2-C ,  3-C ) :   1.0742 
B(  2-C , 11-H ) :   0.9215 B(  3-C ,  4-C ) :   1.0754 B(  3-C , 14-N ) :   0.8192 
B(  3-C , 17-H ) :   0.8383 B(  4-C ,  5-C ) :   1.6182 B(  4-C , 12-H ) :   0.9210 
B(  5-C , 13-H ) :   0.9401 B(  6-C ,  7-H ) :   0.7672 B(  6-C ,  8-H ) :   0.8725 
B(  6-C ,  9-H ) :   0.8309 B( 14-N , 15-O ) :   1.6550 B( 14-N , 16-O ) :   1.6511 
B( 15-O , 16-O ) :   0.2342 

-------
TIMINGS
-------

[...]
     12      -0.032133   0.070121  -0.036830  -0.025533  -0.002205  -0.000067
     13       0.038146   0.041456  -0.061191   0.021145  -0.000651  -0.000253
     14       0.011197   0.303291  -0.272004   0.020734  -0.001765  -0.000562
     15       0.069279  -0.039580  -0.019793   0.018840  -0.000690  -0.000365
     16      -0.119534  -0.049849   0.143670  -0.033196   0.000969   0.000626
     17      -0.075235  -0.244992   0.280395  -0.026073   0.001294   0.001124
     18      -0.004454  -0.017131   0.005225   0.001740   0.000096  -0.003716
     19      -0.017508   0.027679  -0.002708  -0.001983  -0.000670  -0.051095
     20      -0.073185   0.009828   0.025697   0.000153  -0.000252  -0.027463
     21       0.367643  -0.182630  -0.097964   0.005254   0.005792   0.329548
     22      -0.178278   0.098666   0.025416  -0.003800   0.011532   0.756968
     23       0.018003   0.028200  -0.015238  -0.007911   0.000152  -0.025046
     24      -0.156387   0.028194   0.033232  -0.002781   0.001424   0.158677
     25       0.394247  -0.216150  -0.038019   0.011929  -0.001724  -0.175450
     26       0.484922  -0.274046  -0.040861   0.017213   0.001885   0.169262
     27       0.053014   0.004697  -0.000459  -0.002759  -0.008344  -0.440901
     28      -0.426814   0.204391   0.110101  -0.009787   0.000141   0.036383
     29       0.170417   0.010205  -0.047613  -0.007242   0.004410   0.183806
     30      -0.031325  -0.158653  -0.213745  -0.026992  -0.002072   0.001725
     31      -0.001490   0.177013   0.160779  -0.001953   0.000406  -0.003960
     32      -0.122791  -0.128326  -0.312507  -0.064273   0.000063  -0.002640
     33      -0.038015  -0.154147  -0.167059  -0.020214  -0.001344   0.000367
     34       0.012257   0.273177   0.284418  -0.028100   0.005420   0.000081
     35      -0.067795   0.169110   0.119649  -0.086164  -0.008778  -0.000251
     36       0.046065  -0.201703   0.192312   0.006372   0.007628   0.000319
     37       0.042852   0.122861  -0.130082   0.046504  -0.004842   0.000090
     38       0.178718  -0.320189   0.241296   0.080069  -0.005894  -0.000373
     39      -0.040730  -0.192127   0.186754  -0.011408  -0.000033  -0.001839
     40       0.122451   0.237127  -0.293859   0.045895  -0.001955   0.001282
     41       0.185066   0.037207  -0.159394   0.051359   0.000832  -0.002611
     42       0.010069   0.006756  -0.012424  -0.537360  -0.001245   0.000147
     43      -0.015292  -0.006258   0.001631   0.587327  -0.000585   0.000005
     44       0.013303  -0.001006   0.044121  -0.188017   0.001565  -0.000427
     45      -0.003912  -0.003904   0.017092   0.286303   0.000326  -0.000127
     46       0.003010   0.004115  -0.012713  -0.236594  -0.000196   0.000071
     47       0.000171  -0.001374  -0.008609  -0.065122  -0.000215   0.000111
     48      -0.005980  -0.002457  -0.007437   0.164728  -0.000055   0.000008
     49       0.011544   0.001939   0.014202  -0.256412   0.000247  -0.000068
     50      -0.011269   0.001598  -0.017359   0.222891  -0.000359   0.000136
     51       0.019741  -0.050296  -0.000996  -0.040763   0.696468  -0.010979
     52      -0.015363   0.055731   0.003331   0.050391   0.676660  -0.010106
     53       0.004440  -0.013699  -0.009592  -0.023195   0.224282  -0.002652
                 48         49         50         51         52         53    
      0       0.001212   0.000529  -0.001301  -0.000886  -0.000773  -0.000014
      1       0.000719  -0.001343   0.001079   0.001482   0.000927   0.000598
      2      -0.000146  -0.001334  -0.001404   0.000728  -0.000150   0.001221
      3      -0.000469  -0.000519   0.041176  -0.003820   0.009501  -0.010603
      4      -0.000015   0.000533  -0.066489   0.006027  -0.016831   0.018303
      5       0.000471   0.000175  -0.023655   0.002011  -0.009654   0.009498
      6      -0.000075  -0.000105  -0.015677   0.001785   0.031570  -0.031309
      7      -0.000088  -0.000086   0.014991  -0.001969  -0.026976   0.027151
      8      -0.000085  -0.000395  -0.017056   0.001670   0.042401  -0.041537
      9       0.000201   0.000161  -0.000252   0.000376  -0.001106  -0.001005
     10       0.000173   0.000162   0.000013   0.000168   0.001288  -0.001119
     11       0.000014   0.000160   0.000197  -0.000146  -0.000420  -0.000910
     12       0.000027   0.000141  -0.001086  -0.022583   0.029417   0.030523
     13       0.000025  -0.000247   0.001686   0.030549  -0.042266  -0.043303
     14      -0.000007  -0.000184   0.000729   0.009884  -0.019103  -0.018914
     15       0.000523  -0.002046   0.004009   0.045488   0.016261   0.017214
     16       0.000460   0.001777  -0.002913  -0.034736  -0.010983  -0.011913
     17       0.000062  -0.002232   0.004708   0.050699   0.022288   0.022768
     18       0.071236   0.056237   0.000855   0.001743   0.000698   0.000353
     19       0.035926  -0.059192  -0.000720  -0.001989  -0.000716  -0.000223
     20      -0.033878   0.040508   0.000244   0.001554   0.000458   0.000275
     21      -0.185324   0.081265   0.002083   0.001874   0.000998  -0.000422
     22      -0.482471   0.148668   0.003143   0.003771   0.001911  -0.000884
     23       0.003092   0.000011   0.001202  -0.000871   0.000047  -0.000566
     24       0.087251  -0.530036  -0.004630  -0.019064  -0.006169  -0.003649
     25      -0.066636   0.550471   0.005366   0.018917   0.006137   0.003338
     26       0.072114  -0.564097  -0.003698  -0.021973  -0.006744  -0.004967
     27      -0.766904  -0.220787  -0.006270  -0.004716  -0.002893  -0.000168
     28       0.108936   0.015588   0.000790   0.000359   0.000250  -0.000157
     29       0.328734   0.101540   0.004234   0.001254   0.001309  -0.001096
     30       0.002573   0.003722  -0.470747   0.040222  -0.114041   0.121820
     31      -0.002038  -0.006284   0.760578  -0.064653   0.185031  -0.198205
     32      -0.001793  -0.003224   0.269590  -0.022878   0.067352  -0.072041
     33      -0.000615   0.000905   0.182699  -0.018234  -0.365762   0.355648
     34       0.000251  -0.000507  -0.164558   0.016935   0.327439  -0.319125
     35      -0.000604   0.001005   0.226616  -0.023333  -0.459207   0.448456
     36      -0.000301  -0.003092   0.015375   0.260482  -0.346191  -0.349679
     37      -0.001313   0.004248  -0.021796  -0.359882   0.480295   0.483813
     38      -0.000206   0.001741  -0.007955  -0.136668   0.185787   0.188480
     39      -0.001166   0.021375  -0.049627  -0.518349  -0.189496  -0.196695
     40       0.000818  -0.015328   0.037292   0.391198   0.142298   0.147242
     41      -0.001342   0.026749  -0.056240  -0.588240  -0.217057  -0.225178
     42       0.000012   0.000062  -0.000166  -0.000429   0.000837   0.000337
     43      -0.000030  -0.000014   0.000328   0.000249  -0.000953   0.000213
     44      -0.000016  -0.000141  -0.000179   0.000042   0.000303  -0.000406
     45       0.000000  -0.000051  -0.000005   0.000147  -0.000188  -0.000224
     46       0.000008   0.000031  -0.000034  -0.000173   0.000277   0.000179
     47      -0.000000   0.000037   0.000068   0.000199  -0.000330  -0.000162
     48      -0.000003  -0.000001   0.000152   0.000040  -0.000346   0.000194
     49      -0.000001  -0.000016  -0.000159   0.000005   0.000325  -0.000287
     50       0.000008   0.000040  -0.000066  -0.000052   0.000158  -0.000031
     51      -0.001371  -0.001578   0.000735  -0.002584   0.000797   0.007438
     52      -0.000500  -0.001060   0.001477  -0.001867  -0.001064   0.007926
     53       0.000088  -0.000271   0.000498  -0.001397   0.000224   0.004466


-----------
IR SPECTRUM
-----------

 Mode   freq       eps      Int      T**2         TX        TY        TZ
       cm**-1   L/(mol*cm) km/mol    a.u.
----------------------------------------------------------------------------
  7:     29.73   0.000001    0.00  0.000009  (-0.002753  0.000026  0.001098)
  8:     66.93   0.000774    3.91  0.003609  ( 0.022229  0.030987  0.046413)
  9:    202.61   0.000573    2.90  0.000883  (-0.016391  0.024330 -0.004736)
 10:    206.76   0.000382    1.93  0.000576  (-0.014137 -0.012555 -0.014785)
 11:    317.03   0.002171   10.97  0.002137  (-0.006506  0.008777  0.044918)
 12:    344.10   0.000054    0.27  0.000049  ( 0.001617 -0.005814  0.003544)
 13:    362.45   0.000011    0.06  0.000010  ( 0.001481 -0.001768  0.002060)
 14:    481.81   0.000163    0.82  0.000105  ( 0.009850 -0.002688 -0.001100)
 15:    489.16   0.000644    3.25  0.000411  (-0.013296 -0.012858  0.008277)
 16:    565.17   0.001264    6.39  0.000698  (-0.016623 -0.009585  0.018161)
 17:    606.01   0.001119    5.65  0.000576  (-0.015396  0.018020 -0.003796)
 18:    631.10   0.005514   27.87  0.002727  ( 0.034405  0.020138 -0.033726)
 19:    734.22   0.004658   23.54  0.001980  (-0.031665 -0.021338  0.022847)
 20:    779.40   0.005327   26.92  0.002133  ( 0.007790 -0.005817 -0.045150)
 21:    800.43   0.000203    1.03  0.000079  (-0.006362  0.002628 -0.005642)
 22:    833.48   0.037534  189.68  0.014053  ( 0.037029 -0.003580 -0.112557)
 23:    874.37   0.003203   16.19  0.001143  (-0.019875 -0.021650 -0.016714)
 24:    901.22   0.022228  112.33  0.007697  ( 0.014836 -0.012857 -0.085507)
 25:    990.84   0.004082   20.63  0.001286  (-0.008553 -0.003885 -0.034605)
 26:   1003.53   0.000500    2.53  0.000156  ( 0.005778 -0.011056 -0.000063)
 27:   1020.76   0.000637    3.22  0.000195  ( 0.005256  0.008395  0.009831)
 28:   1038.52   0.003695   18.67  0.001110  (-0.025118 -0.016740  0.014112)
 29:   1050.04   0.002551   12.89  0.000758  (-0.003600 -0.012468 -0.024282)
 30:   1091.97   0.001809    9.14  0.000517  (-0.013075  0.017238  0.006991)
 31:   1114.72   0.019650   99.30  0.005501  (-0.021063  0.002656  0.071065)
 32:   1158.56   0.001148    5.80  0.000309  (-0.006800  0.012634  0.010162)
 33:   1215.83   0.012287   62.09  0.003154  ( 0.000519 -0.021783 -0.051757)
 34:   1255.56   0.004215   21.30  0.001048  (-0.004166  0.011181  0.030089)
 35:   1324.20   0.004070   20.57  0.000959  ( 0.017573 -0.024931 -0.005361)
 36:   1360.58   0.027747  140.22  0.006364  ( 0.019809 -0.036003 -0.068377)
 37:   1368.26   0.033012  166.83  0.007529  ( 0.024348  0.006523 -0.083029)
 38:   1391.47   0.002383   12.04  0.000535  ( 0.006459  0.007472  0.020904)
 39:   1447.37   0.002989   15.10  0.000644  ( 0.025263  0.002360 -0.000791)
 40:   1466.25   0.004624   23.37  0.000984  ( 0.010504 -0.029493  0.001979)
 41:   1483.71   0.015782   79.75  0.003319  (-0.002449 -0.010249 -0.056641)
 42:   1500.48   0.004165   21.05  0.000866  (-0.019540  0.021862  0.002537)
 43:   1548.06   0.009646   48.75  0.001945  (-0.027576  0.034009 -0.005246)
 44:   1656.62   0.043658  220.63  0.008224  (-0.006481 -0.030381 -0.085200)
 45:   1693.62   0.060714  306.83  0.011187  (-0.069515  0.075954 -0.024202)
 46:   2933.79   0.010832   54.74  0.001152  ( 0.020502  0.022490  0.015036)
 47:   3006.55   0.011274   56.98  0.001170  ( 0.001770  0.015098  0.030645)
 48:   3049.74   0.000758    3.83  0.000078  (-0.006307 -0.002560  0.005592)
 49:   3146.64   0.001755    8.87  0.000174  ( 0.001135  0.003266  0.012732)
 50:   3193.57   0.000343    1.73  0.000034  (-0.000086  0.002021  0.005423)
 51:   3198.19   0.000586    2.96  0.000057  ( 0.001245 -0.003524 -0.006575)
 52:   3211.14   0.004659   23.55  0.000453  (-0.013583  0.015473 -0.005374)
 53:   3212.82   0.001501    7.59  0.000146  (-0.001331  0.002666  0.011702)

* The epsilon (eps) is given for a Dirac delta lineshape.
** The dipole moment derivative (T) already includes vibrational overlap.

The first frequency considered to be a vibration is 7
The total number of vibrations considered is 47


--------------------------
THERMOCHEMISTRY AT 298.15K
--------------------------

Temperature         ... 298.15 K
Pressure            ... 1.00 atm
Total Mass          ... 138.15 AMU

Throughout the following assumptions are being made:
  (1) The electronic state is orbitally nondegenerate
  (2) There are no thermally accessible electronically excited states
  (3) Hindered rotations indicated by low frequency modes are not
      treated as such but are treated as vibrations and this may
      cause some error
  (4) All equations used are the standard statistical mechanics
      equations for an ideal gas
  (5) All vibrations are strictly harmonic

freq.      29.73  E(vib)   ...       0.55 
freq.      66.93  E(vib)   ...       0.50 
freq.     202.61  E(vib)   ...       0.35 
freq.     206.76  E(vib)   ...       0.35 
freq.     317.03  E(vib)   ...       0.25 
freq.     344.10  E(vib)   ...       0.23 
freq.     362.45  E(vib)   ...       0.22 
freq.     481.81  E(vib)   ...       0.15 
freq.     489.16  E(vib)   ...       0.15 
freq.     565.17  E(vib)   ...       0.11 
freq.     606.01  E(vib)   ...       0.10 
freq.     631.10  E(vib)   ...       0.09 
freq.     734.22  E(vib)   ...       0.06 
freq.     779.40  E(vib)   ...       0.05 
freq.     800.43  E(vib)   ...       0.05 
freq.     833.48  E(vib)   ...       0.04 
freq.     874.37  E(vib)   ...       0.04 
freq.     901.22  E(vib)   ...       0.03 
freq.     990.84  E(vib)   ...       0.02 
freq.    1003.53  E(vib)   ...       0.02 
freq.    1020.76  E(vib)   ...       0.02 
freq.    1038.52  E(vib)   ...       0.02 
freq.    1050.04  E(vib)   ...       0.02 
freq.    1091.97  E(vib)   ...       0.02 
freq.    1114.72  E(vib)   ...       0.01 
freq.    1158.56  E(vib)   ...       0.01 
freq.    1215.83  E(vib)   ...       0.01 
freq.    1255.56  E(vib)   ...       0.01 
freq.    1324.20  E(vib)   ...       0.01 
freq.    1360.58  E(vib)   ...       0.01 
freq.    1368.26  E(vib)   ...       0.01 
freq.    1391.47  E(vib)   ...       0.00 
freq.    1447.37  E(vib)   ...       0.00 
freq.    1466.25  E(vib)   ...       0.00 
freq.    1483.71  E(vib)   ...       0.00 
freq.    1500.48  E(vib)   ...       0.00 
freq.    1548.06  E(vib)   ...       0.00 
freq.    1656.62  E(vib)   ...       0.00 
freq.    1693.62  E(vib)   ...       0.00 
freq.    2933.79  E(vib)   ...       0.00 
freq.    3006.55  E(vib)   ...       0.00 
freq.    3049.74  E(vib)   ...       0.00 
freq.    3146.64  E(vib)   ...       0.00 
freq.    3193.57  E(vib)   ...       0.00 
freq.    3198.19  E(vib)   ...       0.00 
freq.    3211.14  E(vib)   ...       0.00 
freq.    3212.82  E(vib)   ...       0.00 

------------
INNER ENERGY
------------

The inner energy is: U= E(el) + E(ZPE) + E(vib) + E(rot) + E(trans)
    E(el)   - is the total energy from the electronic structure calculation
              = E(kin-el) + E(nuc-el) + E(el-el) + E(nuc-nuc)
    E(ZPE)  - the the zero temperature vibrational energy from the frequency calculation
    E(vib)  - the the finite temperature correction to E(ZPE) due to population
              of excited vibrational states
    E(rot)  - is the rotational thermal energy
    E(trans)- is the translational thermal energy

Summary of contributions to the inner energy U:
Electronic energy                ...   -476.29988085 Eh
Zero point energy                ...      0.13978695 Eh      87.72 kcal/mol
Thermal vibrational correction   ...      0.00563015 Eh       3.53 kcal/mol
Thermal rotational correction    ...      0.00141627 Eh       0.89 kcal/mol
Thermal translational correction ...      0.00141627 Eh       0.89 kcal/mol
-----------------------------------------------------------------------
Total thermal energy                   -476.15163120 Eh


Summary of corrections to the electronic energy:
(perhaps to be used in another calculation)
Total thermal correction                  0.00846269 Eh       5.31 kcal/mol
Non-thermal (ZPE) correction              0.13978695 Eh      87.72 kcal/mol
-----------------------------------------------------------------------
Total correction                          0.14824964 Eh      93.03 kcal/mol


--------
ENTHALPY
--------

The enthalpy is H = U + kB*T
                kB is Boltzmann's constant
Total free energy                 ...   -476.15163120 Eh 
Thermal Enthalpy correction       ...      0.00094421 Eh       0.59 kcal/mol
-----------------------------------------------------------------------
Total Enthalpy                    ...   -476.15068699 Eh


Note: Only C1 symmetry has been detected, increase convergence thresholds 
      if your molecule has a higher symmetry. Symmetry factor of 1.0 is   
      used for the rotational entropy correction. 
 

Note: Rotational entropy computed according to Herzberg 
Infrared and Raman Spectra, Chapter V,1, Van Nostrand Reinhold, 1945 
Point Group:  C1, Symmetry Number:   1  
Rotational constants in cm-1:     0.112633     0.028034     0.023530 

Vibrational entropy computed according to the QRRHO of S. Grimme
Chem.Eur.J. 2012 18 9955


-------
ENTROPY
-------

The entropy contributions are T*S = T*(S(el)+S(vib)+S(rot)+S(trans))
     S(el)   - electronic entropy
     S(vib)  - vibrational entropy
     S(rot)  - rotational entropy
     S(trans)- translational entropy
The entropies will be listed as multiplied by the temperature to get
units of energy

Electronic entropy                ...      0.00000000 Eh      0.00 kcal/mol
Vibrational entropy               ...      0.00953953 Eh      5.99 kcal/mol
Rotational entropy                ...      0.01399918 Eh      8.78 kcal/mol
Translational entropy             ...      0.01932890 Eh     12.13 kcal/mol
-----------------------------------------------------------------------
Final entropy term                ...      0.04286761 Eh     26.90 kcal/mol

In case the symmetry of your molecule has not been determined correctly
or in case you have a reason to use a different symmetry number we print 
out the resulting rotational entropy values for sn=1,12 :
 --------------------------------------------------------
|  sn= 1 | S(rot)=       0.01399918 Eh      8.78 kcal/mol|
|  sn= 2 | S(rot)=       0.01334473 Eh      8.37 kcal/mol|
|  sn= 3 | S(rot)=       0.01296189 Eh      8.13 kcal/mol|
|  sn= 4 | S(rot)=       0.01269027 Eh      7.96 kcal/mol|
|  sn= 5 | S(rot)=       0.01247958 Eh      7.83 kcal/mol|
|  sn= 6 | S(rot)=       0.01230744 Eh      7.72 kcal/mol|
|  sn= 7 | S(rot)=       0.01216189 Eh      7.63 kcal/mol|
|  sn= 8 | S(rot)=       0.01203581 Eh      7.55 kcal/mol|
|  sn= 9 | S(rot)=       0.01192460 Eh      7.48 kcal/mol|
|  sn=10 | S(rot)=       0.01182512 Eh      7.42 kcal/mol|
|  sn=11 | S(rot)=       0.01173513 Eh      7.36 kcal/mol|
|  sn=12 | S(rot)=       0.01165298 Eh      7.31 kcal/mol|
 --------------------------------------------------------


-------------------
GIBBS FREE ENERGY
-------------------

The Gibbs free energy is G = H - T*S

Total enthalpy                    ...   -476.15068699 Eh 
Total entropy correction          ...     -0.04286761 Eh    -26.90 kcal/mol
-----------------------------------------------------------------------
Final Gibbs free energy         ...   -476.19355461 Eh

For completeness - the Gibbs free energy minus the electronic energy
G-E(el)                           ...      0.10632624 Eh     66.72 kcal/mol


Timings for individual modules:

Sum of individual times         ...    72313.050 sec (=1205.217 min)
GTO integral calculation        ...       45.823 sec (=   0.764 min)   0.1 %
SCF iterations                  ...    58121.623 sec (= 968.694 min)  80.4 %
SCF Gradient evaluation         ...     3665.082 sec (=  61.085 min)   5.1 %
Geometry relaxation             ...        8.438 sec (=   0.141 min)   0.0 %
Analytical frequency calculation...    10472.084 sec (= 174.535 min)  14.5 %
                             ****ORCA TERMINATED NORMALLY****
TOTAL RUN TIME: 0 days 20 hours 5 minutes 33 seconds 938 msec
