
                                 *****************
                                 * O   R   C   A *
                                 *****************

                                            #,                                       
                                            ###                                      
                                            ####                                     
                                            #####                                    
                                            ######                                   
                                           ########,                                 
                                     ,,################,,,,,                         
                               ,,#################################,,                 
                          ,,##########################################,,             
                       ,#########################################, ''#####,          
                    ,#############################################,,   '####,        
                  ,##################################################,,,,####,       
                ,###########''''           ''''###############################       
              ,#####''   ,,,,##########,,,,          '''####'''          '####       
            ,##' ,,,,###########################,,,                        '##       
           ' ,,###''''                  '''############,,,                           
         ,,##''                                '''############,,,,        ,,,,,,###''
      ,#''                                            '''#######################'''  
     '                                                          ''''####''''         
             ,#######,   #######,   ,#######,      ##                                
            ,#'     '#,  ##    ##  ,#'     '#,    #''#        ######   ,####,        
            ##       ##  ##   ,#'  ##            #'  '#       #        #'  '#        
            ##       ##  #######   ##           ,######,      #####,   #    #        
            '#,     ,#'  ##    ##  '#,     ,#' ,#      #,         ##   #,  ,#        
             '#######'   ##     ##  '#######'  #'      '#     #####' # '####'        



                  #######################################################
                  #                        -***-                        #
                  #          Department of theory and spectroscopy      #
                  #    Directorship and core code : Frank Neese         #
                  #        Max Planck Institute fuer Kohlenforschung    #
                  #                Kaiser Wilhelm Platz 1               #
                  #                 D-45470 Muelheim/Ruhr               #
                  #                      Germany                        #
                  #                                                     #
                  #                  All rights reserved                #
                  #                        -***-                        #
                  #######################################################



                         Program Version 5.0.4 -  RELEASE  -

 With contributions from (in alphabetic order):
   Daniel Aravena         : Magnetic Suceptibility
   Michael Atanasov       : Ab Initio Ligand Field Theory (pilot matlab implementation)
   Alexander A. Auer      : GIAO ZORA, VPT2 properties, NMR spectrum
   Ute Becker             : Parallelization
   Giovanni Bistoni       : ED, misc. LED, open-shell LED, HFLD
   Martin Brehm           : Molecular dynamics
   Dmytro Bykov           : SCF Hessian
   Vijay G. Chilkuri      : MRCI spin determinant printing, contributions to CSF-ICE
   Dipayan Datta          : RHF DLPNO-CCSD density
   Achintya Kumar Dutta   : EOM-CC, STEOM-CC
   Dmitry Ganyushin       : Spin-Orbit,Spin-Spin,Magnetic field MRCI
   Miquel Garcia          : C-PCM and meta-GGA Hessian, CC/C-PCM, Gaussian charge scheme
   Yang Guo               : DLPNO-NEVPT2, F12-NEVPT2, CIM, IAO-localization
   Andreas Hansen         : Spin unrestricted coupled pair/coupled cluster methods
   Benjamin Helmich-Paris : MC-RPA, TRAH-SCF, COSX integrals
   Lee Huntington         : MR-EOM, pCC
   Robert Izsak           : Overlap fitted RIJCOSX, COSX-SCS-MP3, EOM
   Marcus Kettner         : VPT2
   Christian Kollmar      : KDIIS, OOCD, Brueckner-CCSD(T), CCSD density, CASPT2, CASPT2-K
   Simone Kossmann        : Meta GGA functionals, TD-DFT gradient, OOMP2, MP2 Hessian
   Martin Krupicka        : Initial AUTO-CI
   Lucas Lang             : DCDCAS
   Marvin Lechner         : AUTO-CI (C++ implementation), FIC-MRCC
   Dagmar Lenk            : GEPOL surface, SMD
   Dimitrios Liakos       : Extrapolation schemes; Compound Job, initial MDCI parallelization
   Dimitrios Manganas     : Further ROCIS development; embedding schemes
   Dimitrios Pantazis     : SARC Basis sets
   Anastasios Papadopoulos: AUTO-CI, single reference methods and gradients
   Taras Petrenko         : DFT Hessian,TD-DFT gradient, ASA, ECA, R-Raman, ABS, FL, XAS/XES, NRVS
   Peter Pinski           : DLPNO-MP2, DLPNO-MP2 Gradient
   Christoph Reimann      : Effective Core Potentials
   Marius Retegan         : Local ZFS, SOC
   Christoph Riplinger    : Optimizer, TS searches, QM/MM, DLPNO-CCSD(T), (RO)-DLPNO pert. Triples
   Tobias Risthaus        : Range-separated hybrids, TD-DFT gradient, RPA, STAB
   Michael Roemelt        : Original ROCIS implementation
   Masaaki Saitow         : Open-shell DLPNO-CCSD energy and density
   Barbara Sandhoefer     : DKH picture change effects
   Avijit Sen             : IP-ROCIS
   Kantharuban Sivalingam : CASSCF convergence, NEVPT2, FIC-MRCI
   Bernardo de Souza      : ESD, SOC TD-DFT
   Georgi Stoychev        : AutoAux, RI-MP2 NMR, DLPNO-MP2 response
   Willem Van den Heuvel  : Paramagnetic NMR
   Boris Wezisla          : Elementary symmetry handling
   Frank Wennmohs         : Technical directorship


 We gratefully acknowledge several colleagues who have allowed us to
 interface, adapt or use parts of their codes:
   Stefan Grimme, W. Hujo, H. Kruse, P. Pracht,  : VdW corrections, initial TS optimization,
                  C. Bannwarth, S. Ehlert          DFT functionals, gCP, sTDA/sTD-DF
   Ed Valeev, F. Pavosevic, A. Kumar             : LibInt (2-el integral package), F12 methods
   Garnet Chan, S. Sharma, J. Yang, R. Olivares  : DMRG
   Ulf Ekstrom                                   : XCFun DFT Library
   Mihaly Kallay                                 : mrcc  (arbitrary order and MRCC methods)
   Jiri Pittner, Ondrej Demel                    : Mk-CCSD
   Frank Weinhold                                : gennbo (NPA and NBO analysis)
   Christopher J. Cramer and Donald G. Truhlar   : smd solvation model
   Lars Goerigk                                  : TD-DFT with DH, B97 family of functionals
   V. Asgeirsson, H. Jonsson                     : NEB implementation
   FAccTs GmbH                                   : IRC, NEB, NEB-TS, DLPNO-Multilevel, CI-OPT
                                                   MM, QMMM, 2- and 3-layer-ONIOM, Crystal-QMMM,
                                                   LR-CPCM, SF, NACMEs, symmetry and pop. for TD-DFT,
                                                   nearIR, NL-DFT gradient (VV10), updates on ESD,
                                                   ML-optimized integration grids
   S Lehtola, MJT Oliveira, MAL Marques          : LibXC Library
   Liviu Ungur et al                             : ANISO software


 Your calculation uses the libint2 library for the computation of 2-el integrals
 For citations please refer to: http://libint.valeyev.net

 Your ORCA version has been built with support for libXC version: 5.1.0
 For citations please refer to: https://tddft.org/programs/libxc/

 This ORCA versions uses:
   CBLAS   interface :  Fast vector & matrix operations
   LAPACKE interface :  Fast linear algebra routines
   Shared memory     :  Shared parallel matrices


Your calculation utilizes the atom-pairwise dispersion correction
based on tight binding partial charges (D4)
Cite in your paper:
E.Caldeweyher, C.Bannwarth, S.Grimme, J.Chem.Phys., (2017), 147, 034112.
E.Caldeweyher, S.Ehlert, A.Hansen, H.Neugebauer, S.Grimme, J.Chem.Phys., (2018), in progress.
   

================================================================================

----- Orbital basis set information -----
Your calculation utilizes the basis: def2-TZVP
   F. Weigend and R. Ahlrichs, Phys. Chem. Chem. Phys. 7, 3297 (2005).

----- AuxJ basis set information -----
Your calculation utilizes the auxiliary basis: def2/J
   F. Weigend, Phys. Chem. Chem. Phys. 8, 1057 (2006).

================================================================================
                                        WARNINGS
                       Please study these warnings very carefully!
================================================================================


WARNING: Geometry Optimization
  ===> : Switching off AutoStart
         For restart on a previous wavefunction, please use MOREAD

INFO   : the flag for use of the SHARK integral package has been found!

================================================================================
                                       INPUT FILE
================================================================================
NAME = educt_optfreq.inp
|  1> !B3LYP/G DEF2-TZVP COPT FREQ D4 SOSCF
|  2> 
|  3> * xyz 1 1
|  4>   C       0.243494      0.591665      2.756312
|  5>   C      -0.299398      0.789729      1.461024
|  6>   C      -0.028268     -0.083655      0.434033
|  7>   C       0.777132     -1.226285      0.668338
|  8>   C       1.311394     -1.451137      1.956418
|  9>   C       1.052377     -0.564576      2.980337
| 10>   C      -0.017038      1.545496      3.876808
| 11>   H       0.929030      2.033835      4.187823
| 12>   H      -0.389773      1.014499      4.770408
| 13>   H      -0.730464      2.333178      3.603560
| 14>   H      -0.987524      1.625196      1.303903
| 15>   H      -0.443604      0.079315     -0.566950
| 16>   H       0.979683     -1.930633     -0.139689
| 17>   H       1.933671     -2.330386      2.133892
| 18>   H       1.463370     -0.738395      3.978152
| 19>   N      -2.000214     -0.733988    -11.153093
| 20>   O      -1.650104     -0.687118    -10.052207
| 21>   O      -2.143765     -0.266741    -12.199068
| 22> **                         ****END OF INPUT****
================================================================================

                       *****************************
                       * Geometry Optimization Run *
                       *****************************

Geometry optimization settings:
Update method            Update   .... BFGS
Choice of coordinates    CoordSys .... Cartesian
Initial Hessian          InHess   .... Unit Matrix

Convergence Tolerances:
Energy Change            TolE     ....  5.0000e-06 Eh
Max. Gradient            TolMAXG  ....  3.0000e-04 Eh/bohr
RMS Gradient             TolRMSG  ....  1.0000e-04 Eh/bohr
Max. Displacement        TolMAXD  ....  4.0000e-03 bohr
RMS Displacement         TolRMSD  ....  2.0000e-03 bohr
Strict Convergence                ....  False
------------------------------------------------------------------------------
                        ORCA OPTIMIZATION COORDINATE SETUP
------------------------------------------------------------------------------

The optimization will be done in cartesian displacement coordinates
Initial hessian                         ....done
Number of atoms                         .... 18
Number of degrees of freedom            .... 54

         *************************************************************
         *                GEOMETRY OPTIMIZATION CYCLE   1            *
         *************************************************************
---------------------------------
CARTESIAN COORDINATES (ANGSTROEM)
---------------------------------
  C      0.243494    0.591665    2.756312
  C     -0.299398    0.789729    1.461024
  C     -0.028268   -0.083655    0.434033
  C      0.777132   -1.226285    0.668338
  C      1.311394   -1.451137    1.956418
  C      1.052377   -0.564576    2.980337
  C     -0.017038    1.545496    3.876808
  H      0.929030    2.033835    4.187823
  H     -0.389773    1.014499    4.770408
  H     -0.730464    2.333178    3.603560
  H     -0.987524    1.625196    1.303903
  H     -0.443604    0.079315   -0.566950
  H      0.979683   -1.930633   -0.139689
  H      1.933671   -2.330386    2.133892
  H      1.463370   -0.738395    3.978152
  N     -2.000214   -0.733988  -11.153093
  O     -1.650104   -0.687118  -10.052207
  O     -2.143765   -0.266741  -12.199068

----------------------------
CARTESIAN COORDINATES (A.U.)
----------------------------
  NO LB      ZA    FRAG     MASS         X           Y           Z
   0 C     6.0000    0    12.011    0.460137    1.118085    5.208675
   1 C     6.0000    0    12.011   -0.565780    1.492372    2.760935
   2 C     6.0000    0    12.011   -0.053419   -0.158085    0.820204
   3 C     6.0000    0    12.011    1.468567   -2.317343    1.262976
   4 C     6.0000    0    12.011    2.478176   -2.742252    3.697094
   5 C     6.0000    0    12.011    1.988704   -1.066894    5.632021
   6 C     6.0000    0    12.011   -0.032197    2.920564    7.326105
   7 H     1.0000    0     1.008    1.755612    3.843391    7.913839
   8 H     1.0000    0     1.008   -0.736564    1.917125    9.014765
   9 H     1.0000    0     1.008   -1.380377    4.409067    6.809742
  10 H     1.0000    0     1.008   -1.866150    3.071175    2.464020
  11 H     1.0000    0     1.008   -0.838290    0.149884   -1.071380
  12 H     1.0000    0     1.008    1.851333   -3.648368   -0.263974
  13 H     1.0000    0     1.008    3.654109   -4.403791    4.032471
  14 H     1.0000    0     1.008    2.765369   -1.395364    7.517618
  15 N     7.0000    0    14.007   -3.779857   -1.387036  -21.076291
  16 O     8.0000    0    15.999   -3.118245   -1.298465  -18.995918
  17 O     8.0000    0    15.999   -4.051129   -0.504067  -23.052898

--------------------------------
INTERNAL COORDINATES (ANGSTROEM)
--------------------------------
 C      0   0   0     0.000000000000     0.00000000     0.00000000
 C      1   0   0     1.418355411984     0.00000000     0.00000000
 C      2   1   0     1.375144211505   121.18923772     0.00000000
 C      3   2   1     1.417452401291   120.03710547     1.73252280
 C      4   3   2     1.412495802807   119.60254486   359.19857460
 C      5   4   3     1.378945369321   120.24773811   359.95736877
 C      1   2   3     1.494383413185   121.93007366   178.70200474
 H      7   1   2     1.109166339991   110.03302956   244.76801617
 H      7   1   2     1.104269058805   111.01948701   127.95570459
 H      7   1   2     1.097307641504   112.63201055     5.27172551
 H      2   1   3     1.093713631901   118.59951363   176.66685935
 H      3   2   1     1.095915224862   120.86133288   180.53351485
 H      4   3   2     1.090889841109   120.23460678   178.91396769
 H      5   4   3     1.091697984520   119.47584674   180.16606925
 H      6   5   4     1.093052178551   120.32961275   179.86917418
 N     12   3   2    10.730839672568   160.86781404   164.92520690
 O     16  12   3     1.156167718800     9.47926671   329.63951206
 O     16  12   3     1.154552012356   151.77590093   228.67728009

---------------------------
INTERNAL COORDINATES (A.U.)
---------------------------
 C      0   0   0     0.000000000000     0.00000000     0.00000000
 C      1   0   0     2.680303289215     0.00000000     0.00000000
 C      2   1   0     2.598645954392   121.18923772     0.00000000
 C      3   2   1     2.678596846309   120.03710547     1.73252280
 C      4   3   2     2.669230232619   119.60254486   359.19857460
 C      5   4   3     2.605829101655   120.24773811   359.95736877
 C      1   2   3     2.823975389993   121.93007366   178.70200474
 H      7   1   2     2.096020619548   110.03302956   244.76801617
 H      7   1   2     2.086766099304   111.01948701   127.95570459
 H      7   1   2     2.073610927102   112.63201055     5.27172551
 H      2   1   3     2.066819233229   118.59951363   176.66685935
 H      3   2   1     2.070979640984   120.86133288   180.53351485
 H      4   3   2     2.061483041972   120.23460678   178.91396769
 H      5   4   3     2.063010211697   119.47584674   180.16606925
 H      6   5   4     2.065569267547   120.32961275   179.86917418
 N     12   3   2    20.278348168171   160.86781404   164.92520690
 O     16  12   3     2.184840353413     9.47926671   329.63951206
 O     16  12   3     2.181787110720   151.77590093   228.67728009

---------------------
BASIS SET INFORMATION
---------------------
There are 4 groups of distinct atoms

 Group   1 Type C   : 11s6p2d1f contracted to 5s3p2d1f pattern {62111/411/11/1}
 Group   2 Type H   : 5s1p contracted to 3s1p pattern {311/1}
 Group   3 Type N   : 11s6p2d1f contracted to 5s3p2d1f pattern {62111/411/11/1}
 Group   4 Type O   : 11s6p2d1f contracted to 5s3p2d1f pattern {62111/411/11/1}

Atom   0C    basis set group =>   1
Atom   1C    basis set group =>   1
Atom   2C    basis set group =>   1
Atom   3C    basis set group =>   1
Atom   4C    basis set group =>   1
Atom   5C    basis set group =>   1
Atom   6C    basis set group =>   1
Atom   7H    basis set group =>   2
Atom   8H    basis set group =>   2
Atom   9H    basis set group =>   2
Atom  10H    basis set group =>   2
Atom  11H    basis set group =>   2
Atom  12H    basis set group =>   2
Atom  13H    basis set group =>   2
Atom  14H    basis set group =>   2
Atom  15N    basis set group =>   3
Atom  16O    basis set group =>   4
Atom  17O    basis set group =>   4
---------------------------------
AUXILIARY/J BASIS SET INFORMATION
---------------------------------
There are 4 groups of distinct atoms

 Group   1 Type C   : 12s5p4d2f1g contracted to 6s4p3d1f1g pattern {711111/2111/211/2/1}
 Group   2 Type H   : 5s2p1d contracted to 3s1p1d pattern {311/2/1}
 Group   3 Type N   : 12s5p4d2f1g contracted to 6s4p3d1f1g pattern {711111/2111/211/2/1}
 Group   4 Type O   : 12s5p4d2f1g contracted to 6s4p3d1f1g pattern {711111/2111/211/2/1}

Atom   0C    basis set group =>   1
Atom   1C    basis set group =>   1
Atom   2C    basis set group =>   1
Atom   3C    basis set group =>   1
Atom   4C    basis set group =>   1
Atom   5C    basis set group =>   1
Atom   6C    basis set group =>   1
Atom   7H    basis set group =>   2
Atom   8H    basis set group =>   2
Atom   9H    basis set group =>   2
Atom  10H    basis set group =>   2
Atom  11H    basis set group =>   2
Atom  12H    basis set group =>   2
Atom  13H    basis set group =>   2
Atom  14H    basis set group =>   2
Atom  15N    basis set group =>   3
Atom  16O    basis set group =>   4
Atom  17O    basis set group =>   4
------------------------------------------------------------------------------
                           ORCA GTO INTEGRAL CALCULATION
                           -- RI-GTO INTEGRALS CHOSEN --
------------------------------------------------------------------------------
------------------------------------------------------------------------------
                   ___                                                        
                  /   \      - P O W E R E D   B Y -                         
                 /     \                                                     
                 |  |  |   _    _      __       _____    __    __             
                 |  |  |  | |  | |    /  \     |  _  \  |  |  /  |          
                  \  \/   | |  | |   /    \    | | | |  |  | /  /          
                 / \  \   | |__| |  /  /\  \   | |_| |  |  |/  /          
                |  |  |   |  __  | /  /__\  \  |    /   |      \           
                |  |  |   | |  | | |   __   |  |    \   |  |\   \          
                \     /   | |  | | |  |  |  |  | |\  \  |  | \   \       
                 \___/    |_|  |_| |__|  |__|  |_| \__\ |__|  \__/        
                                                                              
                      - O R C A' S   B I G   F R I E N D -                    
                                      &                                       
                       - I N T E G R A L  F E E D E R -                       
                                                                              
 v1 FN, 2020, v2 2021                                                         
------------------------------------------------------------------------------


Reading SHARK input file educt_optfreq.SHARKINP.tmp ... ok
----------------------
SHARK INTEGRAL PACKAGE
----------------------

Number of atoms                             ...     18
Number of basis functions                   ...    358
Number of shells                            ...    142
Maximum angular momentum                    ...      3
Integral batch strategy                     ... SHARK/LIBINT Hybrid
RI-J (if used) integral strategy            ... SPLIT-RIJ (Revised 2003 algorithm where possible)
Printlevel                                  ...      1
Contraction scheme used                     ... SEGMENTED contraction
Coulomb Range Separation                    ... NOT USED
Exchange Range Separation                   ... NOT USED
Finite Nucleus Model                        ... NOT USED
Auxiliary Coulomb fitting basis             ... AVAILABLE
   # of basis functions in Aux-J            ...    578
   # of shells in Aux-J                     ...    190
   Maximum angular momentum in Aux-J        ...      4
Auxiliary J/K fitting basis                 ... NOT available
Auxiliary Correlation fitting basis         ... NOT available
Auxiliary 'external' fitting basis          ... NOT available
Integral threshold                          ...     2.500000e-11
Primitive cut-off                           ...     2.500000e-12
Primitive pair pre-selection threshold      ...     2.500000e-12

Calculating pre-screening integrals         ... done (  0.4 sec) Dimension = 142
Organizing shell pair data                  ... done (  0.3 sec)
Shell pair information
Total number of shell pairs                 ...     10153
Shell pairs after pre-screening             ...      6202
Total number of primitive shell pairs       ...     31120
Primitive shell pairs kept                  ...     14656
          la=0 lb=0:   1710 shell pairs
          la=1 lb=0:   1747 shell pairs
          la=1 lb=1:    465 shell pairs
          la=2 lb=0:    885 shell pairs
          la=2 lb=1:    451 shell pairs
          la=2 lb=2:    125 shell pairs
          la=3 lb=0:    441 shell pairs
          la=3 lb=1:    228 shell pairs
          la=3 lb=2:    116 shell pairs
          la=3 lb=3:     34 shell pairs

Calculating one electron integrals          ... done (  0.2 sec)
Calculating RI/J V-Matrix + Cholesky decomp.... done (  0.1 sec)
Calculating Nuclear repulsion               ... done (  0.0 sec) ENN=    379.939791120101 Eh

SHARK setup successfully completed in   2.5 seconds

Maximum memory used throughout the entire GTOINT-calculation: 91.8 MB
-------------------------------------------------------------------------------
                                 ORCA SCF
-------------------------------------------------------------------------------

------------
SCF SETTINGS
------------
Hamiltonian:
 Density Functional     Method          .... DFT(GTOs)
 Exchange Functional    Exchange        .... B88
   X-Alpha parameter    XAlpha          ....  0.666667
   Becke's b parameter  XBeta           ....  0.004200
 Correlation Functional Correlation     .... LYP
 LDA part of GGA corr.  LDAOpt          .... VWN-3
 Gradients option       PostSCFGGA      .... off
 Hybrid DFT is turned on
   Fraction HF Exchange ScalHFX         ....  0.200000
   Scaling of DF-GGA-X  ScalDFX         ....  0.720000
   Scaling of DF-GGA-C  ScalDFC         ....  0.810000
   Scaling of DF-LDA-C  ScalLDAC        ....  1.000000
   Perturbative correction              ....  0.000000
   Density functional embedding theory  .... OFF
   NL short-range parameter             ....  4.800000
 RI-approximation to the Coulomb term is turned on
   Number of AuxJ basis functions       .... 578
   RIJ-COSX (HFX calculated with COS-X)).... on


General Settings:
 Integral files         IntName         .... educt_optfreq
 Hartree-Fock type      HFTyp           .... RHF
 Total Charge           Charge          ....    1
 Multiplicity           Mult            ....    1
 Number of Electrons    NEL             ....   72
 Basis Dimension        Dim             ....  358
 Nuclear Repulsion      ENuc            ....    379.9397911201 Eh

Convergence Acceleration:
 DIIS                   CNVDIIS         .... on
   Start iteration      DIISMaxIt       ....    12
   Startup error        DIISStart       ....  0.200000
   # of expansion vecs  DIISMaxEq       ....     5
   Bias factor          DIISBfac        ....   1.050
   Max. coefficient     DIISMaxC        ....  10.000
 Trust-Rad. Augm. Hess. CNVTRAH         .... auto
   Auto Start mean grad. ratio tolernc. ....  1.125000
   Auto Start start iteration           ....    20
   Auto Start num. interpolation iter.  ....    10
   Max. Number of Micro iterations      ....    16
   Max. Number of Macro iterations      .... Maxiter - #DIIS iter
   Number of Davidson start vectors     ....     2
   Converg. threshold I  (grad. norm)   ....   1.000e-05
   Converg. threshold II (energy diff.) ....   1.000e-08
   Grad. Scal. Fac. for Micro threshold ....   0.100
   Minimum threshold for Micro iter.    ....   0.010
   NR start threshold (gradient norm)   ....   0.001
   Initial trust radius                 ....   0.400
   Minimum AH scaling param. (alpha)    ....   1.000
   Maximum AH scaling param. (alpha)    .... 1000.000
   Orbital update algorithm             .... Taylor
   White noise on init. David. guess    .... on
   Maximum white noise                  ....   0.010
   Quad. conv. algorithm                .... NR
 SOSCF                  CNVSOSCF        .... on
   Start iteration      SOSCFMaxIt      ....   150
   Startup grad/error   SOSCFStart      ....  0.003300
 Level Shifting         CNVShift        .... on
   Level shift para.    LevelShift      ....    0.2500
   Turn off err/grad.   ShiftErr        ....    0.0010
 Zerner damping         CNVZerner       .... off
 Static damping         CNVDamp         .... on
   Fraction old density DampFac         ....    0.7000
   Max. Damping (<1)    DampMax         ....    0.9800
   Min. Damping (>=0)   DampMin         ....    0.0000
   Turn off err/grad.   DampErr         ....    0.1000
 Fernandez-Rico         CNVRico         .... off

SCF Procedure:
 Maximum # iterations   MaxIter         ....   125
 SCF integral mode      SCFMode         .... Direct
   Integral package                     .... SHARK and LIBINT hybrid scheme
 Reset frequency        DirectResetFreq ....    20
 Integral Threshold     Thresh          ....  2.500e-11 Eh
 Primitive CutOff       TCut            ....  2.500e-12 Eh

Convergence Tolerance:
 Convergence Check Mode ConvCheckMode   .... Total+1el-Energy
 Convergence forced     ConvForced      .... 0
 Energy Change          TolE            ....  1.000e-08 Eh
 1-El. energy change                    ....  1.000e-05 Eh
 Orbital Gradient       TolG            ....  1.000e-05
 Orbital Rotation angle TolX            ....  1.000e-05
 DIIS Error             TolErr          ....  5.000e-07


Diagonalization of the overlap matrix:
Smallest eigenvalue                        ... 9.965e-06
Time for diagonalization                   ...    0.085 sec
Threshold for overlap eigenvalues          ... 1.000e-08
Number of eigenvalues below threshold      ... 0
Time for construction of square roots      ...    0.039 sec
Total time needed                          ...    0.125 sec

Time for model grid setup =    1.397 sec

------------------------------
INITIAL GUESS: MODEL POTENTIAL
------------------------------
Loading Hartree-Fock densities                     ... done
Calculating cut-offs                               ... done
Initializing the effective Hamiltonian             ... done
Setting up the integral package (SHARK)            ... done
Starting the Coulomb interaction                   ... done (   3.1 sec)
Reading the grid                                   ... done
Mapping shells                                     ... done
Starting the XC term evaluation                    ... done (   2.3 sec)
  promolecular density results
     # of electrons  =     72.992750477
     EX              =    -61.287680845
     EC              =     -2.469460651
     EX+EC           =    -63.757141495
Transforming the Hamiltonian                       ... done (   0.0 sec)
Diagonalizing the Hamiltonian                      ... done (   0.1 sec)
Back transforming the eigenvectors                 ... done (   0.0 sec)
Now organizing SCF variables                       ... done
                      ------------------
                      INITIAL GUESS DONE (   7.0 sec)
                      ------------------
-------------------
DFT GRID GENERATION
-------------------

General Integration Accuracy     IntAcc      ... 4.388
Radial Grid Type                 RadialGrid  ... OptM3 with GC (2021)
Angular Grid (max. ang.)         AngularGrid ... 4 (Lebedev-302)
Angular grid pruning method      GridPruning ... 4 (adaptive)
Weight generation scheme         WeightScheme... Becke
Basis function cutoff            BFCut       ... 1.0000e-11
Integration weight cutoff        WCut        ... 1.0000e-14
Angular grids for H and He will be reduced by one unit
Partially contracted basis set               ... off
Rotationally invariant grid construction     ... off

Total number of grid points                  ...    86389
Total number of batches                      ...     1360
Average number of points per batch           ...       63
Average number of grid points per atom       ...     4799
Time for grid setup =    5.936 sec

--------------------
COSX GRID GENERATION
--------------------

GRIDX 1
-------
General Integration Accuracy     IntAcc      ... 3.816
Radial Grid Type                 RadialGrid  ... OptM3 with GC (2021)
Angular Grid (max. ang.)         AngularGrid ... 1 (Lebedev-50)
Angular grid pruning method      GridPruning ... 4 (adaptive)
Weight generation scheme         WeightScheme... Becke
Basis function cutoff            BFCut       ... 1.0000e-11
Integration weight cutoff        WCut        ... 1.0000e-14
Angular grids for H and He will be reduced by one unit
Partially contracted basis set               ... on
Rotationally invariant grid construction     ... off

Total number of grid points                  ...    11033
Total number of batches                      ...      179
Average number of points per batch           ...       61
Average number of grid points per atom       ...      613
UseSFitting                                  ... on

GRIDX 2
-------
General Integration Accuracy     IntAcc      ... 4.020
Radial Grid Type                 RadialGrid  ... OptM3 with GC (2021)
Angular Grid (max. ang.)         AngularGrid ... 2 (Lebedev-110)
Angular grid pruning method      GridPruning ... 4 (adaptive)
Weight generation scheme         WeightScheme... Becke
Basis function cutoff            BFCut       ... 1.0000e-11
Integration weight cutoff        WCut        ... 1.0000e-14
Angular grids for H and He will be reduced by one unit
Partially contracted basis set               ... on
Rotationally invariant grid construction     ... off

Total number of grid points                  ...    24401
Total number of batches                      ...      392
Average number of points per batch           ...       62
Average number of grid points per atom       ...     1356
UseSFitting                                  ... on

GRIDX 3
-------
General Integration Accuracy     IntAcc      ... 4.338
Radial Grid Type                 RadialGrid  ... OptM3 with GC (2021)
Angular Grid (max. ang.)         AngularGrid ... 3 (Lebedev-194)
Angular grid pruning method      GridPruning ... 4 (adaptive)
Weight generation scheme         WeightScheme... Becke
Basis function cutoff            BFCut       ... 1.0000e-11
Integration weight cutoff        WCut        ... 1.0000e-14
Angular grids for H and He will be reduced by one unit
Partially contracted basis set               ... on
Rotationally invariant grid construction     ... off

Total number of grid points                  ...    53811
Total number of batches                      ...      852
Average number of points per batch           ...       63
Average number of grid points per atom       ...     2990
UseSFitting                                  ... on

Time for X-Grid setup             =    6.312 sec

--------------
SCF ITERATIONS
--------------
ITER       Energy         Delta-E        Max-DP      RMS-DP      [F,P]     Damp
               ***  Starting incremental Fock matrix formation  ***
  0   -476.1309860073   0.000000000000 0.15924611  0.00189851  0.2011492 0.7000
  1   -476.1580659939  -0.027079986591 0.04051003  0.00071906  0.1340961 0.7000
                               ***Turning on DIIS***
  2   -476.3339944727  -0.175928478773 0.08824237  0.00154749  0.0332342 0.0000
  3   -476.3786133789  -0.044618906217 0.00445493  0.00010177  0.1308505 0.7000
  4   -476.3917890939  -0.013175714985 0.00453171  0.00011435  0.1159623 0.7000
  5   -476.4039180363  -0.012128942433 0.00486308  0.00012732  0.1014592 0.7000
  6   -476.4148832068  -0.010965170476 0.02002784  0.00051896  0.0859462 0.0000
  7   -476.4447119973  -0.029828790540 0.01159290  0.00033422  0.0320228 0.0000
  8   -476.4487892385  -0.004077241202 0.00453637  0.00014114  0.0082024 0.0000
  9   -476.4489534149  -0.000164176399 0.00252273  0.00005843  0.0080963 0.0000
                      *** Initiating the SOSCF procedure ***
                           *** Shutting down DIIS ***
                      *** Re-Reading the Fockian *** 
                      *** Removing any level shift *** 
ITER      Energy       Delta-E        Grad      Rot      Max-DP    RMS-DP
 10   -476.44907398  -0.0001205637  0.000509  0.000509  0.000753  0.000023
               *** Restarting incremental Fock matrix formation ***
 11   -476.44908201  -0.0000080340  0.000445  0.001568  0.001053  0.000019
 12   -476.44907153   0.0000104866  0.001818  0.001228  0.000777  0.000007
 13   -476.44908287  -0.0000113472  0.000121  0.000238  0.000175  0.000003
 14   -476.44908255   0.0000003197  0.000298  0.000176  0.000135  0.000002
 15   -476.44908296  -0.0000004114  0.000016  0.000018  0.000038  0.000001
 16   -476.44908297  -0.0000000017  0.000012  0.000014  0.000014  0.000000
                  ***Gradient check signals convergence***
              ***Rediagonalizing the Fockian in SOSCF/NRSCF***

               *****************************************************
               *                     SUCCESS                       *
               *           SCF CONVERGED AFTER  17 CYCLES          *
               *****************************************************

Old exchange energy                            =    -12.308431396 Eh
New exchange energy                            =    -12.308432392 Eh
Exchange energy change after final integration =     -0.000000996 Eh
Total energy after final integration           =   -476.449083963 Eh
Final COS-X integration done in                =    82.315 sec

----------------
TOTAL SCF ENERGY
----------------

Total Energy       :         -476.44908396 Eh          -12964.83869 eV

Components:
Nuclear Repulsion  :          379.93979112 Eh           10338.68733 eV
Electronic Energy  :         -856.38887508 Eh          -23303.52602 eV
One Electron Energy:        -1387.13200242 Eh          -37745.78074 eV
Two Electron Energy:          530.74312734 Eh           14442.25473 eV
Max COSX asymmetry :            0.00000142 Eh               0.00004 eV

Virial components:
Potential Energy   :         -950.13673974 Eh          -25854.53511 eV
Kinetic Energy     :          473.68765577 Eh           12889.69641 eV
Virial Ratio       :            2.00582964


DFT components:
N(Alpha)           :       35.999997164723 electrons
N(Beta)            :       35.999997164723 electrons
N(Total)           :       71.999994329446 electrons
E(X)               :      -49.052070429475 Eh       
E(C)               :       -3.148037859788 Eh       
E(XC)              :      -52.200108289264 Eh       
DFET-embed. en.    :        0.000000000000 Eh       

---------------
SCF CONVERGENCE
---------------

  Last Energy change         ...   -1.6018e-10  Tolerance :   1.0000e-08
  Last MAX-Density change    ...    1.1102e-15  Tolerance :   1.0000e-07
  Last RMS-Density change    ...    1.6526e-17  Tolerance :   5.0000e-09
  Last Orbital Gradient      ...    2.2320e-06  Tolerance :   1.0000e-05
  Last Orbital Rotation      ...    8.5229e-06  Tolerance :   1.0000e-05

             **** THE GBW FILE WAS UPDATED (educt_optfreq.gbw) ****
             **** DENSITY educt_optfreq.scfp WAS UPDATED ****
             **** ENERGY FILE WAS UPDATED (educt_optfreq.en.tmp) ****
             **** THE GBW FILE WAS UPDATED (educt_optfreq.gbw) ****
             **** DENSITY educt_optfreq.scfp WAS UPDATED ****
----------------
ORBITAL ENERGIES
----------------

  NO   OCC          E(Eh)            E(eV) 
   0   2.0000     -19.659920      -534.9736 
   1   2.0000     -19.659492      -534.9620 
   2   2.0000     -14.988195      -407.8495 
   3   2.0000     -10.228809      -278.3400 
   4   2.0000     -10.219089      -278.0755 
   5   2.0000     -10.218296      -278.0540 
   6   2.0000     -10.216759      -278.0122 
   7   2.0000     -10.214772      -277.9581 
   8   2.0000     -10.214218      -277.9430 
   9   2.0000     -10.209568      -277.8165 
  10   2.0000      -1.691819       -46.0367 
  11   2.0000      -1.569693       -42.7135 
  12   2.0000      -1.023325       -27.8461 
  13   2.0000      -0.963548       -26.2195 
  14   2.0000      -0.961748       -26.1705 
  15   2.0000      -0.942823       -25.6555 
  16   2.0000      -0.893514       -24.3137 
  17   2.0000      -0.808969       -22.0132 
  18   2.0000      -0.788484       -21.4558 
  19   2.0000      -0.758073       -20.6282 
  20   2.0000      -0.753481       -20.5033 
  21   2.0000      -0.722041       -19.6477 
  22   2.0000      -0.641617       -17.4593 
  23   2.0000      -0.625027       -17.0078 
  24   2.0000      -0.550469       -14.9790 
  25   2.0000      -0.501672       -13.6512 
  26   2.0000      -0.496184       -13.5019 
  27   2.0000      -0.464250       -12.6329 
  28   2.0000      -0.457985       -12.4624 
  29   2.0000      -0.446221       -12.1423 
  30   2.0000      -0.426393       -11.6027 
  31   2.0000      -0.395582       -10.7643 
  32   2.0000      -0.389493       -10.5986 
  33   2.0000      -0.377037       -10.2597 
  34   2.0000      -0.300077        -8.1655 
  35   2.0000      -0.280195        -7.6245 
  36   0.0000      -0.499461       -13.5910 
  37   0.0000      -0.437425       -11.9030 
  38   0.0000      -0.214399        -5.8341 
  39   0.0000      -0.058811        -1.6003 
  40   0.0000      -0.050231        -1.3669 
  41   0.0000      -0.049301        -1.3415 
  42   0.0000      -0.014373        -0.3911 
  43   0.0000       0.002924         0.0796 
  44   0.0000       0.008512         0.2316 
  45   0.0000       0.010868         0.2957 
  46   0.0000       0.015652         0.4259 
  47   0.0000       0.032020         0.8713 
  48   0.0000       0.051328         1.3967 
  49   0.0000       0.059861         1.6289 
  50   0.0000       0.067689         1.8419 
  51   0.0000       0.076039         2.0691 
  52   0.0000       0.089614         2.4385 
  53   0.0000       0.111391         3.0311 
  54   0.0000       0.116622         3.1735 
  55   0.0000       0.119596         3.2544 
  56   0.0000       0.120427         3.2770 
  57   0.0000       0.122923         3.3449 
  58   0.0000       0.146760         3.9935 
  59   0.0000       0.153504         4.1771 
  60   0.0000       0.173801         4.7294 
  61   0.0000       0.179869         4.8945 
  62   0.0000       0.185650         5.0518 
  63   0.0000       0.188977         5.1423 
  64   0.0000       0.193946         5.2775 
  65   0.0000       0.205862         5.6018 
  66   0.0000       0.214356         5.8329 
  67   0.0000       0.216373         5.8878 
  68   0.0000       0.229364         6.2413 
  69   0.0000       0.249340         6.7849 
  70   0.0000       0.249504         6.7894 
  71   0.0000       0.257117         6.9965 
  72   0.0000       0.265258         7.2180 
  73   0.0000       0.270120         7.3503 
  74   0.0000       0.284747         7.7484 
  75   0.0000       0.296669         8.0728 
  76   0.0000       0.305485         8.3127 
  77   0.0000       0.308379         8.3914 
  78   0.0000       0.315232         8.5779 
  79   0.0000       0.316109         8.6018 
  80   0.0000       0.328203         8.9308 
  81   0.0000       0.360271         9.8035 
  82   0.0000       0.370102        10.0710 
  83   0.0000       0.374195        10.1824 
  84   0.0000       0.378932        10.3113 
  85   0.0000       0.384491        10.4625 
  86   0.0000       0.399682        10.8759 
  87   0.0000       0.409402        11.1404 
  88   0.0000       0.420001        11.4288 
  89   0.0000       0.432001        11.7554 
  90   0.0000       0.447513        12.1774 
  91   0.0000       0.451267        12.2796 
  92   0.0000       0.454725        12.3737 
  93   0.0000       0.468846        12.7579 
  94   0.0000       0.475318        12.9341 
  95   0.0000       0.475745        12.9457 
  96   0.0000       0.508300        13.8315 
  97   0.0000       0.518597        14.1117 
  98   0.0000       0.532206        14.4821 
  99   0.0000       0.573984        15.6189 
 100   0.0000       0.593844        16.1593 
 101   0.0000       0.598077        16.2745 
 102   0.0000       0.609128        16.5752 
 103   0.0000       0.609891        16.5960 
 104   0.0000       0.619163        16.8483 
 105   0.0000       0.628581        17.1046 
 106   0.0000       0.652115        17.7450 
 107   0.0000       0.672011        18.2864 
 108   0.0000       0.688947        18.7472 
 109   0.0000       0.720237        19.5986 
 110   0.0000       0.733492        19.9593 
 111   0.0000       0.755767        20.5655 
 112   0.0000       0.769646        20.9431 
 113   0.0000       0.772677        21.0256 
 114   0.0000       0.790380        21.5073 
 115   0.0000       0.800798        21.7908 
 116   0.0000       0.834263        22.7015 
 117   0.0000       0.844011        22.9667 
 118   0.0000       0.883537        24.0423 
 119   0.0000       0.894220        24.3330 
 120   0.0000       0.902305        24.5530 
 121   0.0000       0.917897        24.9772 
 122   0.0000       0.955580        26.0026 
 123   0.0000       0.958331        26.0775 
 124   0.0000       0.969550        26.3828 
 125   0.0000       1.011238        27.5172 
 126   0.0000       1.039116        28.2758 
 127   0.0000       1.053927        28.6788 
 128   0.0000       1.066447        29.0195 
 129   0.0000       1.073090        29.2003 
 130   0.0000       1.076419        29.2908 
 131   0.0000       1.084226        29.5033 
 132   0.0000       1.151898        31.3447 
 133   0.0000       1.158167        31.5153 
 134   0.0000       1.172306        31.9001 
 135   0.0000       1.174425        31.9577 
 136   0.0000       1.184509        32.2321 
 137   0.0000       1.196226        32.5510 
 138   0.0000       1.203703        32.7544 
 139   0.0000       1.213031        33.0083 
 140   0.0000       1.241654        33.7871 
 141   0.0000       1.257037        34.2057 
 142   0.0000       1.267664        34.4949 
 143   0.0000       1.277404        34.7599 
 144   0.0000       1.301052        35.4034 
 145   0.0000       1.330250        36.1980 
 146   0.0000       1.363536        37.1037 
 147   0.0000       1.392374        37.8884 
 148   0.0000       1.411278        38.4028 
 149   0.0000       1.417802        38.5804 
 150   0.0000       1.435087        39.0507 
 151   0.0000       1.462315        39.7916 
 152   0.0000       1.468927        39.9715 
 153   0.0000       1.471999        40.0551 
 154   0.0000       1.480174        40.2776 
 155   0.0000       1.497948        40.7612 
 156   0.0000       1.501335        40.8534 
 157   0.0000       1.513013        41.1712 
 158   0.0000       1.522376        41.4259 
 159   0.0000       1.560040        42.4509 
 160   0.0000       1.565195        42.5911 
 161   0.0000       1.575732        42.8779 
 162   0.0000       1.585579        43.1458 
 163   0.0000       1.619220        44.0612 
 164   0.0000       1.622111        44.1399 
 165   0.0000       1.638383        44.5827 
 166   0.0000       1.642829        44.7036 
 167   0.0000       1.653132        44.9840 
 168   0.0000       1.663506        45.2663 
 169   0.0000       1.681510        45.7562 
 170   0.0000       1.691737        46.0345 
 171   0.0000       1.697538        46.1924 
 172   0.0000       1.764004        48.0010 
 173   0.0000       1.798515        48.9401 
 174   0.0000       1.807149        49.1750 
 175   0.0000       1.810621        49.2695 
 176   0.0000       1.834368        49.9157 
 177   0.0000       1.847364        50.2693 
 178   0.0000       1.894770        51.5593 
 179   0.0000       1.909171        51.9512 
 180   0.0000       1.943781        52.8930 
 181   0.0000       1.960109        53.3373 
 182   0.0000       2.006699        54.6051 
 183   0.0000       2.012167        54.7539 
 184   0.0000       2.013439        54.7884 
 185   0.0000       2.027832        55.1801 
 186   0.0000       2.040248        55.5180 
 187   0.0000       2.041697        55.5574 
 188   0.0000       2.081818        56.6492 
 189   0.0000       2.094024        56.9813 
 190   0.0000       2.104597        57.2690 
 191   0.0000       2.155053        58.6420 
 192   0.0000       2.176872        59.2357 
 193   0.0000       2.191071        59.6221 
 194   0.0000       2.206650        60.0460 
 195   0.0000       2.228858        60.6503 
 196   0.0000       2.286267        62.2125 
 197   0.0000       2.288421        62.2711 
 198   0.0000       2.317958        63.0748 
 199   0.0000       2.349658        63.9375 
 200   0.0000       2.413620        65.6779 
 201   0.0000       2.427436        66.0539 
 202   0.0000       2.456259        66.8382 
 203   0.0000       2.462988        67.0213 
 204   0.0000       2.471973        67.2658 
 205   0.0000       2.482094        67.5412 
 206   0.0000       2.501296        68.0637 
 207   0.0000       2.504778        68.1585 
 208   0.0000       2.507930        68.2443 
 209   0.0000       2.517982        68.5178 
 210   0.0000       2.546830        69.3028 
 211   0.0000       2.553213        69.4765 
 212   0.0000       2.560605        69.6776 
 213   0.0000       2.590848        70.5006 
 214   0.0000       2.609984        71.0213 
 215   0.0000       2.624342        71.4120 
 216   0.0000       2.629182        71.5437 
 217   0.0000       2.639031        71.8117 
 218   0.0000       2.664065        72.4929 
 219   0.0000       2.664066        72.4929 
 220   0.0000       2.681339        72.9629 
 221   0.0000       2.705540        73.6215 
 222   0.0000       2.717541        73.9480 
 223   0.0000       2.725403        74.1620 
 224   0.0000       2.735936        74.4486 
 225   0.0000       2.744926        74.6932 
 226   0.0000       2.768149        75.3252 
 227   0.0000       2.776979        75.5654 
 228   0.0000       2.787246        75.8448 
 229   0.0000       2.795732        76.0757 
 230   0.0000       2.845553        77.4314 
 231   0.0000       2.849407        77.5363 
 232   0.0000       2.899879        78.9097 
 233   0.0000       2.934926        79.8634 
 234   0.0000       2.942622        80.0728 
 235   0.0000       2.970377        80.8281 
 236   0.0000       2.983493        81.1850 
 237   0.0000       2.988012        81.3079 
 238   0.0000       3.048450        82.9526 
 239   0.0000       3.057042        83.1864 
 240   0.0000       3.064450        83.3879 
 241   0.0000       3.077460        83.7419 
 242   0.0000       3.101362        84.3923 
 243   0.0000       3.115946        84.7892 
 244   0.0000       3.129828        85.1670 
 245   0.0000       3.142619        85.5150 
 246   0.0000       3.161709        86.0345 
 247   0.0000       3.174618        86.3857 
 248   0.0000       3.186943        86.7211 
 249   0.0000       3.198194        87.0273 
 250   0.0000       3.219757        87.6141 
 251   0.0000       3.249472        88.4226 
 252   0.0000       3.266670        88.8906 
 253   0.0000       3.275171        89.1219 
 254   0.0000       3.295767        89.6824 
 255   0.0000       3.307434        89.9998 
 256   0.0000       3.318287        90.2952 
 257   0.0000       3.319846        90.3376 
 258   0.0000       3.322384        90.4067 
 259   0.0000       3.340549        90.9010 
 260   0.0000       3.351075        91.1874 
 261   0.0000       3.358389        91.3864 
 262   0.0000       3.360556        91.4454 
 263   0.0000       3.414680        92.9182 
 264   0.0000       3.415241        92.9334 
 265   0.0000       3.425341        93.2083 
 266   0.0000       3.435082        93.4733 
 267   0.0000       3.447730        93.8175 
 268   0.0000       3.495607        95.1203 
 269   0.0000       3.501974        95.2935 
 270   0.0000       3.549766        96.5940 
 271   0.0000       3.555483        96.7496 
 272   0.0000       3.626103        98.6713 
 273   0.0000       3.647204        99.2455 
 274   0.0000       3.670298        99.8739 
 275   0.0000       3.681665       100.1832 
 276   0.0000       3.707127       100.8761 
 277   0.0000       3.724698       101.3542 
 278   0.0000       3.769885       102.5838 
 279   0.0000       3.804978       103.5387 
 280   0.0000       3.830647       104.2372 
 281   0.0000       3.834723       104.3481 
 282   0.0000       3.845198       104.6331 
 283   0.0000       3.846243       104.6616 
 284   0.0000       3.847645       104.6998 
 285   0.0000       3.866475       105.2121 
 286   0.0000       3.893652       105.9517 
 287   0.0000       3.942453       107.2796 
 288   0.0000       3.985900       108.4619 
 289   0.0000       3.992590       108.6439 
 290   0.0000       4.024154       109.5028 
 291   0.0000       4.046386       110.1078 
 292   0.0000       4.057189       110.4017 
 293   0.0000       4.098086       111.5146 
 294   0.0000       4.117211       112.0350 
 295   0.0000       4.127763       112.3221 
 296   0.0000       4.152602       112.9980 
 297   0.0000       4.160771       113.2203 
 298   0.0000       4.186640       113.9243 
 299   0.0000       4.199938       114.2861 
 300   0.0000       4.219718       114.8244 
 301   0.0000       4.220609       114.8486 
 302   0.0000       4.245730       115.5322 
 303   0.0000       4.278391       116.4209 
 304   0.0000       4.373338       119.0046 
 305   0.0000       4.385625       119.3389 
 306   0.0000       4.438791       120.7857 
 307   0.0000       4.470000       121.6349 
 308   0.0000       4.535031       123.4045 
 309   0.0000       4.599394       125.1559 
 310   0.0000       4.619997       125.7165 
 311   0.0000       4.630440       126.0007 
 312   0.0000       4.642483       126.3284 
 313   0.0000       4.651790       126.5817 
 314   0.0000       4.674370       127.1961 
 315   0.0000       4.675503       127.2269 
 316   0.0000       4.715723       128.3213 
 317   0.0000       4.718913       128.4081 
 318   0.0000       4.789575       130.3310 
 319   0.0000       4.814236       131.0020 
 320   0.0000       4.906265       133.5063 
 321   0.0000       4.952357       134.7605 
 322   0.0000       4.968487       135.1994 
 323   0.0000       4.989643       135.7751 
 324   0.0000       5.121764       139.3703 
 325   0.0000       5.142334       139.9300 
 326   0.0000       5.276188       143.5724 
 327   0.0000       5.281074       143.7053 
 328   0.0000       5.332297       145.0992 
 329   0.0000       5.371824       146.1748 
 330   0.0000       5.387527       146.6021 
 331   0.0000       5.585467       151.9883 
 332   0.0000       5.728514       155.8808 
 333   0.0000       5.778791       157.2489 
 334   0.0000       5.816978       158.2880 
 335   0.0000       5.823090       158.4543 
 336   0.0000       5.854455       159.3078 
 337   0.0000       5.910339       160.8285 
 338   0.0000       6.105510       166.1394 
 339   0.0000       6.133636       166.9047 
 340   0.0000       6.149355       167.3325 
 341   0.0000       6.461276       175.8203 
 342   0.0000       6.604204       179.7095 
 343   0.0000       6.655527       181.1061 
 344   0.0000       6.906872       187.9455 
 345   0.0000       6.913008       188.1125 
 346   0.0000       7.252925       197.3621 
 347   0.0000       7.460618       203.0137 
 348   0.0000      21.862157       594.8995 
 349   0.0000      22.316119       607.2525 
 350   0.0000      22.471292       611.4750 
 351   0.0000      22.495637       612.1374 
 352   0.0000      22.617403       615.4508 
 353   0.0000      22.685666       617.3083 
 354   0.0000      23.054843       627.3542 
 355   0.0000      31.817393       865.7953 
 356   0.0000      43.489580      1183.4116 
 357   0.0000      43.542641      1184.8555 

                    ********************************
                    * MULLIKEN POPULATION ANALYSIS *
                    ********************************

-----------------------
MULLIKEN ATOMIC CHARGES
-----------------------
   0 C :    0.164028
   1 C :   -0.174135
   2 C :   -0.095348
   3 C :   -0.121145
   4 C :   -0.097345
   5 C :   -0.179364
   6 C :   -0.357521
   7 H :    0.122718
   8 H :    0.122491
   9 H :    0.111128
  10 H :    0.098201
  11 H :    0.089117
  12 H :    0.099201
  13 H :    0.108538
  14 H :    0.109436
  15 N :    0.758031
  16 O :    0.120782
  17 O :    0.121187
Sum of atomic charges:    1.0000000

--------------------------------
MULLIKEN REDUCED ORBITAL CHARGES
--------------------------------
  0 C s       :     3.178532  s :     3.178532
      pz      :     0.829949  p :     2.523451
      px      :     0.879137
      py      :     0.814364
      dz2     :     0.030632  d :     0.124353
      dxz     :     0.022356
      dyz     :     0.030417
      dx2y2   :     0.019149
      dxy     :     0.021799
      f0      :     0.001954  f :     0.009637
      f+1     :     0.001115
      f-1     :     0.001763
      f+2     :     0.001063
      f-2     :     0.001700
      f+3     :     0.000754
      f-3     :     0.001289
  1 C s       :     3.215183  s :     3.215183
      pz      :     0.913303  p :     2.870860
      px      :     0.946375
      py      :     1.011182
      dz2     :     0.025124  d :     0.080821
      dxz     :     0.019592
      dyz     :     0.018707
      dx2y2   :     0.005408
      dxy     :     0.011990
      f0      :     0.001566  f :     0.007271
      f+1     :     0.000996
      f-1     :     0.001428
      f+2     :     0.000883
      f-2     :     0.001206
      f+3     :     0.000622
      f-3     :     0.000571
  2 C s       :     3.193785  s :     3.193785
      pz      :     0.934198  p :     2.814057
      px      :     0.959302
      py      :     0.920557
      dz2     :     0.018502  d :     0.080224
      dxz     :     0.012938
      dyz     :     0.015443
      dx2y2   :     0.019424
      dxy     :     0.013916
      f0      :     0.001276  f :     0.007282
      f+1     :     0.000966
      f-1     :     0.000925
      f+2     :     0.000670
      f-2     :     0.001332
      f+3     :     0.000701
      f-3     :     0.001412
  3 C s       :     3.211387  s :     3.211387
      pz      :     0.934452  p :     2.828129
      px      :     0.953704
      py      :     0.939973
      dz2     :     0.014271  d :     0.074536
      dxz     :     0.013861
      dyz     :     0.022330
      dx2y2   :     0.014762
      dxy     :     0.009313
      f0      :     0.001330  f :     0.007093
      f+1     :     0.000874
      f-1     :     0.001322
      f+2     :     0.000623
      f-2     :     0.001044
      f+3     :     0.000601
      f-3     :     0.001299
  4 C s       :     3.194025  s :     3.194025
      pz      :     0.906131  p :     2.816101
      px      :     0.963868
      py      :     0.946101
      dz2     :     0.024448  d :     0.079925
      dxz     :     0.020041
      dyz     :     0.018741
      dx2y2   :     0.006023
      dxy     :     0.010672
      f0      :     0.001549  f :     0.007294
      f+1     :     0.000959
      f-1     :     0.001394
      f+2     :     0.000948
      f-2     :     0.001208
      f+3     :     0.000691
      f-3     :     0.000545
  5 C s       :     3.243836  s :     3.243836
      pz      :     0.973422  p :     2.852638
      px      :     0.960446
      py      :     0.918769
      dz2     :     0.019186  d :     0.075721
      dxz     :     0.012581
      dyz     :     0.013165
      dx2y2   :     0.016934
      dxy     :     0.013855
      f0      :     0.001264  f :     0.007169
      f+1     :     0.000903
      f-1     :     0.000920
      f+2     :     0.000637
      f-2     :     0.001381
      f+3     :     0.000707
      f-3     :     0.001357
  6 C s       :     3.315431  s :     3.315431
      pz      :     0.972519  p :     2.990268
      px      :     1.041851
      py      :     0.975898
      dz2     :     0.013585  d :     0.048154
      dxz     :     0.011141
      dyz     :     0.007204
      dx2y2   :     0.004922
      dxy     :     0.011301
      f0      :     0.000472  f :     0.003669
      f+1     :     0.000160
      f-1     :     0.001056
      f+2     :     0.000351
      f-2     :     0.001015
      f+3     :     0.000166
      f-3     :     0.000448
  7 H s       :     0.856257  s :     0.856257
      pz      :     0.005070  p :     0.021025
      px      :     0.009998
      py      :     0.005957
  8 H s       :     0.856447  s :     0.856447
      pz      :     0.010035  p :     0.021062
      px      :     0.005236
      py      :     0.005791
  9 H s       :     0.867441  s :     0.867441
      pz      :     0.004472  p :     0.021432
      px      :     0.007904
      py      :     0.009056
 10 H s       :     0.879835  s :     0.879835
      pz      :     0.003751  p :     0.021965
      px      :     0.008305
      py      :     0.009909
 11 H s       :     0.889012  s :     0.889012
      pz      :     0.012017  p :     0.021871
      px      :     0.005786
      py      :     0.004069
 12 H s       :     0.878591  s :     0.878591
      pz      :     0.009153  p :     0.022208
      px      :     0.004868
      py      :     0.008187
 13 H s       :     0.869394  s :     0.869394
      pz      :     0.003863  p :     0.022068
      px      :     0.007668
      py      :     0.010536
 14 H s       :     0.868565  s :     0.868565
      pz      :     0.012104  p :     0.021998
      px      :     0.005790
      py      :     0.004105
 15 N s       :     3.132524  s :     3.132524
      pz      :     0.836880  p :     2.915725
      px      :     1.036060
      py      :     1.042786
      dz2     :     0.028902  d :     0.175501
      dxz     :     0.066869
      dyz     :     0.062339
      dx2y2   :     0.008603
      dxy     :     0.008787
      f0      :     0.005954  f :     0.018219
      f+1     :     0.004081
      f-1     :     0.004410
      f+2     :     0.001677
      f-2     :     0.001844
      f+3     :     0.000124
      f-3     :     0.000128
 16 O s       :     3.942330  s :     3.942330
      pz      :     1.133861  p :     3.878273
      px      :     1.359493
      py      :     1.384919
      dz2     :     0.020867  d :     0.054899
      dxz     :     0.016750
      dyz     :     0.014348
      dx2y2   :     0.001490
      dxy     :     0.001443
      f0      :     0.001246  f :     0.003717
      f+1     :     0.001067
      f-1     :     0.000892
      f+2     :     0.000248
      f-2     :     0.000244
      f+3     :     0.000010
      f-3     :     0.000009
 17 O s       :     3.942121  s :     3.942121
      pz      :     1.198969  p :     3.877934
      px      :     1.414883
      py      :     1.264083
      dz2     :     0.018452  d :     0.055032
      dxz     :     0.013125
      dyz     :     0.017719
      dx2y2   :     0.002932
      dxy     :     0.002805
      f0      :     0.001068  f :     0.003726
      f+1     :     0.000703
      f-1     :     0.001031
      f+2     :     0.000430
      f-2     :     0.000423
      f+3     :     0.000036
      f-3     :     0.000036


                     *******************************
                     * LOEWDIN POPULATION ANALYSIS *
                     *******************************

----------------------
LOEWDIN ATOMIC CHARGES
----------------------
   0 C :   -0.152320
   1 C :   -0.128967
   2 C :   -0.151801
   3 C :   -0.143145
   4 C :   -0.145773
   5 C :   -0.115333
   6 C :   -0.260851
   7 H :    0.133985
   8 H :    0.131675
   9 H :    0.125090
  10 H :    0.143274
  11 H :    0.138733
  12 H :    0.136355
  13 H :    0.143316
  14 H :    0.145762
  15 N :    0.189519
  16 O :    0.404383
  17 O :    0.406097

-------------------------------
LOEWDIN REDUCED ORBITAL CHARGES
-------------------------------
  0 C s       :     2.727526  s :     2.727526
      pz      :     1.004491  p :     2.863669
      px      :     0.897908
      py      :     0.961270
      dz2     :     0.123177  d :     0.506750
      dxz     :     0.097835
      dyz     :     0.138192
      dx2y2   :     0.073415
      dxy     :     0.074133
      f0      :     0.011958  f :     0.054373
      f+1     :     0.006677
      f-1     :     0.009940
      f+2     :     0.005565
      f-2     :     0.009945
      f+3     :     0.005153
      f-3     :     0.005136
  1 C s       :     2.764904  s :     2.764904
      pz      :     1.038395  p :     2.941902
      px      :     0.932489
      py      :     0.971018
      dz2     :     0.128652  d :     0.380048
      dxz     :     0.077572
      dyz     :     0.093976
      dx2y2   :     0.020795
      dxy     :     0.059053
      f0      :     0.009132  f :     0.042114
      f+1     :     0.005275
      f-1     :     0.009242
      f+2     :     0.006540
      f-2     :     0.007124
      f+3     :     0.003002
      f-3     :     0.001800
  2 C s       :     2.771951  s :     2.771951
      pz      :     0.995743  p :     2.951526
      px      :     0.938488
      py      :     1.017295
      dz2     :     0.098330  d :     0.385728
      dxz     :     0.064225
      dyz     :     0.083943
      dx2y2   :     0.073046
      dxy     :     0.066183
      f0      :     0.007703  f :     0.042596
      f+1     :     0.004392
      f-1     :     0.007358
      f+2     :     0.005105
      f-2     :     0.008110
      f+3     :     0.005328
      f-3     :     0.004600
  3 C s       :     2.778960  s :     2.778960
      pz      :     1.013513  p :     2.957029
      px      :     0.955958
      py      :     0.987558
      dz2     :     0.076350  d :     0.367222
      dxz     :     0.065868
      dyz     :     0.123243
      dx2y2   :     0.055015
      dxy     :     0.046747
      f0      :     0.008757  f :     0.039934
      f+1     :     0.005603
      f-1     :     0.007216
      f+2     :     0.002733
      f-2     :     0.006291
      f+3     :     0.004441
      f-3     :     0.004893
  4 C s       :     2.771596  s :     2.771596
      pz      :     1.055883  p :     2.946134
      px      :     0.919697
      py      :     0.970555
      dz2     :     0.129925  d :     0.385391
      dxz     :     0.081007
      dyz     :     0.096490
      dx2y2   :     0.022777
      dxy     :     0.055192
      f0      :     0.009267  f :     0.042652
      f+1     :     0.005189
      f-1     :     0.009377
      f+2     :     0.006751
      f-2     :     0.007287
      f+3     :     0.003272
      f-3     :     0.001510
  5 C s       :     2.767873  s :     2.767873
      pz      :     0.997522  p :     2.934083
      px      :     0.934259
      py      :     1.002302
      dz2     :     0.097772  d :     0.372125
      dxz     :     0.060635
      dyz     :     0.084375
      dx2y2   :     0.065995
      dxy     :     0.063346
      f0      :     0.007533  f :     0.041252
      f+1     :     0.004105
      f-1     :     0.007291
      f+2     :     0.004839
      f-2     :     0.007893
      f+3     :     0.005205
      f-3     :     0.004387
  6 C s       :     2.825013  s :     2.825013
      pz      :     1.042724  p :     3.153959
      px      :     1.063895
      py      :     1.047340
      dz2     :     0.063722  d :     0.256320
      dxz     :     0.045236
      dyz     :     0.058475
      dx2y2   :     0.021200
      dxy     :     0.067688
      f0      :     0.004321  f :     0.025558
      f+1     :     0.003163
      f-1     :     0.005041
      f+2     :     0.003861
      f-2     :     0.003899
      f+3     :     0.001914
      f-3     :     0.003360
  7 H s       :     0.808072  s :     0.808072
      pz      :     0.013570  p :     0.057943
      px      :     0.028366
      py      :     0.016008
  8 H s       :     0.809741  s :     0.809741
      pz      :     0.025947  p :     0.058584
      px      :     0.015194
      py      :     0.017443
  9 H s       :     0.815923  s :     0.815923
      pz      :     0.013334  p :     0.058988
      px      :     0.022168
      py      :     0.023485
 10 H s       :     0.799631  s :     0.799631
      pz      :     0.010921  p :     0.057095
      px      :     0.021339
      py      :     0.024835
 11 H s       :     0.805023  s :     0.805023
      pz      :     0.029158  p :     0.056243
      px      :     0.015450
      py      :     0.011635
 12 H s       :     0.805644  s :     0.805644
      pz      :     0.023360  p :     0.058002
      px      :     0.013547
      py      :     0.021095
 13 H s       :     0.799569  s :     0.799569
      pz      :     0.011289  p :     0.057115
      px      :     0.019644
      py      :     0.026182
 14 H s       :     0.796771  s :     0.796771
      pz      :     0.029963  p :     0.057467
      px      :     0.015715
      py      :     0.011789
 15 N s       :     2.965513  s :     2.965513
      pz      :     1.134716  p :     3.149913
      px      :     0.999409
      py      :     1.015788
      dz2     :     0.180565  d :     0.627842
      dxz     :     0.197913
      dyz     :     0.206500
      dx2y2   :     0.022173
      dxy     :     0.020691
      f0      :     0.022625  f :     0.067212
      f+1     :     0.012565
      f-1     :     0.015230
      f+2     :     0.007246
      f-2     :     0.007961
      f+3     :     0.000767
      f-3     :     0.000819
 16 O s       :     3.492112  s :     3.492112
      pz      :     1.310915  p :     3.973126
      px      :     1.331039
      py      :     1.331173
      dz2     :     0.051337  d :     0.116826
      dxz     :     0.034542
      dyz     :     0.025699
      dx2y2   :     0.002704
      dxy     :     0.002545
      f0      :     0.004870  f :     0.013553
      f+1     :     0.004218
      f-1     :     0.002870
      f+2     :     0.000793
      f-2     :     0.000744
      f+3     :     0.000029
      f-3     :     0.000029
 17 O s       :     3.490698  s :     3.490698
      pz      :     1.344909  p :     3.972391
      px      :     1.358507
      py      :     1.268975
      dz2     :     0.043097  d :     0.117184
      dxz     :     0.024035
      dyz     :     0.039577
      dx2y2   :     0.005485
      dxy     :     0.004990
      f0      :     0.003782  f :     0.013629
      f+1     :     0.002345
      f-1     :     0.004500
      f+2     :     0.001479
      f-2     :     0.001313
      f+3     :     0.000106
      f-3     :     0.000105


                      *****************************
                      * MAYER POPULATION ANALYSIS *
                      *****************************

  NA   - Mulliken gross atomic population
  ZA   - Total nuclear charge
  QA   - Mulliken gross atomic charge
  VA   - Mayer's total valence
  BVA  - Mayer's bonded valence
  FA   - Mayer's free valence

  ATOM       NA         ZA         QA         VA         BVA        FA
  0 C      5.8360     6.0000     0.1640     3.6636     3.6636     0.0000
  1 C      6.1741     6.0000    -0.1741     3.9646     3.9646     0.0000
  2 C      6.0953     6.0000    -0.0953     3.9158     3.9158    -0.0000
  3 C      6.1211     6.0000    -0.1211     3.9089     3.9089    -0.0000
  4 C      6.0973     6.0000    -0.0973     3.9202     3.9202    -0.0000
  5 C      6.1794     6.0000    -0.1794     3.9298     3.9298    -0.0000
  6 C      6.3575     6.0000    -0.3575     3.8601     3.8601    -0.0000
  7 H      0.8773     1.0000     0.1227     0.9581     0.9581     0.0000
  8 H      0.8775     1.0000     0.1225     0.9616     0.9616     0.0000
  9 H      0.8889     1.0000     0.1111     0.9758     0.9758    -0.0000
 10 H      0.9018     1.0000     0.0982     0.9735     0.9735     0.0000
 11 H      0.9109     1.0000     0.0891     0.9698     0.9698    -0.0000
 12 H      0.9008     1.0000     0.0992     0.9691     0.9691    -0.0000
 13 H      0.8915     1.0000     0.1085     0.9685     0.9685    -0.0000
 14 H      0.8906     1.0000     0.1094     0.9713     0.9713     0.0000
 15 N      6.2420     7.0000     0.7580     4.0562     4.0562    -0.0000
 16 O      7.8792     8.0000     0.1208     2.5074     2.5074     0.0000
 17 O      7.8788     8.0000     0.1212     2.5091     2.5091     0.0000

  Mayer bond orders larger than 0.100000
B(  0-C ,  1-C ) :   1.3861 B(  0-C ,  5-C ) :   1.3432 B(  0-C ,  6-C ) :   0.9078 
B(  1-C ,  2-C ) :   1.4451 B(  1-C , 10-H ) :   0.9592 B(  2-C ,  3-C ) :   1.3944 
B(  2-C , 11-H ) :   0.9714 B(  3-C ,  4-C ) :   1.3939 B(  3-C , 12-H ) :   0.9668 
B(  4-C ,  5-C ) :   1.4528 B(  4-C , 13-H ) :   0.9661 B(  5-C , 14-H ) :   0.9709 
B(  6-C ,  7-H ) :   0.9607 B(  6-C ,  8-H ) :   0.9705 B(  6-C ,  9-H ) :   0.9902 
B( 15-N , 16-O ) :   2.0273 B( 15-N , 17-O ) :   2.0290 B( 16-O , 17-O ) :   0.4802 


-------
TIMINGS
-------

Total SCF time: 0 days 0 hours 12 min 37 sec 

Total time                  ....     757.661 sec
Sum of individual times     ....     755.019 sec  ( 99.7%)

Fock matrix formation       ....     732.949 sec  ( 96.7%)
  Split-RI-J                ....      61.299 sec  (  8.4% of F)
  Chain of spheres X        ....     548.526 sec  ( 74.8% of F)
  XC integration            ....     122.161 sec  ( 16.7% of F)
    Basis function eval.    ....      36.262 sec  ( 29.7% of XC)
    Density eval.           ....      38.402 sec  ( 31.4% of XC)
    XC-Functional eval.     ....       5.061 sec  (  4.1% of XC)
    XC-Potential eval.      ....      37.649 sec  ( 30.8% of XC)
Diagonalization             ....       1.030 sec  (  0.1%)
Density matrix formation    ....       0.180 sec  (  0.0%)
Population analysis         ....       0.120 sec  (  0.0%)
Initial guess               ....       5.570 sec  (  0.7%)
Orbital Transformation      ....       0.000 sec  (  0.0%)
Orbital Orthonormalization  ....       0.000 sec  (  0.0%)
DIIS solution               ....       0.896 sec  (  0.1%)
SOSCF solution              ....       0.629 sec  (  0.1%)
Grid generation             ....      13.645 sec  (  1.8%)

Maximum memory used throughout the entire SCF-calculation: 165.2 MB


-------------------------------------------------------------------------------
                          DFT DISPERSION CORRECTION                            
                                                                               
                                 DFTD4 V2.5                                    
-------------------------------------------------------------------------------
Gaussians B3LYP functional is recognized, using regular B3LYP params
Active option DFTDOPT                   ...         5   

Starting D4
-------------------------   ----------------
Dispersion correction           -0.021390086
-------------------------   ----------------


-------------------------   --------------------
FINAL SINGLE POINT ENERGY      -476.470474048846
-------------------------   --------------------

------------------------------------------------------------------------------
                         ORCA SCF GRADIENT CALCULATION
------------------------------------------------------------------------------

 ... reading COSX grid (gridx3)
Gradient of the Kohn-Sham DFT energy:
Kohn-Sham wavefunction type      ... RKS
Hartree-Fock exchange scaling    ...    0.200
Number of operators              ...    1
Number of atoms                  ...   18
Basis set dimensions             ...  358
Integral neglect threshold       ... 2.5e-11
Integral primitive cutoff        ... 2.5e-12
SHARK Integral package           ... ON

Nuc. rep. gradient       (SHARK) ... done (  0.0 sec)
HCore & Overlap gradient (SHARK) ... done (  2.8 sec)
RI-J gradient            (SHARK) ... done ( 16.7 sec)
COSX-gradient                    ... done (105.0 sec)
Exchange-correlation gradient    ... done
Dispersion correction            ... Starting D4


------------------- 
Dispersion Gradient 
------------------- 
   1  :   -0.000058381    0.000198326    0.000224712
   2  :   -0.000229430    0.000223010   -0.000257280
   3  :   -0.000139243   -0.000011939   -0.000483178
   4  :    0.000085893   -0.000289468   -0.000336226
   5  :    0.000268680   -0.000428871   -0.000025903
   6  :    0.000219065   -0.000224115    0.000249392
   7  :   -0.000107511    0.000402269    0.000471520
   8  :    0.000016576    0.000125201    0.000118730
   9  :   -0.000051537    0.000072920    0.000143510
  10  :   -0.000048757    0.000115544    0.000097938
  11  :   -0.000127200    0.000137823   -0.000089435
  12  :   -0.000063422    0.000021199   -0.000166489
  13  :    0.000032795   -0.000111312   -0.000128807
  14  :    0.000100393   -0.000146002    0.000020089
  15  :    0.000101561   -0.000084671    0.000158483
  16  :    0.000001019    0.000003642   -0.000000978
  17  :    0.000008448   -0.000009066    0.000039282
  18  :   -0.000008947    0.000005511   -0.000035359

  |G| =    0.001016369

done

------------------
CARTESIAN GRADIENT
------------------

   1   C   :   -0.004990466    0.019651320    0.014126552
   2   C   :    0.000262946   -0.007761637   -0.025812676
   3   C   :   -0.012226142    0.026784187    0.009999104
   4   C   :    0.003561987   -0.011296831   -0.006581229
   5   C   :    0.002915570    0.004425637    0.019882589
   6   C   :    0.012504588   -0.023101627   -0.002497917
   7   C   :   -0.004968222   -0.004722971   -0.010506423
   8   H   :    0.008582224    0.002357764    0.002751831
   9   H   :   -0.000490886   -0.004480354    0.006248674
  10   H   :   -0.002855335    0.004347136   -0.001242685
  11   H   :   -0.006687863    0.002918224   -0.000202356
  12   H   :   -0.002398855    0.000718879   -0.008225937
  13   H   :    0.000827778   -0.004156712   -0.004419062
  14   H   :    0.003783297   -0.004545856    0.000725130
  15   H   :    0.002246160   -0.001238584    0.005836881
  16   N   :   -0.038146839   -0.093530177   -0.011917062
  17   O   :    0.030186615    0.037553189    0.054169618
  18   O   :    0.007910579    0.055925666   -0.042147266

Difference to translation invariance:
           :    0.0000171362   -0.0001527486    0.0001877653

Difference to rotation invariance:
           :   -0.0008481145    0.0020334053    0.0000049151

Norm of the cartesian gradient     ...    0.1573148268
RMS gradient                       ...    0.0214078364
MAX gradient                       ...    0.0935301766

-------
TIMINGS
-------

Total SCF gradient time            ...      157.549 sec

One electron gradient       ....       2.816 sec  (  1.8%)
RI-J Coulomb gradient       ....      16.731 sec  ( 10.6%)
COSX gradient               ....     105.018 sec  ( 66.7%)
XC gradient                 ....      28.247 sec  ( 17.9%)

Maximum memory used throughout the entire SCFGRAD-calculation: 134.4 MB
------------------------------------------------------------------------------
                         ORCA GEOMETRY RELAXATION STEP
------------------------------------------------------------------------------

Reading the OPT-File                    ....done
Number of atoms                         ....  18
Number of degrees of freedom            ....  54
Current Energy                          ....  -476.470474049 Eh
Current gradient norm                   ....     0.157314827 Eh/bohr
# of structures/gradients available     ....   1
# of structures/gradients to be used    ....   1
First structure used                    ....   0
Maximum allowed component of the step   ....  0.300
Transforming the gradients              ....done
Building the approximate hessian        ....(skipped:first point)done
Eigenvalues of the approximate hessian:
  1.000000  1.000000  1.000000  1.000000  1.000000  1.000000
  1.000000  1.000000  1.000000  1.000000  1.000000  1.000000
  1.000000  1.000000  1.000000  1.000000  1.000000  1.000000
  1.000000  1.000000  1.000000  1.000000  1.000000  1.000000
  1.000000  1.000000  1.000000  1.000000  1.000000  1.000000
  1.000000  1.000000  1.000000  1.000000  1.000000  1.000000
  1.000000  1.000000  1.000000  1.000000  1.000000  1.000000
  1.000000  1.000000  1.000000  1.000000  1.000000  1.000000
 1000.000000 1000.000000 1000.000000 1000.000000 1000.000000 1000.000000

computing the step                      ....done

The length of the step is               ....     0.157265
Storing new coordinates                 ....done
[...]
      8       0.001318  -0.135579   0.159475   0.000030  -0.000046  -0.000026
      9       0.029063   0.100944   0.042216   0.000099   0.000021   0.000001
     10      -0.067601  -0.094358  -0.098888  -0.000183  -0.000086  -0.000025
     11      -0.050234   0.127600  -0.074014  -0.000071  -0.000078   0.000042
     12       0.023260  -0.061064  -0.026576  -0.000001   0.000172   0.000032
     13       0.027843   0.106376   0.150150   0.000132  -0.000155   0.000089
     14       0.135179   0.027300   0.232435   0.000287   0.000157  -0.000074
     15      -0.049902   0.040067   0.104457   0.000147  -0.000081   0.000287
     16       0.071039  -0.098108  -0.243437  -0.000281   0.000496   0.000122
     17      -0.012385  -0.076753  -0.174676  -0.000115   0.000463  -0.000465
     18      -0.014668  -0.002138   0.008445   0.000002  -0.028621  -0.064765
     19       0.029086  -0.003071  -0.023253  -0.000019  -0.027421  -0.041483
     20       0.025637  -0.016022  -0.023107  -0.000018  -0.042386   0.040845
     21      -0.003459  -0.014190  -0.002584  -0.000021   0.714521   0.431951
     22      -0.041534   0.074464   0.001111  -0.000130   0.365667   0.215537
     23       0.099308  -0.102733  -0.019452  -0.000048   0.218557   0.158475
     24       0.111492  -0.108799  -0.017508   0.000131  -0.173891   0.274939
     25       0.002806  -0.013785   0.003292  -0.000053  -0.233000   0.402341
     26       0.061699  -0.067082  -0.016826  -0.000070   0.369340  -0.690310
     27       0.001762   0.014916   0.003849   0.000017  -0.194512   0.076761
     28       0.002950   0.079978  -0.017474  -0.000060   0.198025  -0.111129
     29      -0.074475   0.163256   0.001482  -0.000168  -0.081001   0.044675
     30      -0.026531  -0.073514   0.103525   0.000017   0.002208  -0.001755
     31      -0.176811  -0.027302   0.015679  -0.000111  -0.003439   0.001793
     32      -0.455409  -0.292683   0.361005  -0.000219   0.000267  -0.000146
     33       0.183599  -0.178756   0.186652   0.000213   0.000128   0.000568
     34      -0.372320   0.256199  -0.297251  -0.000431  -0.000184   0.000445
     35      -0.198307  -0.030566  -0.035147  -0.000366  -0.000879   0.000072
     36      -0.028993  -0.381821   0.004245  -0.000253   0.000130  -0.000529
     37      -0.016937   0.391102  -0.067449   0.000165  -0.000852  -0.000231
     38      -0.131473  -0.410224  -0.132052  -0.000588  -0.000713   0.000193
     39      -0.045966  -0.096339  -0.102292  -0.000041   0.000715  -0.000334
     40      -0.146326   0.069360   0.004448  -0.000024  -0.001149   0.000427
     41      -0.461180  -0.167077  -0.326188  -0.000264  -0.000361   0.000084
     42       0.161761  -0.173852  -0.220337  -0.000080  -0.002180  -0.000056
     43      -0.335609   0.299054   0.365410   0.000140  -0.000307  -0.001038
     44      -0.181894   0.067143   0.050562   0.000044  -0.006048   0.004262
     45      -0.000823  -0.000225   0.009311   0.185612   0.000248  -0.000017
     46      -0.001968  -0.000515   0.023004  -0.158372   0.000606  -0.000041
     47      -0.000278  -0.000096   0.002179   0.806481   0.000069  -0.000005
     48       0.000931   0.000247  -0.009042  -0.116217  -0.000178   0.000012
     49       0.000395   0.000108  -0.005896  -0.018774  -0.000209   0.000014
     50       0.002572   0.000676  -0.022462  -0.359032  -0.000328   0.000022
     51      -0.000207  -0.000046   0.000894  -0.046266  -0.000040   0.000002
     52       0.001323   0.000343  -0.014247   0.157437  -0.000322   0.000021
     53      -0.002318  -0.000585   0.020544  -0.346934   0.000267  -0.000017
                 48         49         50         51         52         53    
      0      -0.000349  -0.000883  -0.000783  -0.000151  -0.000951  -0.000234
      1      -0.000319   0.001594   0.000602   0.000954   0.000775   0.000789
      2      -0.001527   0.000547  -0.001270   0.001518  -0.001426   0.000930
      3       0.001849  -0.008133   0.031628  -0.029443   0.021437  -0.011837
      4      -0.002444   0.010846  -0.043271   0.040621  -0.030610   0.017090
      5       0.000252  -0.003047   0.009536  -0.008141   0.003750  -0.001692
      6      -0.000077   0.008039  -0.018763  -0.000728   0.020322  -0.016667
      7       0.000091  -0.003129   0.008040  -0.001795  -0.007024   0.007241
      8      -0.000081   0.019334  -0.043567  -0.006189   0.050789  -0.038499
      9      -0.000104   0.005092  -0.004662  -0.011494  -0.002558   0.010101
     10       0.000123  -0.016723   0.016429   0.037356   0.003730  -0.033739
     11      -0.000071  -0.019440   0.020226   0.043105  -0.000349  -0.039817
     12       0.000003  -0.021185  -0.001774   0.014493   0.030842   0.030131
     13       0.000036   0.029013   0.001765  -0.021492  -0.043772  -0.041854
     14       0.000044  -0.007314  -0.002031   0.001500   0.007413   0.009200
     15       0.000197   0.026259   0.013485   0.011026   0.007375   0.006138
     16      -0.000278  -0.010836  -0.005107  -0.004098  -0.001403  -0.001061
     17       0.000568   0.061708   0.032635   0.026887   0.020771   0.017535
     18      -0.055215  -0.000048   0.001411  -0.000885   0.000714  -0.000324
     19       0.059642  -0.000055  -0.001533   0.000896  -0.000770   0.000259
     20      -0.039259   0.000372   0.000996  -0.000328   0.000502  -0.000186
     21       0.136596  -0.001931  -0.003536   0.000575  -0.001485   0.000892
     22       0.087940  -0.002313  -0.002444  -0.000761  -0.000924  -0.000022
     23       0.034976  -0.001111  -0.001023  -0.000589  -0.000195  -0.000051
     24      -0.099346   0.002579   0.002497   0.000625   0.001001   0.000126
     25      -0.115582   0.001591   0.002912  -0.000892   0.001374  -0.000633
     26       0.198962  -0.005242  -0.005393  -0.000943  -0.001975  -0.000101
     27       0.620264   0.001724  -0.016082   0.010896  -0.007424   0.003765
     28      -0.673243  -0.002502   0.017968  -0.012752   0.008252  -0.004522
     29       0.249651  -0.000724  -0.005701   0.002557  -0.002685   0.000654
     30      -0.018410   0.093293  -0.368223   0.336239  -0.241105   0.129508
     31       0.026145  -0.128374   0.507686  -0.464053   0.333837  -0.179581
     32      -0.002588   0.026355  -0.102250   0.092431  -0.064068   0.033791
     33       0.001462  -0.095572   0.217744   0.021879  -0.237082   0.180348
     34      -0.000616   0.038326  -0.088383  -0.006069   0.094360  -0.073734
     35       0.003802  -0.227493   0.516148   0.057774  -0.565832   0.426359
     36       0.000386  -0.059645   0.059423   0.130937   0.008457  -0.113915
     37      -0.001009   0.196301  -0.197494  -0.430638  -0.021445   0.375883
     38      -0.000823   0.228911  -0.232258  -0.501824  -0.018619   0.439251
     39       0.000986   0.252333   0.020974  -0.170248  -0.350824  -0.332957
     40      -0.001197  -0.352487  -0.028471   0.239838   0.491676   0.465340
     41       0.000350   0.072538   0.007747  -0.044766  -0.097512  -0.095258
     42      -0.002105  -0.301700  -0.157576  -0.126173  -0.091214  -0.073984
     43       0.000156   0.121829   0.063168   0.050443   0.035089   0.028260
     44      -0.006805  -0.714761  -0.374194  -0.299938  -0.219660  -0.178710
     45       0.000126   0.000037  -0.000001   0.000065  -0.000024   0.000115
     46       0.000308   0.000091  -0.000003   0.000160  -0.000057   0.000279
     47       0.000034   0.000009   0.000000   0.000016  -0.000008   0.000035
     48      -0.000090  -0.000027   0.000001  -0.000046   0.000017  -0.000082
     49      -0.000106  -0.000031   0.000001  -0.000055   0.000020  -0.000097
     50      -0.000164  -0.000048   0.000002  -0.000083   0.000031  -0.000149
     51      -0.000021  -0.000006  -0.000000  -0.000010   0.000004  -0.000019
     52      -0.000163  -0.000048   0.000002  -0.000084   0.000030  -0.000147
     53       0.000133   0.000040  -0.000001   0.000069  -0.000023   0.000118


-----------
IR SPECTRUM
-----------

 Mode   freq       eps      Int      T**2         TX        TY        TZ
       cm**-1   L/(mol*cm) km/mol    a.u.
----------------------------------------------------------------------------
 10:      4.86   0.000000    0.00  0.000000  ( 0.000000  0.000000  0.000000)
 11:     21.71   0.000413    2.08  0.005930  ( 0.070512 -0.025341 -0.017780)
 12:     28.14   0.000205    1.04  0.002274  (-0.029038 -0.032016  0.020138)
 13:    185.60   0.000293    1.48  0.000493  ( 0.019217  0.011125 -0.000202)
 14:    346.17   0.001908    9.64  0.001720  (-0.010427  0.001953 -0.040089)
 15:    384.74   0.000017    0.08  0.000014  ( 0.001282 -0.000082  0.003454)
 16:    449.66   0.000824    4.16  0.000572  (-0.019216 -0.011735 -0.008057)
 17:    517.03   0.378691  1913.75  0.228564  (-0.082360 -0.008904 -0.470852)
 18:    556.45   1.314227  6641.57  0.737029  (-0.147184 -0.012469 -0.845701)
 19:    566.49   0.137287  693.79  0.075627  ( 0.042446  0.009830  0.271531)
 20:    646.11   0.005748   29.05  0.002776  (-0.042200 -0.028212  0.014117)
 21:    754.53   0.008884   44.90  0.003674  (-0.049033 -0.031093  0.017414)
 22:    795.44   0.003631   18.35  0.001425  ( 0.005671 -0.002575  0.037227)
 23:    828.50   0.000038    0.19  0.000014  ( 0.003056  0.001763 -0.001378)
 24:    929.48   0.000445    2.25  0.000149  (-0.002004  0.000199  0.012057)
 25:    991.19   0.003939   19.91  0.001240  ( 0.004358  0.005049  0.034580)
 26:    991.93   0.022495  113.68  0.007077  ( 0.011691  0.013389  0.082225)
 27:   1008.72   0.000149    0.75  0.000046  (-0.004950 -0.003826 -0.002637)
 28:   1015.87   0.012457   62.95  0.003827  (-0.014667  0.000634 -0.060093)
 29:   1031.26   0.000758    3.83  0.000230  ( 0.000285 -0.006947  0.013460)
 30:   1034.42   0.003210   16.22  0.000968  (-0.019146 -0.015211 -0.019249)
 31:   1108.03   0.004413   22.30  0.001243  ( 0.015054 -0.011233  0.029833)
 32:   1171.15   0.003490   17.64  0.000930  ( 0.003074  0.006171  0.029706)
 33:   1211.35   0.120044  606.65  0.030925  (-0.029490 -0.013193 -0.172863)
 34:   1247.15   0.086143  435.33  0.021555  (-0.021661 -0.019185 -0.143936)
 35:   1323.65   0.838971  4239.82  0.197796  ( 0.078748  0.025305  0.436983)
 36:   1330.17   0.770783  3895.22  0.180829  (-0.079049 -0.013420 -0.417613)
 37:   1373.07   0.000594    3.00  0.000135  ( 0.007135 -0.006264  0.006695)
 38:   1394.57   0.005472   27.65  0.001224  ( 0.000715  0.019977  0.028719)
 39:   1428.80   0.000354    1.79  0.000077  (-0.006354  0.002895 -0.005353)
 40:   1456.70   0.002035   10.28  0.000436  ( 0.012344  0.014511 -0.008544)
 41:   1482.55   0.010137   51.23  0.002134  (-0.015971 -0.001782 -0.043307)
 42:   1507.10   0.019553   98.81  0.004049  ( 0.006889 -0.033655 -0.053560)
 43:   1522.96   0.002957   14.94  0.000606  (-0.013379  0.013002 -0.016059)
 44:   1657.59   0.163672  827.13  0.030813  ( 0.027875  0.015297  0.172634)
 45:   2052.23   0.067942  343.35  0.010331  ( 0.022673 -0.019706  0.097103)
 46:   3007.84   0.027472  138.83  0.002850  ( 0.005706  0.008833  0.052342)
 47:   3050.03   0.000133    0.67  0.000014  (-0.003238 -0.001358 -0.001127)
 48:   3131.49   0.009449   47.75  0.000942  (-0.003064  0.013447  0.027413)
 49:   3184.82   0.001403    7.09  0.000137  ( 0.001318  0.002324  0.011414)
 50:   3188.19   0.000064    0.32  0.000006  ( 0.001024 -0.002016 -0.001070)
 51:   3196.06   0.003200   16.17  0.000312  ( 0.000726  0.004943  0.016957)
 52:   3204.17   0.000251    1.27  0.000024  ( 0.002967 -0.003948 -0.000200)
 53:   3211.15   0.003377   17.07  0.000328  ( 0.004553 -0.002095  0.017408)

* The epsilon (eps) is given for a Dirac delta lineshape.
** The dipole moment derivative (T) already includes vibrational overlap.

The first frequency considered to be a vibration is 10
The total number of vibrations considered is 44


--------------------------
THERMOCHEMISTRY AT 298.15K
--------------------------

Temperature         ... 298.15 K
Pressure            ... 1.00 atm
Total Mass          ... 138.15 AMU

Throughout the following assumptions are being made:
  (1) The electronic state is orbitally nondegenerate
  (2) There are no thermally accessible electronically excited states
  (3) Hindered rotations indicated by low frequency modes are not
      treated as such but are treated as vibrations and this may
      cause some error
  (4) All equations used are the standard statistical mechanics
      equations for an ideal gas
  (5) All vibrations are strictly harmonic

freq.       4.86  E(vib)   ...       0.59 
freq.      21.71  E(vib)   ...       0.56 
freq.      28.14  E(vib)   ...       0.55 
freq.     185.60  E(vib)   ...       0.37 
freq.     346.17  E(vib)   ...       0.23 
freq.     384.74  E(vib)   ...       0.20 
freq.     449.66  E(vib)   ...       0.17 
freq.     517.03  E(vib)   ...       0.13 
freq.     556.45  E(vib)   ...       0.12 
freq.     566.49  E(vib)   ...       0.11 
freq.     646.11  E(vib)   ...       0.09 
freq.     754.53  E(vib)   ...       0.06 
freq.     795.44  E(vib)   ...       0.05 
freq.     828.50  E(vib)   ...       0.04 
freq.     929.48  E(vib)   ...       0.03 
freq.     991.19  E(vib)   ...       0.02 
freq.     991.93  E(vib)   ...       0.02 
freq.    1008.72  E(vib)   ...       0.02 
freq.    1015.87  E(vib)   ...       0.02 
freq.    1031.26  E(vib)   ...       0.02 
freq.    1034.42  E(vib)   ...       0.02 
freq.    1108.03  E(vib)   ...       0.02 
freq.    1171.15  E(vib)   ...       0.01 
freq.    1211.35  E(vib)   ...       0.01 
freq.    1247.15  E(vib)   ...       0.01 
freq.    1323.65  E(vib)   ...       0.01 
freq.    1330.17  E(vib)   ...       0.01 
freq.    1373.07  E(vib)   ...       0.01 
freq.    1394.57  E(vib)   ...       0.00 
freq.    1428.80  E(vib)   ...       0.00 
freq.    1456.70  E(vib)   ...       0.00 
freq.    1482.55  E(vib)   ...       0.00 
freq.    1507.10  E(vib)   ...       0.00 
freq.    1522.96  E(vib)   ...       0.00 
freq.    1657.59  E(vib)   ...       0.00 
freq.    2052.23  E(vib)   ...       0.00 
freq.    3007.84  E(vib)   ...       0.00 
freq.    3050.03  E(vib)   ...       0.00 
freq.    3131.49  E(vib)   ...       0.00 
freq.    3184.82  E(vib)   ...       0.00 
freq.    3188.19  E(vib)   ...       0.00 
freq.    3196.06  E(vib)   ...       0.00 
freq.    3204.17  E(vib)   ...       0.00 
freq.    3211.15  E(vib)   ...       0.00 

------------
INNER ENERGY
------------

The inner energy is: U= E(el) + E(ZPE) + E(vib) + E(rot) + E(trans)
    E(el)   - is the total energy from the electronic structure calculation
              = E(kin-el) + E(nuc-el) + E(el-el) + E(nuc-nuc)
    E(ZPE)  - the the zero temperature vibrational energy from the frequency calculation
    E(vib)  - the the finite temperature correction to E(ZPE) due to population
              of excited vibrational states
    E(rot)  - is the rotational thermal energy
    E(trans)- is the translational thermal energy

Summary of contributions to the inner energy U:
Electronic energy                ...   -476.52711400 Eh
Zero point energy                ...      0.13561723 Eh      85.10 kcal/mol
Thermal vibrational correction   ...      0.00560270 Eh       3.52 kcal/mol
Thermal rotational correction    ...      0.00141627 Eh       0.89 kcal/mol
Thermal translational correction ...      0.00141627 Eh       0.89 kcal/mol
-----------------------------------------------------------------------
Total thermal energy                   -476.38306153 Eh


Summary of corrections to the electronic energy:
(perhaps to be used in another calculation)
Total thermal correction                  0.00843524 Eh       5.29 kcal/mol
Non-thermal (ZPE) correction              0.13561723 Eh      85.10 kcal/mol
-----------------------------------------------------------------------
Total correction                          0.14405247 Eh      90.39 kcal/mol


--------
ENTHALPY
--------

The enthalpy is H = U + kB*T
                kB is Boltzmann's constant
Total free energy                 ...   -476.38306153 Eh 
Thermal Enthalpy correction       ...      0.00094421 Eh       0.59 kcal/mol
-----------------------------------------------------------------------
Total Enthalpy                    ...   -476.38211732 Eh


Note: Only C1 symmetry has been detected, increase convergence thresholds 
      if your molecule has a higher symmetry. Symmetry factor of 1.0 is   
      used for the rotational entropy correction. 
 

Note: Rotational entropy computed according to Herzberg 
Infrared and Raman Spectra, Chapter V,1, Van Nostrand Reinhold, 1945 
Point Group:  C1, Symmetry Number:   1  
Rotational constants in cm-1:     0.115880     0.002953     0.002883 

Vibrational entropy computed according to the QRRHO of S. Grimme
Chem.Eur.J. 2012 18 9955


-------
ENTROPY
-------

The entropy contributions are T*S = T*(S(el)+S(vib)+S(rot)+S(trans))
     S(el)   - electronic entropy
     S(vib)  - vibrational entropy
     S(rot)  - rotational entropy
     S(trans)- translational entropy
The entropies will be listed as multiplied by the temperature to get
units of energy

Electronic entropy                ...      0.00000000 Eh      0.00 kcal/mol
Vibrational entropy               ...      0.01108200 Eh      6.95 kcal/mol
Rotational entropy                ...      0.01603943 Eh     10.06 kcal/mol
Translational entropy             ...      0.01932890 Eh     12.13 kcal/mol
-----------------------------------------------------------------------
Final entropy term                ...      0.04645033 Eh     29.15 kcal/mol

In case the symmetry of your molecule has not been determined correctly
or in case you have a reason to use a different symmetry number we print 
out the resulting rotational entropy values for sn=1,12 :
 --------------------------------------------------------
|  sn= 1 | S(rot)=       0.01603943 Eh     10.06 kcal/mol|
|  sn= 2 | S(rot)=       0.01538497 Eh      9.65 kcal/mol|
|  sn= 3 | S(rot)=       0.01500214 Eh      9.41 kcal/mol|
|  sn= 4 | S(rot)=       0.01473052 Eh      9.24 kcal/mol|
|  sn= 5 | S(rot)=       0.01451983 Eh      9.11 kcal/mol|
|  sn= 6 | S(rot)=       0.01434768 Eh      9.00 kcal/mol|
|  sn= 7 | S(rot)=       0.01420214 Eh      8.91 kcal/mol|
|  sn= 8 | S(rot)=       0.01407606 Eh      8.83 kcal/mol|
|  sn= 9 | S(rot)=       0.01396485 Eh      8.76 kcal/mol|
|  sn=10 | S(rot)=       0.01386537 Eh      8.70 kcal/mol|
|  sn=11 | S(rot)=       0.01377538 Eh      8.64 kcal/mol|
|  sn=12 | S(rot)=       0.01369323 Eh      8.59 kcal/mol|
 --------------------------------------------------------


-------------------
GIBBS FREE ENERGY
-------------------

The Gibbs free energy is G = H - T*S

Total enthalpy                    ...   -476.38211732 Eh 
Total entropy correction          ...     -0.04645033 Eh    -29.15 kcal/mol
-----------------------------------------------------------------------
Final Gibbs free energy         ...   -476.42856765 Eh

For completeness - the Gibbs free energy minus the electronic energy
G-E(el)                           ...      0.09854635 Eh     61.84 kcal/mol


Timings for individual modules:

Sum of individual times         ...    31932.585 sec (= 532.210 min)
GTO integral calculation        ...       61.409 sec (=   1.023 min)   0.2 %
SCF iterations                  ...    20577.601 sec (= 342.960 min)  64.4 %
SCF Gradient evaluation         ...     4119.270 sec (=  68.654 min)  12.9 %
Geometry relaxation             ...       10.516 sec (=   0.175 min)   0.0 %
Analytical frequency calculation...     7163.789 sec (= 119.396 min)  22.4 %
                             ****ORCA TERMINATED NORMALLY****
TOTAL RUN TIME: 0 days 8 hours 52 minutes 38 seconds 682 msec
