
                                 *****************
                                 * O   R   C   A *
                                 *****************

                                            #,                                       
                                            ###                                      
                                            ####                                     
                                            #####                                    
                                            ######                                   
                                           ########,                                 
                                     ,,################,,,,,                         
                               ,,#################################,,                 
                          ,,##########################################,,             
                       ,#########################################, ''#####,          
                    ,#############################################,,   '####,        
                  ,##################################################,,,,####,       
                ,###########''''           ''''###############################       
              ,#####''   ,,,,##########,,,,          '''####'''          '####       
            ,##' ,,,,###########################,,,                        '##       
           ' ,,###''''                  '''############,,,                           
         ,,##''                                '''############,,,,        ,,,,,,###''
      ,#''                                            '''#######################'''  
     '                                                          ''''####''''         
             ,#######,   #######,   ,#######,      ##                                
            ,#'     '#,  ##    ##  ,#'     '#,    #''#        ######   ,####,        
            ##       ##  ##   ,#'  ##            #'  '#       #        #'  '#        
            ##       ##  #######   ##           ,######,      #####,   #    #        
            '#,     ,#'  ##    ##  '#,     ,#' ,#      #,         ##   #,  ,#        
             '#######'   ##     ##  '#######'  #'      '#     #####' # '####'        



                  #######################################################
                  #                        -***-                        #
                  #          Department of theory and spectroscopy      #
                  #    Directorship and core code : Frank Neese         #
                  #        Max Planck Institute fuer Kohlenforschung    #
                  #                Kaiser Wilhelm Platz 1               #
                  #                 D-45470 Muelheim/Ruhr               #
                  #                      Germany                        #
                  #                                                     #
                  #                  All rights reserved                #
                  #                        -***-                        #
                  #######################################################



                         Program Version 5.0.4 -  RELEASE  -

 With contributions from (in alphabetic order):
   Daniel Aravena         : Magnetic Suceptibility
   Michael Atanasov       : Ab Initio Ligand Field Theory (pilot matlab implementation)
   Alexander A. Auer      : GIAO ZORA, VPT2 properties, NMR spectrum
   Ute Becker             : Parallelization
   Giovanni Bistoni       : ED, misc. LED, open-shell LED, HFLD
   Martin Brehm           : Molecular dynamics
   Dmytro Bykov           : SCF Hessian
   Vijay G. Chilkuri      : MRCI spin determinant printing, contributions to CSF-ICE
   Dipayan Datta          : RHF DLPNO-CCSD density
   Achintya Kumar Dutta   : EOM-CC, STEOM-CC
   Dmitry Ganyushin       : Spin-Orbit,Spin-Spin,Magnetic field MRCI
   Miquel Garcia          : C-PCM and meta-GGA Hessian, CC/C-PCM, Gaussian charge scheme
   Yang Guo               : DLPNO-NEVPT2, F12-NEVPT2, CIM, IAO-localization
   Andreas Hansen         : Spin unrestricted coupled pair/coupled cluster methods
   Benjamin Helmich-Paris : MC-RPA, TRAH-SCF, COSX integrals
   Lee Huntington         : MR-EOM, pCC
   Robert Izsak           : Overlap fitted RIJCOSX, COSX-SCS-MP3, EOM
   Marcus Kettner         : VPT2
   Christian Kollmar      : KDIIS, OOCD, Brueckner-CCSD(T), CCSD density, CASPT2, CASPT2-K
   Simone Kossmann        : Meta GGA functionals, TD-DFT gradient, OOMP2, MP2 Hessian
   Martin Krupicka        : Initial AUTO-CI
   Lucas Lang             : DCDCAS
   Marvin Lechner         : AUTO-CI (C++ implementation), FIC-MRCC
   Dagmar Lenk            : GEPOL surface, SMD
   Dimitrios Liakos       : Extrapolation schemes; Compound Job, initial MDCI parallelization
   Dimitrios Manganas     : Further ROCIS development; embedding schemes
   Dimitrios Pantazis     : SARC Basis sets
   Anastasios Papadopoulos: AUTO-CI, single reference methods and gradients
   Taras Petrenko         : DFT Hessian,TD-DFT gradient, ASA, ECA, R-Raman, ABS, FL, XAS/XES, NRVS
   Peter Pinski           : DLPNO-MP2, DLPNO-MP2 Gradient
   Christoph Reimann      : Effective Core Potentials
   Marius Retegan         : Local ZFS, SOC
   Christoph Riplinger    : Optimizer, TS searches, QM/MM, DLPNO-CCSD(T), (RO)-DLPNO pert. Triples
   Tobias Risthaus        : Range-separated hybrids, TD-DFT gradient, RPA, STAB
   Michael Roemelt        : Original ROCIS implementation
   Masaaki Saitow         : Open-shell DLPNO-CCSD energy and density
   Barbara Sandhoefer     : DKH picture change effects
   Avijit Sen             : IP-ROCIS
   Kantharuban Sivalingam : CASSCF convergence, NEVPT2, FIC-MRCI
   Bernardo de Souza      : ESD, SOC TD-DFT
   Georgi Stoychev        : AutoAux, RI-MP2 NMR, DLPNO-MP2 response
   Willem Van den Heuvel  : Paramagnetic NMR
   Boris Wezisla          : Elementary symmetry handling
   Frank Wennmohs         : Technical directorship


 We gratefully acknowledge several colleagues who have allowed us to
 interface, adapt or use parts of their codes:
   Stefan Grimme, W. Hujo, H. Kruse, P. Pracht,  : VdW corrections, initial TS optimization,
                  C. Bannwarth, S. Ehlert          DFT functionals, gCP, sTDA/sTD-DF
   Ed Valeev, F. Pavosevic, A. Kumar             : LibInt (2-el integral package), F12 methods
   Garnet Chan, S. Sharma, J. Yang, R. Olivares  : DMRG
   Ulf Ekstrom                                   : XCFun DFT Library
   Mihaly Kallay                                 : mrcc  (arbitrary order and MRCC methods)
   Jiri Pittner, Ondrej Demel                    : Mk-CCSD
   Frank Weinhold                                : gennbo (NPA and NBO analysis)
   Christopher J. Cramer and Donald G. Truhlar   : smd solvation model
   Lars Goerigk                                  : TD-DFT with DH, B97 family of functionals
   V. Asgeirsson, H. Jonsson                     : NEB implementation
   FAccTs GmbH                                   : IRC, NEB, NEB-TS, DLPNO-Multilevel, CI-OPT
                                                   MM, QMMM, 2- and 3-layer-ONIOM, Crystal-QMMM,
                                                   LR-CPCM, SF, NACMEs, symmetry and pop. for TD-DFT,
                                                   nearIR, NL-DFT gradient (VV10), updates on ESD,
                                                   ML-optimized integration grids
   S Lehtola, MJT Oliveira, MAL Marques          : LibXC Library
   Liviu Ungur et al                             : ANISO software


 Your calculation uses the libint2 library for the computation of 2-el integrals
 For citations please refer to: http://libint.valeyev.net

 Your ORCA version has been built with support for libXC version: 5.1.0
 For citations please refer to: https://tddft.org/programs/libxc/

 This ORCA versions uses:
   CBLAS   interface :  Fast vector & matrix operations
   LAPACKE interface :  Fast linear algebra routines
   Shared memory     :  Shared parallel matrices


Your calculation utilizes the atom-pairwise dispersion correction
based on tight binding partial charges (D4)
Cite in your paper:
E.Caldeweyher, C.Bannwarth, S.Grimme, J.Chem.Phys., (2017), 147, 034112.
E.Caldeweyher, S.Ehlert, A.Hansen, H.Neugebauer, S.Grimme, J.Chem.Phys., (2018), in progress.
   

================================================================================

----- Orbital basis set information -----
Your calculation utilizes the basis: def2-SVP
   F. Weigend and R. Ahlrichs, Phys. Chem. Chem. Phys. 7, 3297 (2005).

----- AuxJ basis set information -----
Your calculation utilizes the auxiliary basis: def2/J
   F. Weigend, Phys. Chem. Chem. Phys. 8, 1057 (2006).

================================================================================
                                        WARNINGS
                       Please study these warnings very carefully!
================================================================================


WARNING: Geometry Optimization
  ===> : Switching off AutoStart
         For restart on a previous wavefunction, please use MOREAD

INFO   : the flag for use of the SHARK integral package has been found!

================================================================================
                                       INPUT FILE
================================================================================
NAME = para_p_opt_3.inp
|  1> !B3LYP DEF2-SVP OPT FREQ D4 SOSCF
|  2> 
|  3> %geom
|  4> convergence tight
|  5> maxIter 1000
|  6> end
|  7> 
|  8> * xyz 1 1
|  9>   C   -5.77190899756551      0.97723043544353     -0.00429747173512
| 10>   C   -6.81843335297649      1.43023752085684     -0.82820112888528
| 11>   C   -7.41148266026564      0.59290849074008     -1.76878047471890
| 12>   C   -6.94907295050933     -0.71929996918392     -1.88409332893447
| 13>   C   -5.91586361656516     -1.20554921933111     -1.08318559615259
| 14>   C   -5.33594589944608     -0.35105499555946     -0.14763930096031
| 15>   C   -5.12256800583965      1.90468483140822      0.98835757687842
| 16>   H   -4.57293617068944      1.35067434556472      1.76322747068120
| 17>   H   -5.86566022722619      2.54930861295445      1.48298170520713
| 18>   H   -4.40186960064139      2.57093842488730      0.48254793485813
| 19>   H   -7.17510727682423      2.45873085401243     -0.72773185178108
| 20>   H   -8.22355811545432      0.93235153508668     -2.41093510360105
| 21>   H   -5.58662985711897     -2.23740546724368     -1.20170800324744
| 22>   H   -4.52772955105144     -0.72308000407277      0.48716381082813
| 23>   N   -7.57137726796606     -1.61367945057647     -2.87273932968167
| 24>   O   -7.14830949785680     -2.75754283352188     -2.95222328022583
| 25>   O   -8.47669868729433     -1.16162765113358     -3.55890496743500
| 26>   H      -11.33229       -6.01561       -8.15063
| 27> **                         ****END OF INPUT****
================================================================================

                       *****************************
                       * Geometry Optimization Run *
                       *****************************

Geometry optimization settings:
Update method            Update   .... BFGS
Choice of coordinates    CoordSys .... Z-matrix Internals
Initial Hessian          InHess   .... Almoef's Model

Convergence Tolerances:
Energy Change            TolE     ....  1.0000e-06 Eh
Max. Gradient            TolMAXG  ....  1.0000e-04 Eh/bohr
RMS Gradient             TolRMSG  ....  3.0000e-05 Eh/bohr
Max. Displacement        TolMAXD  ....  1.0000e-03 bohr
RMS Displacement         TolRMSD  ....  6.0000e-04 bohr
Strict Convergence                ....  False
------------------------------------------------------------------------------
                        ORCA OPTIMIZATION COORDINATE SETUP
------------------------------------------------------------------------------

The optimization will be done in new redundant internal coordinates
Making redundant internal coordinates   ...  (new redundants) done
Evaluating the initial hessian          ...  (Almloef) done
Evaluating the coordinates              ...  done
Calculating the B-matrix                .... done
Calculating the G-matrix                .... done
Diagonalizing the G-matrix              .... done
Small eigenvalue found = 8.461e-03
The first mode is                       ....   52
The number of degrees of freedom        ....   48

    -----------------------------------------------------------------
                    Redundant Internal Coordinates


    -----------------------------------------------------------------
         Definition                    Initial Value    Approx d2E/dq
    -----------------------------------------------------------------
      1. B(C   1,C   0)                  1.4069         0.587279   
      2. B(C   2,C   1)                  1.3919         0.620343   
      3. B(C   3,C   2)                  1.3961         0.611019   
      4. B(C   4,C   3)                  1.3948         0.613919   
      5. B(C   5,C   4)                  1.3935         0.616920   
      6. B(C   5,C   0)                  1.4053         0.590582   
      7. B(C   6,C   0)                  1.5057         0.408434   
      8. B(H   7,C   6)                  1.0997         0.347433   
      9. B(H   8,C   6)                  1.1011         0.345736   
     10. B(H   9,C   6)                  1.1041         0.341862   
     11. B(H  10,C   1)                  1.0932         0.355878   
     12. B(H  11,C   2)                  1.0895         0.360737   
     13. B(H  12,C   4)                  1.0896         0.360665   
     14. B(H  13,C   5)                  1.0930         0.356188   
     15. B(N  14,C   3)                  1.4713         0.415178   
     16. B(O  15,N  14)                  1.2222         0.928445   
     17. B(O  16,N  14)                  1.2226         0.926976   
     18. B(H  17,O  16)                  7.2663         0.000000   
     19. B(H  17,O  15)                  7.4259         0.000000   
     20. B(H  17,N  14)                  7.8344         0.000000   
     21. A(C   5,C   0,C   6)          121.0407         0.399524   
     22. A(C   1,C   0,C   6)          120.5668         0.399130   
     23. A(C   1,C   0,C   5)          118.3840         0.426128   
     24. A(C   0,C   1,H  10)          119.4599         0.348995   
     25. A(C   0,C   1,C   2)          121.2628         0.429900   
     26. A(C   2,C   1,H  10)          119.2772         0.352238   
     27. A(C   3,C   2,H  11)          119.4085         0.352144   
     28. A(C   1,C   2,H  11)          121.8986         0.353048   
     29. A(C   1,C   2,C   3)          118.6927         0.432971   
     30. A(C   2,C   3,C   4)          121.7092         0.432162   
     31. A(C   4,C   3,N  14)          119.1605         0.400836   
     32. A(C   2,C   3,N  14)          119.1298         0.400502   
     33. A(C   3,C   4,C   5)          118.6873         0.432909   
     34. A(C   5,C   4,H  12)          121.8715         0.352705   
     35. A(C   3,C   4,H  12)          119.4410         0.352414   
     36. A(C   0,C   5,C   4)          121.2636         0.429906   
     37. A(C   4,C   5,H  13)          119.2724         0.351961   
     38. A(C   0,C   5,H  13)          119.4639         0.349377   
     39. A(H   8,C   6,H   9)          107.0392         0.286649   
     40. A(H   7,C   6,H   9)          107.4895         0.286869   
     41. A(C   0,C   6,H   9)          110.5579         0.326310   
     42. A(H   7,C   6,H   8)          108.4031         0.287374   
     43. A(C   0,C   6,H   8)          111.4518         0.326916   
     44. A(C   0,C   6,H   7)          111.6997         0.327180   
     45. A(O  16,N  14,H  17)           58.2771         0.090005   
     46. A(O  15,N  14,H  17)           66.2024         0.090006   
     47. A(O  15,N  14,O  16)          124.4630         0.489527   
     48. A(C   3,N  14,O  16)          117.7470         0.425653   
     49. A(C   3,N  14,O  15)          117.7900         0.425774   
     50. A(N  14,O  15,H  17)          105.1365         0.090413   
     51. A(N  14,O  16,H  17)          113.4945         0.090613   
     52. A(N  14,H  17,O  15)            8.6611         0.089004   
     53. A(O  15,H  17,O  16)           16.8882         0.089006   
     54. A(N  14,H  17,O  16)            8.2284         0.089004   
     55. D(H  10,C   1,C   0,C   5)    179.6676         0.023724   
     56. D(C   2,C   1,C   0,C   5)     -0.2166         0.023724   
     57. D(C   2,C   1,C   0,C   6)    178.7360         0.023724   
     58. D(H  10,C   1,C   0,C   6)     -1.3798         0.023724   
     59. D(C   3,C   2,C   1,C   0)      0.0680         0.026631   
     60. D(C   3,C   2,C   1,H  10)   -179.8165         0.026631   
     61. D(H  11,C   2,C   1,H  10)      0.0138         0.026631   
     62. D(H  11,C   2,C   1,C   0)    179.8982         0.026631   
     63. D(N  14,C   3,C   2,H  11)      0.0090         0.025790   
     64. D(C   4,C   3,C   2,H  11)   -179.7595         0.025790   
     65. D(N  14,C   3,C   2,C   1)    179.8436         0.025790   
     66. D(C   4,C   3,C   2,C   1)      0.0750         0.025790   
     67. D(C   5,C   4,C   3,N  14)   -179.8309         0.026050   
     68. D(H  12,C   4,C   3,C   2)    179.7605         0.026050   
     69. D(C   5,C   4,C   3,C   2)     -0.0624         0.026050   
     70. D(H  12,C   4,C   3,N  14)     -0.0080         0.026050   
     71. D(H  13,C   5,C   4,H  12)     -0.0117         0.026320   
     72. D(C   0,C   5,C   4,C   3)     -0.0937         0.026320   
     73. D(H  13,C   5,C   4,C   3)    179.8067         0.026320   
     74. D(H  13,C   5,C   0,C   6)      1.3821         0.024005   
     75. D(C   0,C   5,C   4,H  12)   -179.9121         0.026320   
     76. D(H  13,C   5,C   0,C   1)   -179.6705         0.024005   
     77. D(C   4,C   5,C   0,C   6)   -178.7177         0.024005   
     78. D(C   4,C   5,C   0,C   1)      0.2297         0.024005   
     79. D(H   9,C   6,C   0,C   5)    100.0535         0.012359   
     80. D(H   9,C   6,C   0,C   1)    -78.8710         0.012359   
     81. D(H   8,C   6,C   0,C   5)   -141.0247         0.012359   
     82. D(H   8,C   6,C   0,C   1)     40.0508         0.012359   
     83. D(H   7,C   6,C   0,C   5)    -19.5961         0.012359   
     84. D(H   7,C   6,C   0,C   1)    161.4795         0.012359   
     85. D(O  15,N  14,C   3,C   2)   -179.9405         0.014701   
     86. D(O  16,N  14,C   3,C   4)    179.8360         0.014701   
     87. D(O  16,N  14,C   3,C   2)      0.0614         0.014701   
     88. D(O  15,N  14,C   3,C   4)     -0.1659         0.014701   
     89. D(H  17,O  15,N  14,O  16)     -1.4625         0.091022   
     90. D(H  17,O  15,N  14,C   3)    178.5395         0.091022   
     91. D(H  17,O  16,N  14,O  15)      1.5733         0.090688   
     92. D(H  17,O  16,N  14,C   3)   -178.4288         0.090688   
     93. D(O  15,H  17,O  16,N  14)     -0.7348         0.001500   
     94. D(O  16,H  17,O  15,N  14)      0.6984         0.001500   
     95. D(O  16,H  17,N  14,O  15)   -178.5824         0.001500   
     96. D(O  15,H  17,N  14,O  16)    178.5824         0.001500   
     97. D(O  16,H  17,C   3,C   4)   -178.4283         0.001500   
     98. D(O  16,H  17,C   3,C   2)      3.0619         0.001500   
     99. D(O  15,H  17,C   3,C   4)     -2.7417         0.001500   
    100. D(O  15,H  17,C   3,C   2)    178.7485         0.001500   
    -----------------------------------------------------------------

Number of atoms                         .... 18
Number of degrees of freedom            .... 100

         *************************************************************
         *                GEOMETRY OPTIMIZATION CYCLE   1            *
         *************************************************************
---------------------------------
CARTESIAN COORDINATES (ANGSTROEM)
---------------------------------
  C     -5.771909    0.977230   -0.004297
  C     -6.818433    1.430238   -0.828201
  C     -7.411483    0.592908   -1.768780
  C     -6.949073   -0.719300   -1.884093
  C     -5.915864   -1.205549   -1.083186
  C     -5.335946   -0.351055   -0.147639
  C     -5.122568    1.904685    0.988358
  H     -4.572936    1.350674    1.763227
  H     -5.865660    2.549309    1.482982
  H     -4.401870    2.570938    0.482548
  H     -7.175107    2.458731   -0.727732
  H     -8.223558    0.932352   -2.410935
  H     -5.586630   -2.237405   -1.201708
  H     -4.527730   -0.723080    0.487164
  N     -7.571377   -1.613679   -2.872739
  O     -7.148309   -2.757543   -2.952223
  O     -8.476699   -1.161628   -3.558905
  H    -11.332290   -6.015610   -8.150630

----------------------------
CARTESIAN COORDINATES (A.U.)
----------------------------
  NO LB      ZA    FRAG     MASS         X           Y           Z
   0 C     6.0000    0    12.011  -10.907327    1.846698   -0.008121
   1 C     6.0000    0    12.011  -12.884972    2.702757   -1.565073
   2 C     6.0000    0    12.011  -14.005672    1.120435   -3.342511
   3 C     6.0000    0    12.011  -13.131845   -1.359280   -3.560420
   4 C     6.0000    0    12.011  -11.179362   -2.278158   -2.046924
   5 C     6.0000    0    12.011  -10.083476   -0.663398   -0.278998
   6 C     6.0000    0    12.011   -9.680251    3.599333    1.867725
   7 H     1.0000    0     1.008   -8.641597    2.552405    3.332017
   8 H     1.0000    0     1.008  -11.084491    4.817495    2.802429
   9 H     1.0000    0     1.008   -8.318328    4.858370    0.911883
  10 H     1.0000    0     1.008  -13.558988    4.646328   -1.375214
  11 H     1.0000    0     1.008  -15.540273    1.761889   -4.556007
  12 H     1.0000    0     1.008  -10.557200   -4.228084   -2.270899
  13 H     1.0000    0     1.008   -8.556169   -1.366423    0.920606
  14 N     7.0000    0    14.007  -14.307829   -3.049412   -5.428691
  15 O     8.0000    0    15.999  -13.508347   -5.211001   -5.578893
  16 O     8.0000    0    15.999  -16.018639   -2.195158   -6.725356
  17 H     1.0000    0     1.008  -21.414925  -11.367855  -15.402459

--------------------------------
INTERNAL COORDINATES (ANGSTROEM)
--------------------------------
 C      0   0   0     0.000000000000     0.00000000     0.00000000
 C      1   0   0     1.406856738324     0.00000000     0.00000000
 C      2   1   0     1.391947158250   121.26276948     0.00000000
 C      3   2   1     1.396069782038   118.69268852     0.06797973
 C      4   3   2     1.394780648506   121.70924172     0.07501350
 C      5   4   3     1.393453195316   118.68728185   359.93759978
 C      1   2   3     1.505715585915   120.56682696   178.73598521
 H      7   1   2     1.099748209799   111.69966155   161.47945819
 H      7   1   2     1.101080786112   111.45180910    40.05079979
 H      7   1   2     1.104148285349   110.55788329   281.12898864
 H      2   1   3     1.093210363992   119.45990251   179.88423233
 H      3   2   1     1.089518560039   121.89858928   179.89820499
 H      5   4   3     1.089573194282   119.44099440   179.76050542
 H      6   5   4     1.092973587745   119.27240753   179.80671376
 N      4   3   2     1.471257365336   119.12982875   179.84357826
 O     15   4   3     1.222181441253   117.79000264   180.05953275
 O     15   4   3     1.222612360525   117.74703402     0.06141681
 H     17  15   4     7.266325423692   113.49447168   181.57123444

---------------------------
INTERNAL COORDINATES (A.U.)
---------------------------
 C      0   0   0     0.000000000000     0.00000000     0.00000000
 C      1   0   0     2.658573945095     0.00000000     0.00000000
 C      2   1   0     2.630398921983   121.26276948     0.00000000
 C      3   2   1     2.638189551895   118.69268852     0.06797973
 C      4   3   2     2.635753442570   121.70924172     0.07501350
 C      5   4   3     2.633244919584   118.68728185   359.93759978
 C      1   2   3     2.845390092956   120.56682696   178.73598521
 H      7   1   2     2.078222932791   111.69966155   161.47945819
 H      7   1   2     2.080741137074   111.45180910    40.05079979
 H      7   1   2     2.086537870549   110.55788329   281.12898864
 H      2   1   3     2.065868194710   119.45990251   179.88423233
 H      3   2   1     2.058891696298   121.89858928   179.89820499
 H      5   4   3     2.058994940056   119.44099440   179.76050542
 H      6   5   4     2.065420752447   119.27240753   179.80671376
 N      4   3   2     2.780273492999   119.12982875   179.84357826
 O     15   4   3     2.309588209929   117.79000264   180.05953275
 O     15   4   3     2.310402529338   117.74703402     0.06141681
 H     17  15   4    13.731365050727   113.49447168   181.57123444

---------------------
BASIS SET INFORMATION
---------------------
There are 4 groups of distinct atoms

 Group   1 Type C   : 7s4p1d contracted to 3s2p1d pattern {511/31/1}
 Group   2 Type H   : 4s1p contracted to 2s1p pattern {31/1}
 Group   3 Type N   : 7s4p1d contracted to 3s2p1d pattern {511/31/1}
 Group   4 Type O   : 7s4p1d contracted to 3s2p1d pattern {511/31/1}

Atom   0C    basis set group =>   1
Atom   1C    basis set group =>   1
Atom   2C    basis set group =>   1
Atom   3C    basis set group =>   1
Atom   4C    basis set group =>   1
Atom   5C    basis set group =>   1
Atom   6C    basis set group =>   1
Atom   7H    basis set group =>   2
Atom   8H    basis set group =>   2
Atom   9H    basis set group =>   2
Atom  10H    basis set group =>   2
Atom  11H    basis set group =>   2
Atom  12H    basis set group =>   2
Atom  13H    basis set group =>   2
Atom  14N    basis set group =>   3
Atom  15O    basis set group =>   4
Atom  16O    basis set group =>   4
Atom  17H    basis set group =>   2
---------------------------------
AUXILIARY/J BASIS SET INFORMATION
---------------------------------
There are 4 groups of distinct atoms

 Group   1 Type C   : 12s5p4d2f1g contracted to 6s4p3d1f1g pattern {711111/2111/211/2/1}
 Group   2 Type H   : 5s2p1d contracted to 3s1p1d pattern {311/2/1}
 Group   3 Type N   : 12s5p4d2f1g contracted to 6s4p3d1f1g pattern {711111/2111/211/2/1}
 Group   4 Type O   : 12s5p4d2f1g contracted to 6s4p3d1f1g pattern {711111/2111/211/2/1}

Atom   0C    basis set group =>   1
Atom   1C    basis set group =>   1
Atom   2C    basis set group =>   1
Atom   3C    basis set group =>   1
Atom   4C    basis set group =>   1
Atom   5C    basis set group =>   1
Atom   6C    basis set group =>   1
Atom   7H    basis set group =>   2
Atom   8H    basis set group =>   2
Atom   9H    basis set group =>   2
Atom  10H    basis set group =>   2
Atom  11H    basis set group =>   2
Atom  12H    basis set group =>   2
Atom  13H    basis set group =>   2
Atom  14N    basis set group =>   3
Atom  15O    basis set group =>   4
Atom  16O    basis set group =>   4
Atom  17H    basis set group =>   2
------------------------------------------------------------------------------
                           ORCA GTO INTEGRAL CALCULATION
                           -- RI-GTO INTEGRALS CHOSEN --
------------------------------------------------------------------------------
------------------------------------------------------------------------------
                   ___                                                        
                  /   \      - P O W E R E D   B Y -                         
                 /     \                                                     
                 |  |  |   _    _      __       _____    __    __             
                 |  |  |  | |  | |    /  \     |  _  \  |  |  /  |          
                  \  \/   | |  | |   /    \    | | | |  |  | /  /          
                 / \  \   | |__| |  /  /\  \   | |_| |  |  |/  /          
                |  |  |   |  __  | /  /__\  \  |    /   |      \           
                |  |  |   | |  | | |   __   |  |    \   |  |\   \          
                \     /   | |  | | |  |  |  |  | |\  \  |  | \   \       
                 \___/    |_|  |_| |__|  |__|  |_| \__\ |__|  \__/        
                                                                              
                      - O R C A' S   B I G   F R I E N D -                    
                                      &                                       
                       - I N T E G R A L  F E E D E R -                       
                                                                              
 v1 FN, 2020, v2 2021                                                         
------------------------------------------------------------------------------


Reading SHARK input file para_p_opt_3.SHARKINP.tmp ... ok
----------------------
SHARK INTEGRAL PACKAGE
----------------------

Number of atoms                             ...     18
Number of basis functions                   ...    180
Number of shells                            ...     84
Maximum angular momentum                    ...      2
Integral batch strategy                     ... SHARK/LIBINT Hybrid
RI-J (if used) integral strategy            ... SPLIT-RIJ (Revised 2003 algorithm where possible)
Printlevel                                  ...      1
Contraction scheme used                     ... SEGMENTED contraction
Coulomb Range Separation                    ... NOT USED
Exchange Range Separation                   ... NOT USED
Finite Nucleus Model                        ... NOT USED
Auxiliary Coulomb fitting basis             ... AVAILABLE
   # of basis functions in Aux-J            ...    578
   # of shells in Aux-J                     ...    190
   Maximum angular momentum in Aux-J        ...      4
Auxiliary J/K fitting basis                 ... NOT available
Auxiliary Correlation fitting basis         ... NOT available
Auxiliary 'external' fitting basis          ... NOT available
Integral threshold                          ...     2.500000e-11
Primitive cut-off                           ...     2.500000e-12
Primitive pair pre-selection threshold      ...     2.500000e-12

Calculating pre-screening integrals         ... done (  0.2 sec) Dimension = 84
Organizing shell pair data                  ... done (  0.1 sec)
Shell pair information
Total number of shell pairs                 ...      3570
Shell pairs after pre-screening             ...      3020
Total number of primitive shell pairs       ...     13034
Primitive shell pairs kept                  ...      7947
          la=0 lb=0:    906 shell pairs
          la=1 lb=0:   1093 shell pairs
          la=1 lb=1:    345 shell pairs
          la=2 lb=0:    388 shell pairs
          la=2 lb=1:    240 shell pairs
          la=2 lb=2:     48 shell pairs

Calculating one electron integrals          ... done (  0.1 sec)
Calculating RI/J V-Matrix + Cholesky decomp.... done (  0.1 sec)
Calculating Nuclear repulsion               ... done (  0.0 sec) ENN=    495.616032783717 Eh

SHARK setup successfully completed in   0.7 seconds

Maximum memory used throughout the entire GTOINT-calculation: 24.6 MB
-------------------------------------------------------------------------------
                                 ORCA SCF
-------------------------------------------------------------------------------

------------
SCF SETTINGS
------------
Hamiltonian:
 Density Functional     Method          .... DFT(GTOs)
 Exchange Functional    Exchange        .... B88
   X-Alpha parameter    XAlpha          ....  0.666667
   Becke's b parameter  XBeta           ....  0.004200
 Correlation Functional Correlation     .... LYP
 LDA part of GGA corr.  LDAOpt          .... VWN-5
 Gradients option       PostSCFGGA      .... off
 Hybrid DFT is turned on
   Fraction HF Exchange ScalHFX         ....  0.200000
   Scaling of DF-GGA-X  ScalDFX         ....  0.720000
   Scaling of DF-GGA-C  ScalDFC         ....  0.810000
   Scaling of DF-LDA-C  ScalLDAC        ....  1.000000
   Perturbative correction              ....  0.000000
   Density functional embedding theory  .... OFF
   NL short-range parameter             ....  4.800000
 RI-approximation to the Coulomb term is turned on
   Number of AuxJ basis functions       .... 578
   RIJ-COSX (HFX calculated with COS-X)).... on


General Settings:
 Integral files         IntName         .... para_p_opt_3
 Hartree-Fock type      HFTyp           .... RHF
 Total Charge           Charge          ....    1
 Multiplicity           Mult            ....    1
 Number of Electrons    NEL             ....   72
 Basis Dimension        Dim             ....  180
 Nuclear Repulsion      ENuc            ....    495.6160327837 Eh

Convergence Acceleration:
 DIIS                   CNVDIIS         .... on
   Start iteration      DIISMaxIt       ....    12
   Startup error        DIISStart       ....  0.200000
   # of expansion vecs  DIISMaxEq       ....     5
   Bias factor          DIISBfac        ....   1.050
   Max. coefficient     DIISMaxC        ....  10.000
 Trust-Rad. Augm. Hess. CNVTRAH         .... auto
   Auto Start mean grad. ratio tolernc. ....  1.125000
   Auto Start start iteration           ....    20
   Auto Start num. interpolation iter.  ....    10
   Max. Number of Micro iterations      ....    16
   Max. Number of Macro iterations      .... Maxiter - #DIIS iter
   Number of Davidson start vectors     ....     2
   Converg. threshold I  (grad. norm)   ....   1.000e-05
   Converg. threshold II (energy diff.) ....   1.000e-08
   Grad. Scal. Fac. for Micro threshold ....   0.100
   Minimum threshold for Micro iter.    ....   0.010
   NR start threshold (gradient norm)   ....   0.001
   Initial trust radius                 ....   0.400
   Minimum AH scaling param. (alpha)    ....   1.000
   Maximum AH scaling param. (alpha)    .... 1000.000
   Orbital update algorithm             .... Taylor
   White noise on init. David. guess    .... on
   Maximum white noise                  ....   0.010
   Quad. conv. algorithm                .... NR
 SOSCF                  CNVSOSCF        .... on
   Start iteration      SOSCFMaxIt      ....   150
   Startup grad/error   SOSCFStart      ....  0.003300
 Level Shifting         CNVShift        .... on
   Level shift para.    LevelShift      ....    0.2500
   Turn off err/grad.   ShiftErr        ....    0.0010
 Zerner damping         CNVZerner       .... off
 Static damping         CNVDamp         .... on
   Fraction old density DampFac         ....    0.7000
   Max. Damping (<1)    DampMax         ....    0.9800
   Min. Damping (>=0)   DampMin         ....    0.0000
   Turn off err/grad.   DampErr         ....    0.1000
 Fernandez-Rico         CNVRico         .... off

SCF Procedure:
 Maximum # iterations   MaxIter         ....   125
 SCF integral mode      SCFMode         .... Direct
   Integral package                     .... SHARK and LIBINT hybrid scheme
 Reset frequency        DirectResetFreq ....    20
 Integral Threshold     Thresh          ....  2.500e-11 Eh
 Primitive CutOff       TCut            ....  2.500e-12 Eh

Convergence Tolerance:
 Convergence Check Mode ConvCheckMode   .... Total+1el-Energy
 Convergence forced     ConvForced      .... 0
 Energy Change          TolE            ....  1.000e-08 Eh
 1-El. energy change                    ....  1.000e-05 Eh
 Orbital Gradient       TolG            ....  1.000e-05
 Orbital Rotation angle TolX            ....  1.000e-05
 DIIS Error             TolErr          ....  5.000e-07


Diagonalization of the overlap matrix:
Smallest eigenvalue                        ... 2.746e-04
Time for diagonalization                   ...    0.014 sec
Threshold for overlap eigenvalues          ... 1.000e-08
Number of eigenvalues below threshold      ... 0
Time for construction of square roots      ...    0.007 sec
Total time needed                          ...    0.021 sec

Time for model grid setup =    1.247 sec

------------------------------
INITIAL GUESS: MODEL POTENTIAL
------------------------------
Loading Hartree-Fock densities                     ... done
Calculating cut-offs                               ... done
Initializing the effective Hamiltonian             ... done
Setting up the integral package (SHARK)            ... done
Starting the Coulomb interaction                   ... done (   1.7 sec)
Reading the grid                                   ... done
Mapping shells                                     ... done
Starting the XC term evaluation                    ... done (   1.5 sec)
  promolecular density results
     # of electrons  =     72.987560956
     EX              =    -61.273667591
     EC              =     -2.480370295
     EX+EC           =    -63.754037886
Transforming the Hamiltonian                       ... done (   0.0 sec)
Diagonalizing the Hamiltonian                      ... done (   0.0 sec)
Back transforming the eigenvectors                 ... done (   0.0 sec)
Now organizing SCF variables                       ... done
                      ------------------
                      INITIAL GUESS DONE (   4.5 sec)
                      ------------------
-------------------
DFT GRID GENERATION
-------------------

General Integration Accuracy     IntAcc      ... 4.388
Radial Grid Type                 RadialGrid  ... OptM3 with GC (2021)
Angular Grid (max. ang.)         AngularGrid ... 4 (Lebedev-302)
Angular grid pruning method      GridPruning ... 4 (adaptive)
Weight generation scheme         WeightScheme... Becke
Basis function cutoff            BFCut       ... 1.0000e-11
Integration weight cutoff        WCut        ... 1.0000e-14
Angular grids for H and He will be reduced by one unit
Partially contracted basis set               ... off
Rotationally invariant grid construction     ... off

Total number of grid points                  ...    86273
Total number of batches                      ...     1358
Average number of points per batch           ...       63
Average number of grid points per atom       ...     4793
Time for grid setup =    5.636 sec

--------------------
COSX GRID GENERATION
--------------------

GRIDX 1
-------
General Integration Accuracy     IntAcc      ... 3.816
Radial Grid Type                 RadialGrid  ... OptM3 with GC (2021)
Angular Grid (max. ang.)         AngularGrid ... 1 (Lebedev-50)
Angular grid pruning method      GridPruning ... 4 (adaptive)
Weight generation scheme         WeightScheme... Becke
Basis function cutoff            BFCut       ... 1.0000e-11
Integration weight cutoff        WCut        ... 1.0000e-14
Angular grids for H and He will be reduced by one unit
Partially contracted basis set               ... on
Rotationally invariant grid construction     ... off

Total number of grid points                  ...    11012
Total number of batches                      ...      179
Average number of points per batch           ...       61
Average number of grid points per atom       ...      612
UseSFitting                                  ... on

GRIDX 2
-------
General Integration Accuracy     IntAcc      ... 4.020
Radial Grid Type                 RadialGrid  ... OptM3 with GC (2021)
Angular Grid (max. ang.)         AngularGrid ... 2 (Lebedev-110)
Angular grid pruning method      GridPruning ... 4 (adaptive)
Weight generation scheme         WeightScheme... Becke
Basis function cutoff            BFCut       ... 1.0000e-11
Integration weight cutoff        WCut        ... 1.0000e-14
Angular grids for H and He will be reduced by one unit
Partially contracted basis set               ... on
Rotationally invariant grid construction     ... off

Total number of grid points                  ...    24253
Total number of batches                      ...      389
Average number of points per batch           ...       62
Average number of grid points per atom       ...     1347
UseSFitting                                  ... on

GRIDX 3
-------
General Integration Accuracy     IntAcc      ... 4.338
Radial Grid Type                 RadialGrid  ... OptM3 with GC (2021)
Angular Grid (max. ang.)         AngularGrid ... 3 (Lebedev-194)
Angular grid pruning method      GridPruning ... 4 (adaptive)
Weight generation scheme         WeightScheme... Becke
Basis function cutoff            BFCut       ... 1.0000e-11
Integration weight cutoff        WCut        ... 1.0000e-14
Angular grids for H and He will be reduced by one unit
Partially contracted basis set               ... on
Rotationally invariant grid construction     ... off

Total number of grid points                  ...    53311
Total number of batches                      ...      842
Average number of points per batch           ...       63
Average number of grid points per atom       ...     2962
UseSFitting                                  ... on

Time for X-Grid setup             =    6.936 sec

--------------
SCF ITERATIONS
--------------
ITER       Energy         Delta-E        Max-DP      RMS-DP      [F,P]     Damp
               ***  Starting incremental Fock matrix formation  ***
  0   -475.1945991561   0.000000000000 0.22369893  0.00347891  0.2122509 0.7000
  1   -475.4328423980  -0.238243241834 0.14974770  0.00222603  0.0761924 0.7000
                               ***Turning on DIIS***
  2   -475.4159779706   0.016864427422 0.37344663  0.00507630  0.0417657 0.0000
  3   -475.3961656568   0.019812313718 0.03669427  0.00131179  0.0765684 0.0000
  4   -475.4358167911  -0.039651134279 0.02128434  0.00071290  0.0496319 0.0000
  5   -475.4490824501  -0.013265658940 0.02086718  0.00077387  0.0341702 0.0000
  6   -475.4575901017  -0.008507651621 0.01305975  0.00060813  0.0196908 0.0000
  7   -475.4613771880  -0.003787086319 0.00824208  0.00041740  0.0094350 0.0000
                      *** Initiating the SOSCF procedure ***
                           *** Shutting down DIIS ***
                      *** Re-Reading the Fockian *** 
                      *** Removing any level shift *** 
ITER      Energy       Delta-E        Grad      Rot      Max-DP    RMS-DP
  8   -475.46245958  -0.0010823894  0.001788  0.001788  0.003031  0.000127
               *** Restarting incremental Fock matrix formation ***
  9   -475.46257436  -0.0001147873  0.001329  0.007411  0.001661  0.000089
 10   -475.46258349  -0.0000091214  0.000849  0.001742  0.001489  0.000059
 11   -475.46259788  -0.0000143923  0.000365  0.001061  0.000477  0.000029
 12   -475.46259828  -0.0000004064  0.000346  0.000652  0.000635  0.000015
 13   -475.46259940  -0.0000011125  0.000260  0.000488  0.000396  0.000014
 14   -475.46259929   0.0000001072  0.000199  0.000277  0.000273  0.000009
 15   -475.46259988  -0.0000005944  0.000089  0.000140  0.000158  0.000005
 16   -475.46259989  -0.0000000084  0.000077  0.000072  0.000086  0.000002
 17   -475.46259994  -0.0000000510  0.000020  0.000051  0.000054  0.000002
 18   -475.46259995  -0.0000000027  0.000019  0.000025  0.000024  0.000001
                  ***Gradient check signals convergence***
              ***Rediagonalizing the Fockian in SOSCF/NRSCF***

               *****************************************************
               *                     SUCCESS                       *
               *           SCF CONVERGED AFTER  19 CYCLES          *
               *****************************************************

Old exchange energy                            =    -12.325520126 Eh
New exchange energy                            =    -12.325572592 Eh
Exchange energy change after final integration =     -0.000052466 Eh
Total energy after final integration           =   -475.462652419 Eh
Final COS-X integration done in                =    44.076 sec

----------------
TOTAL SCF ENERGY
----------------

Total Energy       :         -475.46265242 Eh          -12937.99653 eV

Components:
Nuclear Repulsion  :          495.61603278 Eh           13486.39789 eV
Electronic Energy  :         -971.07868520 Eh          -26424.39441 eV
One Electron Energy:        -1623.75106538 Eh          -44184.51279 eV
Two Electron Energy:          652.67238018 Eh           17760.11837 eV
Max COSX asymmetry :            0.00000320 Eh               0.00009 eV

Virial components:
Potential Energy   :         -946.73280109 Eh          -25761.90923 eV
Kinetic Energy     :          471.27014867 Eh           12823.91270 eV
Virial Ratio       :            2.00889618


DFT components:
N(Alpha)           :       35.999976248951 electrons
N(Beta)            :       35.999976248951 electrons
N(Total)           :       71.999952497901 electrons
E(X)               :      -49.056820879125 Eh       
E(C)               :       -2.906418409163 Eh       
E(XC)              :      -51.963239288288 Eh       
DFET-embed. en.    :        0.000000000000 Eh       

---------------
SCF CONVERGENCE
---------------

  Last Energy change         ...   -6.4026e-09  Tolerance :   1.0000e-08
  Last MAX-Density change    ...    3.1086e-15  Tolerance :   1.0000e-07
  Last RMS-Density change    ...    4.7417e-17  Tolerance :   5.0000e-09
  Last Orbital Gradient      ...    1.9508e-06  Tolerance :   1.0000e-05
  Last Orbital Rotation      ...    1.4979e-05  Tolerance :   1.0000e-05

             **** THE GBW FILE WAS UPDATED (para_p_opt_3.gbw) ****
             **** DENSITY para_p_opt_3.scfp WAS UPDATED ****
             **** ENERGY FILE WAS UPDATED (para_p_opt_3.en.tmp) ****
             **** THE GBW FILE WAS UPDATED (para_p_opt_3.gbw) ****
             **** DENSITY para_p_opt_3.scfp WAS UPDATED ****
----------------
ORBITAL ENERGIES
----------------

  NO   OCC          E(Eh)            E(eV) 
   0   2.0000     -19.218374      -522.9586 
   1   2.0000     -19.218343      -522.9577 
   2   2.0000     -14.615237      -397.7008 
   3   2.0000     -10.298850      -280.2460 
   4   2.0000     -10.273733      -279.5625 
   5   2.0000     -10.269357      -279.4434 
   6   2.0000     -10.269259      -279.4408 
   7   2.0000     -10.261413      -279.2273 
   8   2.0000     -10.261357      -279.2257 
   9   2.0000     -10.249240      -278.8960 
  10   2.0000      -1.278439       -34.7881 
  11   2.0000      -1.103642       -30.0316 
  12   2.0000      -0.936262       -25.4770 
  13   2.0000      -0.864889       -23.5348 
  14   2.0000      -0.815303       -22.1855 
  15   2.0000      -0.787733       -21.4353 
  16   2.0000      -0.708689       -19.2844 
  17   2.0000      -0.680359       -18.5135 
  18   2.0000      -0.636141       -17.3103 
  19   2.0000      -0.611314       -16.6347 
  20   2.0000      -0.597041       -16.2463 
  21   2.0000      -0.569072       -15.4852 
  22   2.0000      -0.536175       -14.5901 
  23   2.0000      -0.535558       -14.5733 
  24   2.0000      -0.510616       -13.8946 
  25   2.0000      -0.497400       -13.5349 
  26   2.0000      -0.484120       -13.1736 
  27   2.0000      -0.450359       -12.2549 
  28   2.0000      -0.433289       -11.7904 
  29   2.0000      -0.431555       -11.7432 
  30   2.0000      -0.415864       -11.3162 
  31   2.0000      -0.370799       -10.0899 
  32   2.0000      -0.368522       -10.0280 
  33   2.0000      -0.351237        -9.5576 
  34   2.0000      -0.331103        -9.0098 
  35   2.0000      -0.324942        -8.8421 
  36   0.0000      -0.518155       -14.0997 
  37   0.0000      -0.144843        -3.9414 
  38   0.0000      -0.082876        -2.2552 
  39   0.0000      -0.055195        -1.5019 
  40   0.0000       0.005289         0.1439 
  41   0.0000       0.028147         0.7659 
  42   0.0000       0.036809         1.0016 
  43   0.0000       0.061031         1.6607 
  44   0.0000       0.077569         2.1108 
  45   0.0000       0.085228         2.3192 
  46   0.0000       0.102372         2.7857 
  47   0.0000       0.110130         2.9968 
  48   0.0000       0.121547         3.3075 
  49   0.0000       0.159958         4.3527 
  50   0.0000       0.164493         4.4761 
  51   0.0000       0.199418         5.4264 
  52   0.0000       0.211829         5.7642 
  53   0.0000       0.231976         6.3124 
  54   0.0000       0.240258         6.5378 
  55   0.0000       0.247515         6.7352 
  56   0.0000       0.283536         7.7154 
  57   0.0000       0.303015         8.2455 
  58   0.0000       0.339978         9.2513 
  59   0.0000       0.345668         9.4061 
  60   0.0000       0.365490         9.9455 
  61   0.0000       0.377419        10.2701 
  62   0.0000       0.384635        10.4664 
  63   0.0000       0.404845        11.0164 
  64   0.0000       0.405942        11.0462 
  65   0.0000       0.417572        11.3627 
  66   0.0000       0.438603        11.9350 
  67   0.0000       0.465177        12.6581 
  68   0.0000       0.501861        13.6563 
  69   0.0000       0.506198        13.7743 
  70   0.0000       0.530833        14.4447 
  71   0.0000       0.555787        15.1237 
  72   0.0000       0.565531        15.3889 
  73   0.0000       0.568582        15.4719 
  74   0.0000       0.573857        15.6155 
  75   0.0000       0.584190        15.8966 
  76   0.0000       0.599329        16.3086 
  77   0.0000       0.604082        16.4379 
  78   0.0000       0.618778        16.8378 
  79   0.0000       0.619679        16.8623 
  80   0.0000       0.633717        17.2443 
  81   0.0000       0.652439        17.7538 
  82   0.0000       0.659788        17.9537 
  83   0.0000       0.663778        18.0623 
  84   0.0000       0.703640        19.1470 
  85   0.0000       0.715091        19.4586 
  86   0.0000       0.728127        19.8133 
  87   0.0000       0.750627        20.4256 
  88   0.0000       0.766537        20.8585 
  89   0.0000       0.833707        22.6863 
  90   0.0000       0.850138        23.1334 
  91   0.0000       0.875115        23.8131 
  92   0.0000       0.893130        24.3033 
  93   0.0000       0.917365        24.9628 
  94   0.0000       0.931765        25.3546 
  95   0.0000       0.960864        26.1464 
  96   0.0000       0.988006        26.8850 
  97   0.0000       1.030894        28.0521 
  98   0.0000       1.030899        28.0522 
  99   0.0000       1.030980        28.0544 
 100   0.0000       1.040617        28.3166 
 101   0.0000       1.083516        29.4840 
 102   0.0000       1.119349        30.4590 
 103   0.0000       1.159731        31.5579 
 104   0.0000       1.169155        31.8143 
 105   0.0000       1.173524        31.9332 
 106   0.0000       1.181559        32.1519 
 107   0.0000       1.189634        32.3716 
 108   0.0000       1.209777        32.9197 
 109   0.0000       1.231911        33.5220 
 110   0.0000       1.281474        34.8707 
 111   0.0000       1.330302        36.1994 
 112   0.0000       1.353358        36.8267 
 113   0.0000       1.403850        38.2007 
 114   0.0000       1.422217        38.7005 
 115   0.0000       1.433663        39.0120 
 116   0.0000       1.462433        39.7948 
 117   0.0000       1.482460        40.3398 
 118   0.0000       1.602368        43.6026 
 119   0.0000       1.620604        44.0989 
 120   0.0000       1.632138        44.4127 
 121   0.0000       1.647299        44.8253 
 122   0.0000       1.668378        45.3989 
 123   0.0000       1.675535        45.5936 
 124   0.0000       1.679152        45.6921 
 125   0.0000       1.710985        46.5583 
 126   0.0000       1.717173        46.7267 
 127   0.0000       1.721608        46.8473 
 128   0.0000       1.729097        47.0511 
 129   0.0000       1.748378        47.5758 
 130   0.0000       1.774361        48.2828 
 131   0.0000       1.827862        49.7386 
 132   0.0000       1.862425        50.6792 
 133   0.0000       1.871667        50.9307 
 134   0.0000       1.908769        51.9403 
 135   0.0000       1.941887        52.8414 
 136   0.0000       1.960284        53.3420 
 137   0.0000       1.985286        54.0224 
 138   0.0000       2.015171        54.8356 
 139   0.0000       2.026210        55.1360 
 140   0.0000       2.048256        55.7359 
 141   0.0000       2.079513        56.5864 
 142   0.0000       2.089216        56.8505 
 143   0.0000       2.190804        59.6148 
 144   0.0000       2.211645        60.1819 
 145   0.0000       2.223285        60.4987 
 146   0.0000       2.229433        60.6659 
 147   0.0000       2.242004        61.0080 
 148   0.0000       2.279943        62.0404 
 149   0.0000       2.315805        63.0163 
 150   0.0000       2.331606        63.4462 
 151   0.0000       2.381754        64.8108 
 152   0.0000       2.396057        65.2000 
 153   0.0000       2.407346        65.5072 
 154   0.0000       2.489173        67.7339 
 155   0.0000       2.533634        68.9437 
 156   0.0000       2.546088        69.2826 
 157   0.0000       2.547101        69.3101 
 158   0.0000       2.568357        69.8885 
 159   0.0000       2.591755        70.5252 
 160   0.0000       2.598395        70.7059 
 161   0.0000       2.630262        71.5731 
 162   0.0000       2.657089        72.3031 
 163   0.0000       2.660468        72.3950 
 164   0.0000       2.697064        73.3908 
 165   0.0000       2.727578        74.2212 
 166   0.0000       2.788096        75.8680 
 167   0.0000       2.821237        76.7698 
 168   0.0000       2.851240        77.5862 
 169   0.0000       2.869066        78.0713 
 170   0.0000       2.923724        79.5586 
 171   0.0000       2.991272        81.3967 
 172   0.0000       3.020342        82.1877 
 173   0.0000       3.104505        84.4779 
 174   0.0000       3.226261        87.7910 
 175   0.0000       3.242248        88.2261 
 176   0.0000       3.324208        90.4563 
 177   0.0000       3.522911        95.8633 
 178   0.0000       3.714911       101.0879 
 179   0.0000       3.717972       101.1712 

                    ********************************
                    * MULLIKEN POPULATION ANALYSIS *
                    ********************************

-----------------------
MULLIKEN ATOMIC CHARGES
-----------------------
   0 C :   -0.015878
   1 C :   -0.009665
   2 C :   -0.007554
   3 C :    0.165038
   4 C :   -0.006927
   5 C :   -0.009281
   6 C :    0.073570
   7 H :    0.024554
   8 H :    0.033129
   9 H :    0.047539
  10 H :   -0.009431
  11 H :    0.003438
  12 H :    0.005111
  13 H :   -0.008700
  14 N :    0.232548
  15 O :   -0.256737
  16 O :   -0.260754
  17 H :    1.000000
Sum of atomic charges:    1.0000000

--------------------------------
MULLIKEN REDUCED ORBITAL CHARGES
--------------------------------
  0 C s       :     3.070262  s :     3.070262
      pz      :     0.961011  p :     2.902099
      px      :     0.962825
      py      :     0.978263
      dz2     :     0.007637  d :     0.043517
      dxz     :     0.006745
      dyz     :     0.009553
      dx2y2   :     0.009723
      dxy     :     0.009858
  1 C s       :     3.224219  s :     3.224219
      pz      :     0.945277  p :     2.751661
      px      :     0.958503
      py      :     0.847881
      dz2     :     0.006781  d :     0.033785
      dxz     :     0.005954
      dyz     :     0.006522
      dx2y2   :     0.007503
      dxy     :     0.007025
  2 C s       :     3.268353  s :     3.268353
      pz      :     0.870050  p :     2.704795
      px      :     0.855724
      py      :     0.979021
      dz2     :     0.005773  d :     0.034405
      dxz     :     0.005458
      dyz     :     0.007279
      dx2y2   :     0.008237
      dxy     :     0.007658
  3 C s       :     3.013254  s :     3.013254
      pz      :     0.945992  p :     2.773470
      px      :     0.958462
      py      :     0.869016
      dz2     :     0.006839  d :     0.048238
      dxz     :     0.007022
      dyz     :     0.013407
      dx2y2   :     0.009171
      dxy     :     0.011798
  4 C s       :     3.269983  s :     3.269983
      pz      :     0.943400  p :     2.702579
      px      :     0.961752
      py      :     0.797427
      dz2     :     0.007395  d :     0.034365
      dxz     :     0.006070
      dyz     :     0.006538
      dx2y2   :     0.008171
      dxy     :     0.006191
  5 C s       :     3.221144  s :     3.221144
      pz      :     0.913807  p :     2.754286
      px      :     0.904513
      py      :     0.935966
      dz2     :     0.005201  d :     0.033851
      dxz     :     0.005131
      dyz     :     0.008092
      dx2y2   :     0.007637
      dxy     :     0.007790
  6 C s       :     2.945859  s :     2.945859
      pz      :     0.974064  p :     2.953039
      px      :     0.995385
      py      :     0.983590
      dz2     :     0.002747  d :     0.027532
      dxz     :     0.007137
      dyz     :     0.008016
      dx2y2   :     0.001413
      dxy     :     0.008220
  7 H s       :     0.952270  s :     0.952270
      pz      :     0.009470  p :     0.023177
      px      :     0.007093
      py      :     0.006614
  8 H s       :     0.943445  s :     0.943445
      pz      :     0.006761  p :     0.023426
      px      :     0.008789
      py      :     0.007875
  9 H s       :     0.928625  s :     0.928625
      pz      :     0.006416  p :     0.023837
      px      :     0.009132
      py      :     0.008288
 10 H s       :     0.986569  s :     0.986569
      pz      :     0.003961  p :     0.022862
      px      :     0.005099
      py      :     0.013803
 11 H s       :     0.972988  s :     0.972988
      pz      :     0.008402  p :     0.023575
      px      :     0.010717
      py      :     0.004456
 12 H s       :     0.971313  s :     0.971313
      pz      :     0.004064  p :     0.023577
      px      :     0.004715
      py      :     0.014798
 13 H s       :     0.985833  s :     0.985833
      pz      :     0.007849  p :     0.022868
      px      :     0.010299
      py      :     0.004720
 14 N s       :     3.299658  s :     3.299658
      pz      :     1.150329  p :     3.352774
      px      :     1.115994
      py      :     1.086451
      dz2     :     0.016604  d :     0.115020
      dxz     :     0.013562
      dyz     :     0.027466
      dx2y2   :     0.027827
      dxy     :     0.029561
 15 O s       :     3.855695  s :     3.855695
      pz      :     1.644919  p :     4.379026
      px      :     1.570121
      py      :     1.163986
      dz2     :     0.002799  d :     0.022017
      dxz     :     0.000767
      dyz     :     0.004796
      dx2y2   :     0.007071
      dxy     :     0.006584
 16 O s       :     3.854970  s :     3.854970
      pz      :     1.419482  p :     4.383841
      px      :     1.258664
      py      :     1.705695
      dz2     :     0.003862  d :     0.021943
      dxz     :     0.006396
      dyz     :     0.003146
      dx2y2   :     0.004431
      dxy     :     0.004107
 17 H s       :     0.000000  s :     0.000000
      pz      :     0.000000  p :     0.000000
      px      :     0.000000
      py      :     0.000000


                     *******************************
                     * LOEWDIN POPULATION ANALYSIS *
                     *******************************

----------------------
LOEWDIN ATOMIC CHARGES
----------------------
   0 C :    0.005726
   1 C :   -0.016314
   2 C :    0.000521
   3 C :   -0.035324
   4 C :    0.001799
   5 C :   -0.017695
   6 C :   -0.041758
   7 H :    0.034970
   8 H :    0.038948
   9 H :    0.046546
  10 H :    0.033907
  11 H :    0.039850
  12 H :    0.040650
  13 H :    0.033977
  14 N :    0.277569
  15 O :   -0.219892
  16 O :   -0.223479
  17 H :    1.000000

-------------------------------
LOEWDIN REDUCED ORBITAL CHARGES
-------------------------------
  0 C s       :     2.862673  s :     2.862673
      pz      :     0.978850  p :     3.025332
      px      :     0.994205
      py      :     1.052277
      dz2     :     0.016610  d :     0.106268
      dxz     :     0.016598
      dyz     :     0.023356
      dx2y2   :     0.024700
      dxy     :     0.025005
  1 C s       :     2.861002  s :     2.861002
      pz      :     1.015846  p :     3.066384
      px      :     1.017999
      py      :     1.032540
      dz2     :     0.016013  d :     0.088928
      dxz     :     0.017260
      dyz     :     0.017561
      dx2y2   :     0.019655
      dxy     :     0.018439
  2 C s       :     2.864012  s :     2.864012
      pz      :     1.002573  p :     3.045614
      px      :     1.000642
      py      :     1.042399
      dz2     :     0.013565  d :     0.089853
      dxz     :     0.013518
      dyz     :     0.020228
      dx2y2   :     0.022213
      dxy     :     0.020329
  3 C s       :     2.862550  s :     2.862550
      pz      :     0.986121  p :     3.050444
      px      :     1.045064
      py      :     1.019259
      dz2     :     0.016266  d :     0.122329
      dxz     :     0.018416
      dyz     :     0.033333
      dx2y2   :     0.024067
      dxy     :     0.030247
  4 C s       :     2.864292  s :     2.864292
      pz      :     1.000484  p :     3.044181
      px      :     0.998019
      py      :     1.045678
      dz2     :     0.017432  d :     0.089728
      dxz     :     0.017262
      dyz     :     0.017573
      dx2y2   :     0.020878
      dxy     :     0.016583
  5 C s       :     2.861219  s :     2.861219
      pz      :     1.012628  p :     3.067488
      px      :     1.009737
      py      :     1.045123
      dz2     :     0.012308  d :     0.088988
      dxz     :     0.012906
      dyz     :     0.022255
      dx2y2   :     0.021102
      dxy     :     0.020417
  6 C s       :     2.834102  s :     2.834102
      pz      :     1.038659  p :     3.136770
      px      :     1.055118
      py      :     1.042993
      dz2     :     0.006134  d :     0.070885
      dxz     :     0.018735
      dyz     :     0.021453
      dx2y2   :     0.003046
      dxy     :     0.021517
  7 H s       :     0.900653  s :     0.900653
      pz      :     0.026381  p :     0.064377
      px      :     0.019481
      py      :     0.018515
  8 H s       :     0.896524  s :     0.896524
      pz      :     0.017839  p :     0.064528
      px      :     0.024577
      py      :     0.022112
  9 H s       :     0.888884  s :     0.888884
      pz      :     0.017708  p :     0.064570
      px      :     0.024291
      py      :     0.022571
 10 H s       :     0.898947  s :     0.898947
      pz      :     0.012130  p :     0.067146
      px      :     0.015650
      py      :     0.039366
 11 H s       :     0.888620  s :     0.888620
      pz      :     0.025191  p :     0.071529
      px      :     0.031680
      py      :     0.014658
 12 H s       :     0.887789  s :     0.887789
      pz      :     0.013121  p :     0.071562
      px      :     0.015041
      py      :     0.043400
 13 H s       :     0.898779  s :     0.898779
      pz      :     0.022792  p :     0.067244
      px      :     0.029884
      py      :     0.014569
 14 N s       :     3.053062  s :     3.053062
      pz      :     1.150001  p :     3.427858
      px      :     1.132978
      py      :     1.144879
      dz2     :     0.033457  d :     0.241511
      dxz     :     0.029814
      dyz     :     0.055344
      dx2y2   :     0.057420
      dxy     :     0.065476
 15 O s       :     3.619671  s :     3.619671
      pz      :     1.646814  p :     4.557926
      px      :     1.591085
      py      :     1.320027
      dz2     :     0.006500  d :     0.042295
      dxz     :     0.001146
      dyz     :     0.007173
      dx2y2   :     0.014898
      dxy     :     0.012577
 16 O s       :     3.619706  s :     3.619706
      pz      :     1.478957  p :     4.561605
      px      :     1.358901
      py      :     1.723747
      dz2     :     0.005454  d :     0.042168
      dxz     :     0.014839
      dyz     :     0.005742
      dx2y2   :     0.007841
      dxy     :     0.008292
 17 H s       :     0.000000  s :     0.000000
      pz      :     0.000000  p :     0.000000
      px      :     0.000000
      py      :     0.000000


                      *****************************
                      * MAYER POPULATION ANALYSIS *
                      *****************************

  NA   - Mulliken gross atomic population
  ZA   - Total nuclear charge
  QA   - Mulliken gross atomic charge
  VA   - Mayer's total valence
  BVA  - Mayer's bonded valence
  FA   - Mayer's free valence

  ATOM       NA         ZA         QA         VA         BVA        FA
  0 C      6.0159     6.0000    -0.0159     3.9394     3.9394    -0.0000
  1 C      6.0097     6.0000    -0.0097     3.8305     3.8305     0.0000
  2 C      6.0076     6.0000    -0.0076     3.8260     3.8260     0.0000
  3 C      5.8350     6.0000     0.1650     3.7751     3.7751    -0.0000
  4 C      6.0069     6.0000    -0.0069     3.8235     3.8235    -0.0000
  5 C      6.0093     6.0000    -0.0093     3.8327     3.8327     0.0000
  6 C      5.9264     6.0000     0.0736     3.9081     3.9081     0.0000
  7 H      0.9754     1.0000     0.0246     0.9957     0.9957     0.0000
  8 H      0.9669     1.0000     0.0331     0.9922     0.9922    -0.0000
  9 H      0.9525     1.0000     0.0475     0.9891     0.9891    -0.0000
 10 H      1.0094     1.0000    -0.0094     0.9894     0.9894     0.0000
 11 H      0.9966     1.0000     0.0034     1.0160     1.0160     0.0000
 12 H      0.9949     1.0000     0.0051     1.0158     1.0158     0.0000
 13 H      1.0087     1.0000    -0.0087     0.9896     0.9896    -0.0000
 14 N      6.7675     7.0000     0.2325     3.9800     3.9800    -0.0000
 15 O      8.2567     8.0000    -0.2567     1.9494     1.9494    -0.0000
 16 O      8.2608     8.0000    -0.2608     1.9462     1.9462    -0.0000
 17 H      0.0000     1.0000     1.0000     0.0000     0.0000     0.0000

  Mayer bond orders larger than 0.100000
B(  0-C ,  1-C ) :   1.3608 B(  0-C ,  5-C ) :   1.3712 B(  0-C ,  6-C ) :   1.0680 
B(  1-C ,  2-C ) :   1.3626 B(  1-C , 10-H ) :   0.9874 B(  2-C ,  3-C ) :   1.3611 
B(  2-C , 11-H ) :   0.9840 B(  3-C ,  4-C ) :   1.3678 B(  3-C , 14-N ) :   0.8687 
B(  4-C ,  5-C ) :   1.3530 B(  4-C , 12-H ) :   0.9840 B(  5-C , 13-H ) :   0.9851 
B(  6-C ,  7-H ) :   0.9586 B(  6-C ,  8-H ) :   0.9556 B(  6-C ,  9-H ) :   0.9483 
B( 14-N , 15-O ) :   1.5432 B( 14-N , 16-O ) :   1.5399 B( 15-O , 16-O ) :   0.2705 


-------
TIMINGS
-------

Total SCF time: 0 days 0 hours 7 min 35 sec 

Total time                  ....     455.464 sec
Sum of individual times     ....     453.605 sec  ( 99.6%)

Fock matrix formation       ....     435.463 sec  ( 95.6%)
  Split-RI-J                ....      30.044 sec  (  6.9% of F)
  Chain of spheres X        ....     343.776 sec  ( 78.9% of F)
  XC integration            ....      61.312 sec  ( 14.1% of F)
    Basis function eval.    ....      23.184 sec  ( 37.8% of XC)
    Density eval.           ....      17.303 sec  ( 28.2% of XC)
    XC-Functional eval.     ....       4.622 sec  (  7.5% of XC)
    XC-Potential eval.      ....      12.803 sec  ( 20.9% of XC)
Diagonalization             ....       0.156 sec  (  0.0%)
Density matrix formation    ....       0.045 sec  (  0.0%)
Population analysis         ....       0.146 sec  (  0.0%)
Initial guess               ....       3.269 sec  (  0.7%)
Orbital Transformation      ....       0.000 sec  (  0.0%)
Orbital Orthonormalization  ....       0.000 sec  (  0.0%)
DIIS solution               ....       0.492 sec  (  0.1%)
SOSCF solution              ....       0.215 sec  (  0.0%)
Grid generation             ....      13.819 sec  (  3.0%)

Maximum memory used throughout the entire SCF-calculation: 74.8 MB


-------------------------------------------------------------------------------
                          DFT DISPERSION CORRECTION                            
                                                                               
                                 DFTD4 V2.5                                    
-------------------------------------------------------------------------------
The B3LYP functional is recognized
Active option DFTDOPT                   ...         5   

Starting D4
-------------------------   ----------------
Dispersion correction           -0.026440070
-------------------------   ----------------


-------------------------   --------------------
FINAL SINGLE POINT ENERGY      -475.489092489228
-------------------------   --------------------

------------------------------------------------------------------------------
                         ORCA SCF GRADIENT CALCULATION
------------------------------------------------------------------------------

 ... reading COSX grid (gridx3)
Gradient of the Kohn-Sham DFT energy:
Kohn-Sham wavefunction type      ... RKS
Hartree-Fock exchange scaling    ...    0.200
Number of operators              ...    1
Number of atoms                  ...   18
Basis set dimensions             ...  180
Integral neglect threshold       ... 2.5e-11
Integral primitive cutoff        ... 2.5e-12
SHARK Integral package           ... ON

Nuc. rep. gradient       (SHARK) ... done (  0.0 sec)
HCore & Overlap gradient (SHARK) ... done (  1.2 sec)
RI-J gradient            (SHARK) ... done (  7.9 sec)
COSX-gradient                    ... done ( 60.8 sec)
Exchange-correlation gradient    ... done
Dispersion correction            ... Starting D4


------------------- 
Dispersion Gradient 
------------------- 
   1  :    0.000169205    0.000243686    0.000271423
   2  :   -0.000186945    0.000462788    0.000024220
   3  :   -0.000328220    0.000323808   -0.000179002
   4  :   -0.000145849   -0.000210368   -0.000232268
   5  :    0.000274697   -0.000399623    0.000098009
   6  :    0.000366375   -0.000203172    0.000277846
   7  :    0.000270813    0.000388962    0.000419090
   8  :    0.000073410    0.000071009    0.000121096
   9  :    0.000034637    0.000104976    0.000119464
  10  :    0.000101371    0.000120860    0.000075426
  11  :   -0.000100054    0.000185487   -0.000014647
  12  :   -0.000153650    0.000107755   -0.000103230
  13  :    0.000095297   -0.000191233    0.000011032
  14  :    0.000148881   -0.000112078    0.000100041
  15  :   -0.000245862   -0.000354719   -0.000392430
  16  :   -0.000062293   -0.000418694   -0.000240974
  17  :   -0.000311747   -0.000119395   -0.000355040
  18  :   -0.000000064   -0.000000050   -0.000000055

  |G| =    0.001608524

done

------------------
CARTESIAN GRADIENT
------------------

   1   C   :   -0.000164519   -0.000237832   -0.000174625
   2   C   :    0.000278917   -0.000027273    0.000239838
   3   C   :    0.000109424   -0.000275702   -0.000021887
   4   C   :    0.000292145    0.000377086    0.000444407
   5   C   :   -0.000224471    0.000119128   -0.000171710
   6   C   :   -0.000045728    0.000334653    0.000116921
   7   C   :    0.000067303    0.000111304   -0.000047348
   8   H   :    0.000017129   -0.000020788    0.000046159
   9   H   :   -0.000002763    0.000007024    0.000052722
  10   H   :    0.000039464    0.000026939    0.000047087
  11   H   :   -0.000000606    0.000046893    0.000011227
  12   H   :   -0.000012593   -0.000141919   -0.000077445
  13   H   :   -0.000118021   -0.000035648   -0.000104930
  14   H   :    0.000031240   -0.000013143    0.000045154
  15   N   :   -0.001380149   -0.001595761   -0.002018794
  16   O   :    0.000576418    0.001004924    0.000995974
  17   O   :    0.000991268    0.000770629    0.001270278
  18   H   :   -0.000471524   -0.000531013   -0.000641033

Difference to translation invariance:
           :   -0.0000170650   -0.0000804986    0.0000119963

Difference to rotation invariance:
           :    0.0000305587    0.0003778669    0.0002896032

Norm of the cartesian gradient     ...    0.0040048833
RMS gradient                       ...    0.0005449956
MAX gradient                       ...    0.0020187936

-------
TIMINGS
-------

Total SCF gradient time            ...       91.352 sec

One electron gradient       ....       1.168 sec  (  1.3%)
RI-J Coulomb gradient       ....       7.850 sec  (  8.6%)
COSX gradient               ....      60.824 sec  ( 66.6%)
XC gradient                 ....      19.023 sec  ( 20.8%)

Maximum memory used throughout the entire SCFGRAD-calculation: 60.1 MB
------------------------------------------------------------------------------
                         ORCA GEOMETRY RELAXATION STEP
------------------------------------------------------------------------------

Reading the OPT-File                    .... done
Getting information on internals        .... done
Copying old internal coords+grads       .... done
Making the new internal coordinates     .... (new redundants).... done
Validating the new internal coordinates .... (new redundants).... done
Calculating the B-matrix                .... done
Calculating the G,G- and P matrices     .... done
Transforming gradient to internals      .... done
Projecting the internal gradient        .... done
Number of atoms                         ....  18
Number of internal coordinates          .... 100
Current Energy                          ....  -475.489092489 Eh
Current gradient norm                   ....     0.004004883 Eh/bohr
Maximum allowed component of the step   ....  0.300
Current trust radius                    ....  0.300
Evaluating the initial hessian          ....  (Almloef) done
Projecting the Hessian                  .... done
Forming the augmented Hessian           .... done
Diagonalizing the augmented Hessian     .... done
Last element of RFO vector              ....  0.718861824
Lowest eigenvalues of augmented Hessian:
 -0.000549007  0.000564374  0.008071985  0.012358748  0.017079562
Length of the computed step             ....  0.967018927
Warning: the length of the step is outside the trust region - taking restricted step instead
The input lambda is                     ....    -0.000549
   iter:   1  x=   -0.000809  g= 3250.363799 f(x)=     0.845126
   iter:   2  x=   -0.001142  g= 1062.002226 f(x)=     0.353629
   iter:   3  x=   -0.001494  g=  388.191573 f(x)=     0.136815
   iter:   4  x=   -0.001744  g=  176.019938 f(x)=     0.043885
   iter:   5  x=   -0.001823  g=  111.627509 f(x)=     0.008837
   iter:   6  x=   -0.001829  g=   97.897456 f(x)=     0.000559
   iter:   7  x=   -0.001829  g=   96.995732 f(x)=     0.000003
   iter:   8  x=   -0.001829  g=   96.991558 f(x)=     0.000000
   iter:   9  x=   -0.001829  g=   96.991557 f(x)=     0.000000
The output lambda is                    ....    -0.001829 (9 iterations)
The final length of the internal step   ....  0.300000000
Converting the step to cartesian space:
 Initial RMS(Int)=    0.0300000000
Transforming coordinates:
 Iter   0:  RMS(Cart)=    0.0229793414 RMS(Int)=    0.0299974656
 Iter   1:  RMS(Cart)=    0.0000038461 RMS(Int)=    0.0000038356
 Iter   2:  RMS(Cart)=    0.0000000115 RMS(Int)=    0.0000000056
done
Storing new coordinates                 .... done

                                .--------------------.
          ----------------------|Geometry convergence|-------------------------
          Item                value                   Tolerance       Converged
          ---------------------------------------------------------------------
          RMS gradient        0.0002070151            0.0000300000      NO
          MAX gradient        0.0008986160            0.0001000000      NO
          RMS step            0.0300000000            0.0006000000      NO
          MAX step            0.1743348330            0.0010000000      NO
          ........................................................
          Max(Bonds)      0.0923      Max(Angles)    0.20
          Max(Dihed)        0.04      Max(Improp)    0.00
          ---------------------------------------------------------------------

The optimization has not yet converged - more geometry cycles are needed


    ---------------------------------------------------------------------------
                         Redundant Internal Coordinates
                            (Angstroem and degrees)

        Definition                    Value    dE/dq     Step     New-Value
    ----------------------------------------------------------------------------
     1. B(C   1,C   0)                1.4069 -0.000208  0.0002    1.4070   
     2. B(C   2,C   1)                1.3919  0.000232 -0.0002    1.3918   
     3. B(C   3,C   2)                1.3961 -0.000329  0.0003    1.3964   
     4. B(C   4,C   3)                1.3948 -0.000329  0.0003    1.3951   
     5. B(C   5,C   4)                1.3935  0.000251 -0.0002    1.3932   
     6. B(C   5,C   0)                1.4053 -0.000199  0.0002    1.4055   
     7. B(C   6,C   0)                1.5057  0.000205 -0.0003    1.5055   
     8. B(H   7,C   6)                1.0997  0.000045 -0.0001    1.0997   
     9. B(H   8,C   6)                1.1011  0.000036 -0.0001    1.1010   
    10. B(H   9,C   6)                1.1041  0.000023 -0.0000    1.1041   
    11. B(H  10,C   1)                1.0932  0.000050 -0.0001    1.0931   
    12. B(H  11,C   2)                1.0895  0.000013 -0.0000    1.0895   
    13. B(H  12,C   4)                1.0896  0.000005 -0.0000    1.0896   
    14. B(H  13,C   5)                1.0930  0.000052 -0.0001    1.0929   
    15. B(N  14,C   3)                1.4713  0.000588 -0.0007    1.4705   
    16. B(O  15,N  14)                1.2222 -0.000662  0.0004    1.2226   
    17. B(O  16,N  14)                1.2226 -0.000899  0.0006    1.2232   
    18. B(H  17,O  16)                7.2663  0.000697 -0.0923    7.1741   
    19. B(H  17,O  15)                7.4259  0.000615 -0.0917    7.3342   
    20. B(H  17,N  14)                7.8344 -0.000339 -0.0909    7.7434   
    21. A(C   5,C   0,C   6)          121.04  0.000044   -0.01    121.04   
    22. A(C   1,C   0,C   6)          120.57  0.000034   -0.00    120.56   
    23. A(C   1,C   0,C   5)          118.38 -0.000078    0.01    118.39   
    24. A(C   0,C   1,H  10)          119.46 -0.000012    0.00    119.46   
    25. A(C   0,C   1,C   2)          121.26 -0.000001   -0.00    121.26   
    26. A(C   2,C   1,H  10)          119.28  0.000013   -0.00    119.28   
    27. A(C   3,C   2,H  11)          119.41 -0.000206    0.03    119.44   
    28. A(C   1,C   2,H  11)          121.90  0.000126   -0.02    121.88   
    29. A(C   1,C   2,C   3)          118.69  0.000080   -0.01    118.68   
[...]
     12      -0.002231   0.010576   0.113055   0.038020  -0.181555  -0.000243
     13       0.001650   0.169414   0.013478  -0.066960  -0.129792   0.000219
     14      -0.002204   0.085995   0.105799   0.010285  -0.216185  -0.000021
     15      -0.006228  -0.068496  -0.038796  -0.014300   0.095843   0.000165
     16      -0.001250  -0.207786   0.088298   0.077645   0.243105  -0.000444
     17      -0.009928  -0.152824   0.005086   0.022941   0.191563  -0.000422
     18       0.024034  -0.013813   0.024207  -0.003422   0.016732   0.041974
     19       0.038642   0.011536   0.037455   0.004041   0.022407   0.047847
     20       0.085532  -0.008188   0.053309  -0.000154   0.030163  -0.013680
     21       0.148648  -0.078329   0.062486  -0.020170   0.035738  -0.122953
     22      -0.525711  -0.122400  -0.131480  -0.040030  -0.027484   0.128641
     23      -0.432211  -0.053449  -0.100598  -0.019081  -0.021474  -0.172615
     24      -0.221393   0.048607  -0.036368   0.024961  -0.023914   0.189060
     25       0.245094   0.078269   0.112896   0.030420   0.029432  -0.147574
     26      -0.549978  -0.005786  -0.137698   0.006631  -0.038656  -0.129621
     27      -0.125695  -0.071383  -0.035884  -0.013430  -0.001792  -0.573164
     28       0.134386   0.067327   0.064114   0.016903   0.006210  -0.555859
     29       0.000037  -0.014108   0.016730   0.002560  -0.002598   0.471655
     30       0.102880  -0.319508  -0.346679   0.103307  -0.310765  -0.000283
     31       0.048989   0.036250  -0.118676   0.048518   0.047328   0.002978
     32       0.114391  -0.257963  -0.349581   0.090698  -0.244074   0.000611
     33       0.026152  -0.122330  -0.062660   0.084434  -0.079679   0.001080
     34       0.101293   0.318522  -0.356854   0.049859   0.314221  -0.000217
     35       0.076870   0.012056  -0.209709   0.085778   0.060714   0.000755
     36       0.021554  -0.139865  -0.330707  -0.026668   0.254823  -0.000585
     37       0.005573   0.176658  -0.079575  -0.100698  -0.064271   0.000695
     38       0.033588  -0.066704  -0.329493  -0.077788   0.205811   0.000680
     39      -0.004454  -0.041149  -0.075031  -0.017518   0.074436   0.002308
     40       0.079205   0.560941  -0.326678  -0.112233  -0.361727  -0.000297
     41       0.035024   0.227576  -0.212444  -0.085497  -0.096045   0.001524
     42       0.004201  -0.010091  -0.007305   0.173360  -0.004491  -0.000256
     43       0.014982  -0.033862  -0.010261  -0.602194  -0.009032  -0.000365
     44       0.000071   0.044642  -0.004214   0.446879  -0.003977  -0.000417
     45      -0.002456   0.007680   0.003486   0.011804   0.002902   0.000110
     46      -0.015804   0.037026   0.025359   0.361306  -0.003306   0.000063
     47       0.001647  -0.005868  -0.003667  -0.081784   0.005457   0.000126
     48      -0.000906  -0.015813   0.007018  -0.141889  -0.001774   0.000034
     49       0.000432   0.012694  -0.005430   0.150920   0.008338   0.000146
     50      -0.001695  -0.043822   0.015235  -0.309987  -0.005791   0.000102
     51      -0.000047  -0.000061   0.000091   0.000112   0.000243   0.000019
     52      -0.000033  -0.000102   0.000109  -0.001409   0.000316   0.000024
     53      -0.000102   0.000010   0.000146   0.000723   0.000372   0.000031
                 48         49         50         51         52         53    
      0      -0.001169  -0.000214  -0.002164  -0.000902  -0.000513   0.000830
      1      -0.001235  -0.000878   0.000961   0.002616   0.001128   0.000242
      2      -0.000505  -0.000458  -0.001540   0.000423   0.000213   0.000782
      3       0.000152  -0.000654   0.028848  -0.000802   0.000201  -0.004172
      4      -0.000665   0.000510  -0.079826   0.001223  -0.003685   0.020443
      5      -0.000468   0.000342  -0.011237  -0.000127  -0.001467   0.005457
      6       0.000088   0.000015  -0.013730   0.002064   0.019350  -0.065239
      7      -0.000062   0.000108   0.008471  -0.000994  -0.006826   0.024059
      8      -0.000021   0.000031  -0.008258   0.001399   0.013782  -0.046261
      9      -0.000049   0.000077   0.000032   0.000066  -0.002994   0.000591
     10       0.000065  -0.000197   0.000013  -0.000073   0.002245  -0.002683
     11       0.000010  -0.000003   0.000012   0.000021  -0.001581  -0.000688
     12       0.000032   0.000035   0.000611  -0.008841   0.025548   0.007635
     13      -0.000077   0.000065  -0.001710   0.018373  -0.078139  -0.022703
     14      -0.000115   0.000044  -0.000189   0.000375  -0.012287  -0.003308
     15      -0.000740  -0.001364   0.001566   0.066449   0.017206   0.007046
     16      -0.000143   0.000705  -0.000236  -0.027031  -0.003220  -0.001993
     17      -0.000055  -0.001560   0.001286   0.045703   0.013732   0.005317
     18      -0.041070   0.060933   0.000813   0.001178   0.000296  -0.000029
     19       0.008915  -0.061725  -0.000837  -0.001159  -0.000269  -0.000115
     20       0.068787   0.035474  -0.000144   0.001193   0.000061   0.000097
     21      -0.243786  -0.474364  -0.002124  -0.012633  -0.001804  -0.000945
     22       0.209580   0.429064   0.003114   0.009450   0.001178   0.000287
     23      -0.283390  -0.593555  -0.002032  -0.016037  -0.002336  -0.001200
     24       0.551060  -0.312283  -0.006561  -0.003514  -0.001601  -0.000108
     25      -0.508839   0.277531   0.007482   0.002164   0.001146  -0.000333
     26      -0.370916   0.217362   0.006272   0.001102   0.000571  -0.000513
     27       0.199854   0.067846   0.001241   0.001174   0.000066   0.000084
     28       0.211080   0.036775   0.000370   0.000213  -0.000087   0.000294
     29      -0.158341  -0.038180   0.000226  -0.001195  -0.000007  -0.000755
     30      -0.002527   0.002422  -0.329329   0.004634  -0.012238   0.071767
     31       0.007035  -0.008315   0.903978  -0.012021   0.035526  -0.204115
     32       0.002328  -0.002159   0.125575  -0.001646   0.005319  -0.029350
     33       0.000783  -0.001092   0.173433  -0.023748  -0.217937   0.724565
     34      -0.000018   0.000527  -0.069816   0.009340   0.084142  -0.280253
     35       0.000550  -0.001039   0.121446  -0.016699  -0.153531   0.511265
     36      -0.000154  -0.000604  -0.006417   0.080843  -0.294446  -0.084140
     37       0.001969   0.001439   0.018961  -0.232627   0.870929   0.249301
     38       0.000040   0.000524   0.002638  -0.031250   0.124287   0.035376
     39       0.004378   0.017111  -0.019925  -0.752719  -0.177134  -0.073047
     40      -0.001601  -0.005542   0.008001   0.306043   0.070203   0.029249
     41       0.003653   0.013260  -0.013850  -0.518485  -0.124009  -0.051023
     42      -0.000036   0.000027  -0.000121  -0.000052   0.000384  -0.000363
     43       0.000014   0.000010   0.000077   0.000203  -0.000844   0.000256
     44      -0.000025   0.000092  -0.000108  -0.000010   0.000318  -0.000396
     45       0.000014  -0.000021   0.000026   0.000065  -0.000243   0.000018
     46      -0.000010   0.000011   0.000008  -0.000073   0.000221   0.000115
     47       0.000009  -0.000027   0.000004   0.000066  -0.000243  -0.000011
     48       0.000009  -0.000003   0.000035   0.000007  -0.000032   0.000134
     49      -0.000015  -0.000001  -0.000093  -0.000017   0.000181  -0.000338
     50       0.000025  -0.000040   0.000020  -0.000026   0.000048   0.000117
     51      -0.000001  -0.000004  -0.000001   0.000001  -0.000010   0.000007
     52       0.000001  -0.000005   0.000001  -0.000002   0.000012  -0.000008
     53      -0.000001  -0.000006   0.000001  -0.000001  -0.000003   0.000001


-----------
IR SPECTRUM
-----------

 Mode   freq       eps      Int      T**2         TX        TY        TZ
       cm**-1   L/(mol*cm) km/mol    a.u.
----------------------------------------------------------------------------
  7:      4.99   0.000000    0.00  0.000000  ( 0.000000  0.000000  0.000000)
  8:     10.19   0.000898    4.54  0.027501  ( 0.146472 -0.076965 -0.011131)
  9:     16.82   0.021762  109.97  0.403714  (-0.271454 -0.398756 -0.413546)
 10:     77.78   0.000090    0.45  0.000361  (-0.009522 -0.006702 -0.015015)
 11:     93.25   0.000149    0.75  0.000499  ( 0.017550  0.005800 -0.012552)
 12:    199.17   0.000506    2.56  0.000793  (-0.013901  0.021737 -0.011270)
 13:    241.02   0.000700    3.54  0.000906  (-0.027175  0.004467  0.012159)
 14:    349.99   0.000558    2.82  0.000498  (-0.009161 -0.013375 -0.015333)
 15:    356.05   0.000200    1.01  0.000176  (-0.009495  0.008660  0.003247)
 16:    391.66   0.000053    0.27  0.000042  (-0.001315 -0.003522 -0.005268)
 17:    430.49   0.000581    2.93  0.000421  ( 0.005087  0.018027 -0.008376)
 18:    539.27   0.002112   10.67  0.001222  ( 0.028237  0.016382 -0.012505)
 19:    588.76   0.000048    0.24  0.000026  (-0.002842  0.003084 -0.002814)
 20:    619.98   0.004308   21.77  0.002168  (-0.020012 -0.027316 -0.031962)
 21:    682.43   0.000926    4.68  0.000423  ( 0.018098  0.009766  0.000544)
 22:    751.62   0.005362   27.10  0.002226  (-0.026383 -0.000397  0.039115)
 23:    789.78   0.000692    3.50  0.000274  ( 0.003604  0.006315  0.014855)
 24:    821.67   0.000692    3.50  0.000263  (-0.008702 -0.008839 -0.010444)
 25:    843.80   0.019579   98.94  0.007241  (-0.038530 -0.049766 -0.057267)
 26:    854.79   0.005337   26.97  0.001948  ( 0.002729 -0.006038 -0.043640)
 27:    981.18   0.016808   84.94  0.005346  ( 0.039883  0.049739  0.035792)
 28:    990.02   0.005358   27.08  0.001689  (-0.032909 -0.024333 -0.003720)
 29:   1005.84   0.000136    0.69  0.000042  ( 0.002052  0.004856  0.003778)
 30:   1015.77   0.001276    6.45  0.000392  (-0.009624 -0.012813 -0.011630)
 31:   1021.97   0.005362   27.10  0.001637  ( 0.024722  0.029047  0.013509)
 32:   1138.47   0.003287   16.61  0.000901  (-0.002362  0.029298  0.006096)
 33:   1143.18   0.015151   76.57  0.004136  ( 0.030311  0.033761  0.045577)
 34:   1202.26   0.021034  106.30  0.005460  (-0.033830 -0.043569 -0.049163)
 35:   1253.44   0.040948  206.93  0.010195  ( 0.046071  0.060915  0.066041)
 36:   1290.71   0.001979   10.00  0.000479  ( 0.013083  0.008237  0.015478)
 37:   1346.71   0.047028  237.66  0.010897  ( 0.043979  0.077085  0.054965)
 38:   1368.37   0.005312   26.84  0.001211  ( 0.031420  0.005845  0.013783)
 39:   1418.04   0.000622    3.14  0.000137  ( 0.003864  0.009071 -0.006300)
 40:   1422.04   0.000511    2.58  0.000112  ( 0.004098  0.006190  0.007546)
 41:   1434.24   0.010635   53.74  0.002314  ( 0.031268 -0.033480  0.014676)
 42:   1455.10   0.012004   60.67  0.002574  ( 0.021740  0.042962  0.016004)
 43:   1485.83   0.003192   16.13  0.000670  (-0.006104  0.021300  0.013395)
 44:   1491.62   0.035178  177.78  0.007360  (-0.039586 -0.049449 -0.057857)
 45:   1601.14   0.026673  134.80  0.005199  ( 0.009463 -0.055476  0.045072)
 46:   1660.73   0.176746  893.20  0.033212  (-0.081815 -0.107361 -0.122441)
 47:   2978.63   0.075024  379.14  0.007860  (-0.042439 -0.055563 -0.054513)
 48:   3075.56   0.000215    1.09  0.000022  ( 0.004044  0.002048 -0.001141)
 49:   3147.67   0.003670   18.55  0.000364  ( 0.008586  0.011163  0.012866)
 50:   3204.03   0.000136    0.68  0.000013  (-0.002667 -0.000638 -0.002383)
 51:   3206.48   0.000197    1.00  0.000019  ( 0.000789  0.003287  0.002787)
 52:   3228.35   0.003030   15.31  0.000293  (-0.009168  0.014124 -0.003062)
 53:   3228.82   0.001059    5.35  0.000102  ( 0.007673 -0.003667  0.005481)

* The epsilon (eps) is given for a Dirac delta lineshape.
** The dipole moment derivative (T) already includes vibrational overlap.

The first frequency considered to be a vibration is 7
The total number of vibrations considered is 47


--------------------------
THERMOCHEMISTRY AT 298.15K
--------------------------

Temperature         ... 298.15 K
Pressure            ... 1.00 atm
Total Mass          ... 138.15 AMU

Throughout the following assumptions are being made:
  (1) The electronic state is orbitally nondegenerate
  (2) There are no thermally accessible electronically excited states
  (3) Hindered rotations indicated by low frequency modes are not
      treated as such but are treated as vibrations and this may
      cause some error
  (4) All equations used are the standard statistical mechanics
      equations for an ideal gas
  (5) All vibrations are strictly harmonic

freq.       4.99  E(vib)   ...       0.59 
freq.      10.19  E(vib)   ...       0.58 
freq.      16.82  E(vib)   ...       0.57 
freq.      77.78  E(vib)   ...       0.49 
freq.      93.25  E(vib)   ...       0.47 
freq.     199.17  E(vib)   ...       0.35 
freq.     241.02  E(vib)   ...       0.31 
freq.     349.99  E(vib)   ...       0.23 
freq.     356.05  E(vib)   ...       0.22 
freq.     391.66  E(vib)   ...       0.20 
freq.     430.49  E(vib)   ...       0.18 
freq.     539.27  E(vib)   ...       0.12 
freq.     588.76  E(vib)   ...       0.10 
freq.     619.98  E(vib)   ...       0.09 
freq.     682.43  E(vib)   ...       0.08 
freq.     751.62  E(vib)   ...       0.06 
freq.     789.78  E(vib)   ...       0.05 
freq.     821.67  E(vib)   ...       0.05 
freq.     843.80  E(vib)   ...       0.04 
freq.     854.79  E(vib)   ...       0.04 
freq.     981.18  E(vib)   ...       0.02 
freq.     990.02  E(vib)   ...       0.02 
freq.    1005.84  E(vib)   ...       0.02 
freq.    1015.77  E(vib)   ...       0.02 
freq.    1021.97  E(vib)   ...       0.02 
freq.    1138.47  E(vib)   ...       0.01 
freq.    1143.18  E(vib)   ...       0.01 
freq.    1202.26  E(vib)   ...       0.01 
freq.    1253.44  E(vib)   ...       0.01 
freq.    1290.71  E(vib)   ...       0.01 
freq.    1346.71  E(vib)   ...       0.01 
freq.    1368.37  E(vib)   ...       0.01 
freq.    1418.04  E(vib)   ...       0.00 
freq.    1422.04  E(vib)   ...       0.00 
freq.    1434.24  E(vib)   ...       0.00 
freq.    1455.10  E(vib)   ...       0.00 
freq.    1485.83  E(vib)   ...       0.00 
freq.    1491.62  E(vib)   ...       0.00 
freq.    1601.14  E(vib)   ...       0.00 
freq.    1660.73  E(vib)   ...       0.00 
freq.    2978.63  E(vib)   ...       0.00 
freq.    3075.56  E(vib)   ...       0.00 
freq.    3147.67  E(vib)   ...       0.00 
freq.    3204.03  E(vib)   ...       0.00 
freq.    3206.48  E(vib)   ...       0.00 
freq.    3228.35  E(vib)   ...       0.00 
freq.    3228.82  E(vib)   ...       0.00 

------------
INNER ENERGY
------------

The inner energy is: U= E(el) + E(ZPE) + E(vib) + E(rot) + E(trans)
    E(el)   - is the total energy from the electronic structure calculation
              = E(kin-el) + E(nuc-el) + E(el-el) + E(nuc-nuc)
    E(ZPE)  - the the zero temperature vibrational energy from the frequency calculation
    E(vib)  - the the finite temperature correction to E(ZPE) due to population
              of excited vibrational states
    E(rot)  - is the rotational thermal energy
    E(trans)- is the translational thermal energy

Summary of contributions to the inner energy U:
Electronic energy                ...   -475.59924983 Eh
Zero point energy                ...      0.12862477 Eh      80.71 kcal/mol
Thermal vibrational correction   ...      0.00799855 Eh       5.02 kcal/mol
Thermal rotational correction    ...      0.00141627 Eh       0.89 kcal/mol
Thermal translational correction ...      0.00141627 Eh       0.89 kcal/mol
-----------------------------------------------------------------------
Total thermal energy                   -475.45979396 Eh


Summary of corrections to the electronic energy:
(perhaps to be used in another calculation)
Total thermal correction                  0.01083110 Eh       6.80 kcal/mol
Non-thermal (ZPE) correction              0.12862477 Eh      80.71 kcal/mol
-----------------------------------------------------------------------
Total correction                          0.13945587 Eh      87.51 kcal/mol


--------
ENTHALPY
--------

The enthalpy is H = U + kB*T
                kB is Boltzmann's constant
Total free energy                 ...   -475.45979396 Eh 
Thermal Enthalpy correction       ...      0.00094421 Eh       0.59 kcal/mol
-----------------------------------------------------------------------
Total Enthalpy                    ...   -475.45884976 Eh


Note: Only C1 symmetry has been detected, increase convergence thresholds 
      if your molecule has a higher symmetry. Symmetry factor of 1.0 is   
      used for the rotational entropy correction. 
 

Note: Rotational entropy computed according to Herzberg 
Infrared and Raman Spectra, Chapter V,1, Van Nostrand Reinhold, 1945 
Point Group:  C1, Symmetry Number:   1  
Rotational constants in cm-1:     0.126540     0.022552     0.019652 

Vibrational entropy computed according to the QRRHO of S. Grimme
Chem.Eur.J. 2012 18 9955


-------
ENTROPY
-------

The entropy contributions are T*S = T*(S(el)+S(vib)+S(rot)+S(trans))
     S(el)   - electronic entropy
     S(vib)  - vibrational entropy
     S(rot)  - rotational entropy
     S(trans)- translational entropy
The entropies will be listed as multiplied by the temperature to get
units of energy

Electronic entropy                ...      0.00000000 Eh      0.00 kcal/mol
Vibrational entropy               ...      0.01607519 Eh     10.09 kcal/mol
Rotational entropy                ...      0.01413197 Eh      8.87 kcal/mol
Translational entropy             ...      0.01932890 Eh     12.13 kcal/mol
-----------------------------------------------------------------------
Final entropy term                ...      0.04953606 Eh     31.08 kcal/mol

In case the symmetry of your molecule has not been determined correctly
or in case you have a reason to use a different symmetry number we print 
out the resulting rotational entropy values for sn=1,12 :
 --------------------------------------------------------
|  sn= 1 | S(rot)=       0.01413197 Eh      8.87 kcal/mol|
|  sn= 2 | S(rot)=       0.01347751 Eh      8.46 kcal/mol|
|  sn= 3 | S(rot)=       0.01309468 Eh      8.22 kcal/mol|
|  sn= 4 | S(rot)=       0.01282305 Eh      8.05 kcal/mol|
|  sn= 5 | S(rot)=       0.01261237 Eh      7.91 kcal/mol|
|  sn= 6 | S(rot)=       0.01244022 Eh      7.81 kcal/mol|
|  sn= 7 | S(rot)=       0.01229468 Eh      7.72 kcal/mol|
|  sn= 8 | S(rot)=       0.01216860 Eh      7.64 kcal/mol|
|  sn= 9 | S(rot)=       0.01205739 Eh      7.57 kcal/mol|
|  sn=10 | S(rot)=       0.01195791 Eh      7.50 kcal/mol|
|  sn=11 | S(rot)=       0.01186792 Eh      7.45 kcal/mol|
|  sn=12 | S(rot)=       0.01178577 Eh      7.40 kcal/mol|
 --------------------------------------------------------


-------------------
GIBBS FREE ENERGY
-------------------

The Gibbs free energy is G = H - T*S

Total enthalpy                    ...   -475.45884976 Eh 
Total entropy correction          ...     -0.04953606 Eh    -31.08 kcal/mol
-----------------------------------------------------------------------
Final Gibbs free energy         ...   -475.50838582 Eh

For completeness - the Gibbs free energy minus the electronic energy
G-E(el)                           ...      0.09086402 Eh     57.02 kcal/mol


Timings for individual modules:

Sum of individual times         ...    13590.502 sec (= 226.508 min)
GTO integral calculation        ...       32.230 sec (=   0.537 min)   0.2 %
SCF iterations                  ...     9549.848 sec (= 159.164 min)  70.3 %
SCF Gradient evaluation         ...     2148.442 sec (=  35.807 min)  15.8 %
Geometry relaxation             ...       12.458 sec (=   0.208 min)   0.1 %
Analytical frequency calculation...     1847.524 sec (=  30.792 min)  13.6 %
                             ****ORCA TERMINATED NORMALLY****
TOTAL RUN TIME: 0 days 3 hours 47 minutes 2 seconds 762 msec
