
                                 *****************
                                 * O   R   C   A *
                                 *****************

           --- An Ab Initio, DFT and Semiempirical electronic structure package ---

                  #######################################################
                  #                        -***-                        #
                  #          Department of theory and spectroscopy      #
                  #               Directorship: Frank Neese             #
                  #        Max Planck Institute fuer Kohlenforschung    #
                  #                Kaiser Wilhelm Platz 1               #
                  #                 D-45470 Muelheim/Ruhr               #
                  #                      Germany                        #
                  #                                                     #
                  #                  All rights reserved                #
                  #                        -***-                        #
                  #######################################################


                         Program Version 4.2.1 -  RELEASE  -


 With contributions from (in alphabetic order):
   Daniel Aravena         : Magnetic Suceptibility
   Michael Atanasov       : Ab Initio Ligand Field Theory (pilot matlab implementation)
   Alexander A. Auer      : GIAO ZORA, VPT2
   Ute Becker             : Parallelization
   Giovanni Bistoni       : ED, misc. LED, open-shell LED, HFLD
   Martin Brehm           : Molecular dynamics
   Dmytro Bykov           : SCF Hessian
   Vijay G. Chilkuri      : MRCI spin determinant printing, contributions to CSF-ICE
   Dipayan Datta          : RHF DLPNO-CCSD density
   Achintya Kumar Dutta   : EOM-CC, STEOM-CC
   Dmitry Ganyushin       : Spin-Orbit,Spin-Spin,Magnetic field MRCI
   Miquel Garcia          : C-PCM Hessian, Gaussian charge scheme
   Yang Guo               : DLPNO-NEVPT2, CIM, IAO-localization
   Andreas Hansen         : Spin unrestricted coupled pair/coupled cluster methods
   Benjamin Helmich-Paris : CASSCF linear response (MC-RPA)
   Lee Huntington         : MR-EOM, pCC
   Robert Izsak           : Overlap fitted RIJCOSX, COSX-SCS-MP3, EOM
   Christian Kollmar      : KDIIS, OOCD, Brueckner-CCSD(T), CCSD density
   Simone Kossmann        : Meta GGA functionals, TD-DFT gradient, OOMP2, MP2 Hessian
   Martin Krupicka        : AUTO-CI
   Lucas Lang             : DCDCAS
   Dagmar Lenk            : GEPOL surface, SMD
   Dimitrios Liakos       : Extrapolation schemes; Compound Job, initial MDCI parallelization
   Dimitrios Manganas     : Further ROCIS development; embedding schemes
   Dimitrios Pantazis     : SARC Basis sets
   Taras Petrenko         : DFT Hessian,TD-DFT gradient, ASA, ECA, R-Raman, ABS, FL, XAS/XES, NRVS
   Peter Pinski           : DLPNO-MP2, DLPNO-MP2 Gradient
   Christoph Reimann      : Effective Core Potentials
   Marius Retegan         : Local ZFS, SOC
   Christoph Riplinger    : Optimizer, TS searches, QM/MM, DLPNO-CCSD(T), (RO)-DLPNO pert. Triples
   Tobias Risthaus        : Range-separated hybrids, TD-DFT gradient, RPA, STAB
   Michael Roemelt        : Original ROCIS implementation
   Masaaki Saitow         : Open-shell DLPNO-CCSD energy and density
   Barbara Sandhoefer     : DKH picture change effects
   Avijit Sen             : IP-ROCIS
   Kantharuban Sivalingam : CASSCF convergence, NEVPT2, FIC-MRCI
   Bernardo de Souza      : ESD, SOC TD-DFT
   Georgi Stoychev        : AutoAux, RI-MP2 NMR
   Willem Van den Heuvel  : Paramagnetic NMR
   Boris Wezisla          : Elementary symmetry handling
   Frank Wennmohs         : Technical directorship


 We gratefully acknowledge several colleagues who have allowed us to
 interface, adapt or use parts of their codes:
   Stefan Grimme, W. Hujo, H. Kruse,             : VdW corrections, initial TS optimization,
                  C. Bannwarth                     DFT functionals, gCP, sTDA/sTD-DF
   Ed Valeev, F. Pavosevic, A. Kumar             : LibInt (2-el integral package), F12 methods
   Garnet Chan, S. Sharma, J. Yang, R. Olivares  : DMRG
   Ulf Ekstrom                                   : XCFun DFT Library
   Mihaly Kallay                                 : mrcc  (arbitrary order and MRCC methods)
   Andreas Klamt, Michael Diedenhofen            : otool_cosmo (COSMO solvation model)
   Jiri Pittner, Ondrej Demel                    : Mk-CCSD
   Frank Weinhold                                : gennbo (NPA and NBO analysis)
   Christopher J. Cramer and Donald G. Truhlar   : smd solvation model
   Lars Goerigk                                  : TD-DFT with DH, B97 family of functionals
   V. Asgeirsson, H. Jonsson                     : NEB implementation
   FAccTs GmbH                                   : IRC, NEB, NEB-TS, Multilevel, MM, QM/MM, CI optimization
   S Lehtola, MJT Oliveira, MAL Marques          : LibXC Library


 Your calculation uses the libint2 library for the computation of 2-el integrals
 For citations please refer to: http://libint.valeyev.net

 Your ORCA version has been built with support for libXC version: 4.2.3
 For citations please refer to: https://tddft.org/programs/libxc/

 This ORCA versions uses:
   CBLAS   interface :  Fast vector & matrix operations
   LAPACKE interface :  Fast linear algebra routines


Your calculation utilizes the atom-pairwise dispersion correction
based on tight binding partial charges (D4)
Cite in your paper:
E.Caldeweyher, C.Bannwarth, S.Grimme, J.Chem.Phys., (2017), 147, 034112.
E.Caldeweyher, S.Ehlert, A.Hansen, H.Neugebauer, S.Grimme, J.Chem.Phys., (2018), in progress.
   

----- Orbital basis set information -----
Your calculation utilizes the basis: def2-SVP
   F. Weigend and R. Ahlrichs, Phys. Chem. Chem. Phys. 7, 3297 (2005).

================================================================================
                                        WARNINGS
                       Please study these warnings very carefully!
================================================================================


WARNING: Gradients are needed
  ===> : At least TightSCF should be used for SCF convergence

WARNING: Geometry Optimization
  ===> : Switching off AutoStart
         For restart on a previous wavefunction, please use MOREAD

INFO   : the flag for use of LIBINT has been found!

================================================================================
                                       INPUT FILE
================================================================================
NAME = neb_educts_optfreq2.inp
|  1> !B3LYP DEF2-SVP D4 OPT FREQ
|  2> 
|  3> %scf
|  4> maxIter 2000
|  5> Convergence Sloppy
|  6> TolMaxP 2e3
|  7> TolX 2e3
|  8> ConvCheckMode 1
|  9> end
| 10> 
| 11> %geom
| 12> maxIter 300
| 13> maxStep 1
| 14> Convergence loose
| 15> end
| 16> 
| 17> * xyz 1 1
| 18>    C       -4.23528        2.34526        0.03244
| 19>    C       -5.43614        1.62886        0.15209
| 20>    C       -5.42344        0.23005        0.18646
| 21>    C       -4.21365       -0.46114        0.10214
| 22>    C       -3.01460        0.24535       -0.01687
| 23>    C       -3.02294        1.64412       -0.05166
| 24>    C       -4.25902        3.84584       -0.00441
| 25>    H       -4.20514       -1.54354        0.12897
| 26>    H       -6.35144       -0.31822        0.27832
| 27>    H       -6.37975        2.15346        0.21759
| 28>    H       -3.25301        4.26553       -0.09279
| 29>    H       -4.71116        4.23201        0.91138
| 30>    H       -4.84417        4.19646       -0.86055
| 31>    H       -2.08539        2.17695       -0.14406
| 32>    H       -2.07833       -0.29089       -0.08186
| 33>    N       -3.80550        0.88346       -7.33713
| 34>    O       -2.46272        1.75460       -6.98996
| 35>    O       -5.07028        1.30526       -7.63067
| 36> **                         ****END OF INPUT****
================================================================================

                       *****************************
                       * Geometry Optimization Run *
                       *****************************

Geometry optimization settings:
Update method            Update   .... BFGS
Choice of coordinates    CoordSys .... Z-matrix Internals
Initial Hessian          InHess   .... Almoef's Model

Convergence Tolerances:
Energy Change            TolE     ....  3.0000e-05 Eh
Max. Gradient            TolMAXG  ....  2.0000e-03 Eh/bohr
RMS Gradient             TolRMSG  ....  5.0000e-04 Eh/bohr
Max. Displacement        TolMAXD  ....  1.0000e-02 bohr
RMS Displacement         TolRMSD  ....  7.0000e-03 bohr
Strict Convergence                ....  False
------------------------------------------------------------------------------
                        ORCA OPTIMIZATION COORDINATE SETUP
------------------------------------------------------------------------------

The optimization will be done in new redundant internal coordinates
Making redundant internal coordinates   ...  (new redundants) done
Evaluating the initial hessian          ...  (Almloef) done
Evaluating the coordinates              ...  done
Calculating the B-matrix                .... done
Calculating the G-matrix                .... done
Diagonalizing the G-matrix              .... done
The first mode is                       ....  900
The number of degrees of freedom        ....   48

    -----------------------------------------------------------------
                    Redundant Internal Coordinates


    -----------------------------------------------------------------
         Definition                    Initial Value    Approx d2E/dq
    -----------------------------------------------------------------
      1. B(C   1,C   0)                  1.4034         0.594724   
      2. B(C   2,C   1)                  1.3993         0.603834   
      3. B(C   3,C   2)                  1.3959         0.611474   
      4. B(C   4,C   3)                  1.3968         0.609412   
      5. B(C   5,C   0)                  1.4030         0.595636   
      6. B(C   5,C   4)                  1.3992         0.603972   
      7. B(C   6,C   0)                  1.5012         0.415235   
      8. B(H   7,C   3)                  1.0828         0.369798   
      9. B(H   8,C   2)                  1.0818         0.371156   
     10. B(H   9,C   1)                  1.0816         0.371362   
     11. B(H  10,C   6)                  1.0936         0.355342   
     12. B(H  11,C   6)                  1.0919         0.357605   
     13. B(H  12,C   6)                  1.0947         0.353970   
     14. B(H  13,C   5)                  1.0823         0.370386   
     15. B(H  14,C   4)                  1.0809         0.372320   
     16. B(N  15,C   4)                  7.3905         0.000000   
     17. B(N  15,C   3)                  7.5708         0.000000   
     18. B(N  15,C   2)                  7.7233         0.000000   
     19. B(N  15,H  14)                  7.5499         0.000000   
     20. B(N  15,C   1)                  7.7008         0.000000   
     21. B(N  15,H  13)                  7.5081         0.000000   
     22. B(N  15,C   0)                  7.5254         0.000000   
     23. B(N  15,H   7)                  7.8608         0.000000   
     24. B(N  15,C   6)                  7.9215         0.000000   
     25. B(N  15,H  12)                  7.3485         0.000000   
     26. B(N  15,C   5)                  7.3668         0.000000   
     27. B(O  16,C   4)                  7.1559         0.000000   
     28. B(O  16,C   3)                  7.6337         0.000000   
     29. B(O  16,C   2)                  7.9115         0.000000   
     30. B(O  16,C   1)                  7.7373         0.000000   
     31. B(O  16,H  13)                  6.8693         0.000000   
     32. B(O  16,H  14)                  7.2148         0.000000   
     33. B(O  16,C   0)                  7.2667         0.000000   
     34. B(O  16,H  10)                  7.3824         0.000000   
     35. B(O  16,C   6)                  7.5099         0.000000   
     36. B(O  16,N  15)                  1.6378         0.201662   
     37. B(O  16,C   5)                  6.9618         0.000000   
     38. B(O  16,H  12)                  7.0145         0.000000   
     39. B(O  17,C   2)                  7.8986         0.000000   
     40. B(O  17,C   1)                  7.7981         0.000000   
     41. B(O  17,H  12)                  7.3651         0.000000   
     42. B(O  17,C   0)                  7.7783         0.000000   
     43. B(O  17,N  15)                  1.3652         0.549025   
     44. B(O  17,C   5)                  7.8580         0.000000   
     45. A(C   1,C   0,O  17)           85.6348         0.090634   
     46. A(C   5,C   0,O  17)           88.1025         0.090635   
     47. A(C   6,C   0,O  16)           93.5193         0.091305   
     48. A(N  15,C   0,O  17)           10.0597         0.089010   
     49. A(C   5,C   0,O  16)           71.9813         0.091501   
     50. A(C   1,C   0,N  15)           91.9026         0.091017   
     51. A(C   5,C   0,C   6)          120.7785         0.401289   
     52. A(O  16,C   0,O  17)           20.4872         0.089012   
     53. A(C   1,C   0,C   5)          119.3004         0.427743   
     54. A(C   6,C   0,O  17)           96.1866         0.090507   
     55. A(N  15,C   0,O  16)           12.5556         0.089015   
     56. A(C   1,C   0,C   6)          119.9212         0.401181   
     57. A(C   1,C   0,O  16)          104.4549         0.091501   
     58. A(C   6,C   0,N  15)           99.8477         0.090859   
     59. A(C   5,C   0,N  15)           78.1633         0.091017   
     60. A(C   0,C   1,H   9)          120.2693         0.352263   
     61. A(C   0,C   1,O  16)           65.4290         0.090691   
     62. A(C   2,C   1,O  17)           89.0033         0.090613   
     63. A(C   0,C   1,O  17)           84.0276         0.090607   
     64. A(C   2,C   1,H   9)          119.4247         0.353170   
     65. A(C   0,C   1,C   2)          120.3060         0.428792   
     66. A(N  15,C   1,O  17)           10.0811         0.089008   
     67. A(H   9,C   1,N  15)          106.8921         0.090355   
     68. A(C   2,C   1,N  15)           85.7105         0.090749   
     69. A(N  15,C   1,O  16)           12.1769         0.089009   
     70. A(H   9,C   1,O  16)          112.5370         0.090314   
     71. A(C   0,C   1,N  15)           77.6028         0.090743   
     72. A(O  16,C   1,O  17)           20.1806         0.089008   
     73. A(H   9,C   1,O  17)           96.9784         0.090250   
     74. A(C   2,C   1,O  16)           92.0304         0.090697   
     75. A(C   3,C   2,O  16)           73.5177         0.090472   
     76. A(N  15,C   2,O  17)            9.9443         0.089007   
     77. A(C   1,C   2,O  16)           77.7886         0.090468   
     78. A(H   8,C   2,O  16)          119.7179         0.090137   
     79. A(C   3,C   2,H   8)          119.8454         0.353890   
     80. A(O  16,C   2,O  17)           19.8310         0.089006   
     81. A(N  15,C   2,O  16)           11.9471         0.089007   
     82. A(C   1,C   2,O  17)           80.7941         0.090484   
     83. A(C   3,C   2,N  15)           78.5499         0.090721   
     84. A(C   3,C   2,O  17)           88.2161         0.090488   
     85. A(H   8,C   2,N  15)          107.7769         0.090330   
     86. A(H   8,C   2,O  17)          101.0339         0.090149   
     87. A(C   1,C   2,N  15)           83.8807         0.090717   
     88. A(C   1,C   2,C   3)          120.0914         0.430935   
     89. A(C   1,C   2,H   8)          120.0631         0.353137   
     90. A(C   2,C   3,C   4)          119.9135         0.431648   
     91. A(N  15,C   3,O  16)           12.3587         0.089011   
     92. A(C   4,C   3,O  16)           64.9842         0.090853   
     93. A(C   2,C   3,O  16)           96.3837         0.090855   
     94. A(H   7,C   3,N  15)          101.6228         0.090508   
     95. A(C   2,C   3,N  15)           91.0393         0.090954   
     96. A(H   7,C   3,O  16)          108.1423         0.090431   
     97. A(C   4,C   3,N  15)           77.3008         0.090953   
     98. A(C   4,C   3,H   7)          120.0655         0.353468   
     99. A(C   2,C   3,H   7)          120.0209         0.353670   
    100. A(N  15,C   4,O  16)           12.7975         0.089018   
    101. A(H  14,C   4,O  16)           88.8105         0.091133   
    102. A(C   5,C   4,O  16)           76.4313         0.091752   
    103. A(C   3,C   4,O  16)          104.8275         0.091757   
    104. A(C   3,C   4,C   5)          120.1744         0.430692   
    105. A(H  14,C   4,N  15)           94.3573         0.090755   
    106. A(C   5,C   4,N  15)           83.5936         0.091264   
    107. A(C   3,C   4,N  15)           92.0745         0.091268   
    108. A(C   5,C   4,H  14)          119.9738         0.353338   
    109. A(C   3,C   4,H  14)          119.8519         0.353875   
    110. A(H  13,C   5,N  15)           93.3492         0.090788   
    111. A(C   4,C   5,N  15)           85.5264         0.091309   
    112. A(C   0,C   5,N  15)           91.0938         0.091302   
    113. A(H  13,C   5,O  17)           99.4728         0.090188   
    114. A(C   0,C   5,C   4)          120.2143         0.428928   
    115. A(O  16,C   5,O  17)           20.0158         0.089015   
    116. A(C   4,C   5,H  13)          119.2812         0.353027   
    117. A(C   0,C   5,H  13)          120.5045         0.352198   
    118. A(C   0,C   5,O  16)           96.9697         0.092223   
    119. A(N  15,C   5,O  17)            9.6034         0.089010   
    120. A(C   4,C   5,O  17)           88.9930         0.090535   
    121. A(C   0,C   5,O  17)           81.6181         0.090530   
    122. A(N  15,C   5,O  16)           12.7228         0.089022   
    123. A(H  13,C   5,O  16)           80.6420         0.091504   
    124. A(C   4,C   5,O  16)           92.3019         0.092233   
    125. A(H  10,C   6,N  15)           90.9192         0.090117   
    126. A(N  15,C   6,O  16)           11.7969         0.089009   
    127. A(H  11,C   6,H  12)          108.7434         0.289740   
    128. A(H  12,C   6,O  16)           59.3066         0.090571   
    129. A(H  11,C   6,O  16)          167.8759         0.090575   
    130. A(C   0,C   6,O  16)           74.9716         0.090883   
    131. A(H  12,C   6,N  15)           54.9996         0.090116   
    132. A(H  11,C   6,N  15)          158.8037         0.090118   
    133. A(C   0,C   6,N  15)           69.3909         0.090337   
    134. A(C   0,C   6,H  12)          110.3535         0.329083   
    135. A(H  10,C   6,H  11)          108.2383         0.289916   
    136. A(H  10,C   6,H  12)          107.7942         0.289452   
    137. A(H  10,C   6,O  16)           79.1442         0.090572   
    138. A(C   0,C   6,H  11)          109.8452         0.329639   
    139. A(C   0,C   6,H  10)          111.7795         0.329293   
    140. A(C   4,N  15,C   5)           10.8800         0.089015   
    141. A(C   3,N  15,C   5)           18.6093         0.089013   
    142. A(C   2,N  15,C   5)           21.1870         0.089012   
    143. A(C   0,N  15,C   5)           10.7429         0.089014   
    144. A(C   5,N  15,O  17)          106.2099         0.091222   
    145. A(C   5,N  15,O  16)           69.4121         0.090772   
    146. A(C   0,N  15,O  17)           95.6032         0.090948   
    147. A(C   0,N  15,O  16)           74.6879         0.090553   
    148. A(C   3,N  15,C   4)           10.6247         0.089013   
    149. A(C   2,N  15,C   4)           18.2357         0.089011   
    150. A(C   1,N  15,C   4)           21.2096         0.089012   
    151. A(C   0,N  15,C   4)           18.7192         0.089013   
    152. A(C   4,N  15,O  17)          109.8036         0.091179   
    153. A(C   4,N  15,O  16)           75.4177         0.090737   
    154. A(O  16,N  15,O  17)          129.8511         0.340799   
    155. A(C   0,N  15,C   1)           10.4946         0.089010   
    156. A(C   1,N  15,O  17)           89.0276         0.090683   
    157. A(C   2,N  15,C   3)           10.4108         0.089010   
    158. A(C   1,N  15,O  16)           85.1800         0.090342   
    159. A(C   1,N  15,C   3)           18.2232         0.089010   
    160. A(C   0,N  15,C   3)           21.4319         0.089012   
    161. A(C   3,N  15,O  17)          102.4865         0.090875   
    162. A(C   3,N  15,O  16)           86.0077         0.090495   
    163. A(C   5,N  15,C   6)           18.5598         0.089010   
    164. A(C   4,N  15,C   6)           28.5423         0.089010   
    165. A(C   2,N  15,C   6)           28.1040         0.089007   
    166. A(C   1,N  15,C   5)           18.3248         0.089012   
    167. A(C   1,N  15,C   6)           18.4580         0.089007   
    168. A(C   0,N  15,C   6)           10.7614         0.089009   
    169. A(C   6,N  15,O  17)           91.7450         0.090401   
    170. A(C   6,N  15,O  16)           69.6236         0.090117   
    171. A(C   1,N  15,C   2)           10.4088         0.089009   
    172. A(C   0,N  15,C   2)           18.2867         0.089010   
    173. A(C   2,N  15,O  17)           92.3794         0.090652   
    174. A(C   2,N  15,O  16)           90.5879         0.090317   
    175. A(C   3,N  15,C   6)           32.1930         0.089008   
    176. A(C   3,O  16,C   4)           10.1883         0.089015   
    177. A(C   2,O  16,C   4)           17.5549         0.089012   
    178. A(C   1,O  16,C   4)           21.1633         0.089014   
    179. A(C   0,O  16,C   4)           19.3752         0.089020   
    180. A(C   4,O  16,N  15)           91.7848         0.091111   
    181. A(C   0,O  16,C   1)           10.1161         0.089012   
    182. A(C   1,O  16,N  15)           82.6431         0.090302   
    183. A(C   2,O  16,C   3)           10.0986         0.089008   
    184. A(C   1,O  16,C   3)           18.1138         0.089009   
    185. A(C   0,O  16,C   3)           21.5378         0.089014   
    186. A(C   3,O  16,N  15)           81.6336         0.090419   
    187. A(C   5,O  16,C   6)           19.6304         0.089019   
    188. A(C   3,O  16,C   6)           33.0466         0.089011   
    189. A(C   2,O  16,C   6)           28.4039         0.089009   
    190. A(C   1,O  16,C   6)           18.9119         0.089010   
    191. A(C   0,O  16,C   6)           11.5091         0.089015   
    192. A(C   6,O  16,N  15)           98.5795         0.090573   
    193. A(C   4,O  16,C   6)           29.9867         0.089017   
    194. A(C   1,O  16,C   2)           10.1810         0.089007   
    195. A(C   0,O  16,C   2)           17.7832         0.089011   
    196. A(C   2,O  16,N  15)           77.4650         0.090126   
    197. A(C   0,O  16,N  15)           92.7565         0.090925   
    198. A(C   4,O  16,C   5)           11.2668         0.089026   
    199. A(C   3,O  16,C   5)           18.3799         0.089018   
    200. A(C   2,O  16,C   5)           20.4120         0.089014   
    201. A(C   1,O  16,C   5)           17.9847         0.089016   
    202. A(C   0,O  16,C   5)           11.0489         0.089024   
    203. A(C   5,O  16,N  15)           97.8651         0.091481   
    204. A(C   0,O  17,C   1)           10.3377         0.089008   
    205. A(C   1,O  17,N  15)           80.8913         0.090553   
    206. A(C   1,O  17,C   2)           10.2026         0.089007   
    207. A(C   0,O  17,C   2)           17.8197         0.089007   
    208. A(C   2,O  17,N  15)           77.6763         0.090428   
    209. A(C   0,O  17,N  15)           74.3371         0.090578   
    210. A(C   2,O  17,C   5)           20.4418         0.089007   
    211. A(C   1,O  17,C   5)           17.7923         0.089007   
    212. A(C   0,O  17,C   5)           10.2794         0.089007   
    213. A(C   5,O  17,N  15)           64.1867         0.090477   
    214. D(H   9,C   1,C   0,O  16)   -102.7747         0.035437   
    215. D(C   2,C   1,C   0,O  16)     77.1665         0.035437   
    216. D(N  15,C   1,C   0,O  17)      7.8742         0.035437   
    217. D(O  16,C   1,C   0,O  17)      8.1641         0.035437   
    218. D(H   9,C   1,C   0,C   6)      0.0222         0.035437   
    219. D(C   2,C   1,C   0,N  15)     77.4564         0.035437   
    220. D(H   9,C   1,C   0,N  15)   -102.4848         0.035437   
    221. D(O  17,C   1,C   0,N  15)     -7.8742         0.035437   
    222. D(C   2,C   1,C   0,C   6)    179.9634         0.035437   
    223. D(O  16,C   1,C   0,C   5)    -77.1946         0.035437   
    224. D(O  16,C   1,C   0,C   6)    102.7969         0.035437   
    225. D(O  16,C   1,C   0,N  15)      0.2899         0.035437   
    226. D(C   2,C   1,C   0,O  17)     85.3306         0.035437   
    227. D(H   9,C   1,C   0,C   5)   -179.9693         0.035437   
    228. D(N  15,C   1,C   0,C   6)    102.5070         0.035437   
    229. D(O  17,C   1,C   0,C   6)     94.6328         0.035437   
    230. D(C   2,C   1,C   0,C   5)     -0.0281         0.035437   
    231. D(N  15,C   1,C   0,C   5)    -77.4845         0.035437   
    232. D(O  17,C   1,C   0,C   5)    -85.3587         0.035437   
    233. D(N  15,C   1,C   0,O  16)     -0.2899         0.035437   
    234. D(H   9,C   1,C   0,O  17)    -94.6106         0.035437   
    235. D(O  17,C   1,C   0,O  16)     -8.1641         0.035437   
    236. D(O  16,C   2,C   1,H   9)    117.4076         0.036614   
    237. D(H   8,C   2,C   1,O  17)    -97.4819         0.036614   
    238. D(H   8,C   2,C   1,H   9)     -0.0298         0.036614   
    239. D(H   8,C   2,C   1,O  16)   -117.4374         0.036614   
    240. D(C   3,C   2,C   1,C   0)      0.0198         0.036614   
    241. D(O  17,C   2,C   1,C   0)    -82.4896         0.036614   
    242. D(C   3,C   2,C   1,H   9)    179.9615         0.036614   
    243. D(N  15,C   2,C   1,O  16)    -10.4157         0.036614   
    244. D(C   3,C   2,C   1,O  16)     62.5539         0.036614   
    245. D(C   3,C   2,C   1,O  17)     82.5094         0.036614   
    246. D(N  15,C   2,C   1,O  17)      9.5397         0.036614   
    247. D(O  16,C   2,C   1,N  15)     10.4157         0.036614   
    248. D(O  17,C   2,C   1,N  15)     -9.5397         0.036614   
    249. D(H   8,C   2,C   1,N  15)   -107.0217         0.036614   
    250. D(O  16,C   2,C   1,O  17)     19.9554         0.036614   
    251. D(N  15,C   2,C   1,H   9)    106.9919         0.036614   
    252. D(N  15,C   2,C   1,C   0)    -72.9498         0.036614   
    253. D(C   3,C   2,C   1,N  15)     72.9696         0.036614   
    254. D(O  17,C   2,C   1,H   9)     97.4521         0.036614   
    255. D(O  17,C   2,C   1,O  16)    -19.9554         0.036614   
    256. D(H   8,C   2,C   1,C   0)   -179.9715         0.036614   
    257. D(O  16,C   2,C   1,C   0)    -62.5341         0.036614   
    258. D(C   4,C   3,C   2,O  16)     64.7521         0.035871   
    259. D(O  16,C   3,C   2,C   1)    -64.7608         0.035871   
    260. D(H   7,C   3,C   2,H   8)     -0.0162         0.035871   
    261. D(C   4,C   3,C   2,O  17)     78.2766         0.035871   
    262. D(O  16,C   3,C   2,H   8)    115.2306         0.035871   
    263. D(H   7,C   3,C   2,O  16)   -115.2468         0.035871   
    264. D(N  15,C   3,C   2,O  16)    -11.1710         0.035871   
    265. D(N  15,C   3,C   2,O  17)      2.3535         0.035871   
    266. D(N  15,C   3,C   2,H   8)    104.0596         0.035871   
    267. D(N  15,C   3,C   2,C   1)    -75.9317         0.035871   
    268. D(O  16,C   3,C   2,O  17)     13.5244         0.035871   
    269. D(C   4,C   3,C   2,H   8)    179.9827         0.035871   
    270. D(H   7,C   3,C   2,N  15)   -104.0758         0.035871   
    271. D(H   7,C   3,C   2,O  17)   -101.7223         0.035871   
    272. D(O  16,C   3,C   2,N  15)     11.1710         0.035871   
    273. D(H   7,C   3,C   2,C   1)    179.9925         0.035871   
    274. D(C   4,C   3,C   2,N  15)     75.9231         0.035871   
    275. D(C   4,C   3,C   2,C   1)     -0.0087         0.035871   
    276. D(C   5,C   4,C   3,C   2)      0.0061         0.033808   
    277. D(H  14,C   4,C   3,O  16)    -97.3060         0.033808   
    278. D(H  14,C   4,C   3,N  15)    -96.2257         0.033808   
    279. D(C   5,C   4,C   3,H   7)   -179.9950         0.033808   
    280. D(N  15,C   4,C   3,H   7)     96.2104         0.033808   
    281. D(C   5,C   4,C   3,N  15)     83.7946         0.033808   
    282. D(H  14,C   4,C   3,C   2)    179.9858         0.033808   
    283. D(O  16,C   4,C   3,C   2)    -82.7082         0.033808   
    284. D(O  16,C   4,C   3,N  15)      1.0803         0.033808   
    285. D(O  16,C   4,C   3,H   7)     97.2907         0.033808   
    286. D(H  14,C   4,C   3,H   7)     -0.0153         0.033808   
    287. D(N  15,C   4,C   3,C   2)    -83.7885         0.033808   
    288. D(C   5,C   4,C   3,O  16)     82.7143         0.033808   
    289. D(N  15,C   4,C   3,O  16)     -1.0803         0.033808   
    290. D(C   0,C   5,C   4,C   3)     -0.0147         0.034932   
    291. D(C   4,C   5,C   0,O  16)    -96.7776         0.035553   
    292. D(O  16,C   5,C   4,N  15)    -10.7769         0.034932   
    293. D(O  17,C   5,C   4,O  16)     19.7444         0.034932   
    294. D(O  16,C   5,C   4,C   3)    -99.4506         0.034932   
    295. D(O  17,C   5,C   4,H  14)    100.3141         0.034932   
    296. D(H  13,C   5,C   0,N  15)     94.5350         0.035553   
    297. D(H  13,C   5,C   4,N  15)    -91.3359         0.034932   
    298. D(C   0,C   5,C   4,O  16)     99.4359         0.034932   
    299. D(H  13,C   5,C   4,H  14)      0.0107         0.034932   
    300. D(O  17,C   5,C   0,C   6)    -96.0716         0.035553   
    301. D(O  17,C   5,C   0,N  15)     -1.5655         0.035553   
    302. D(O  17,C   5,C   4,C   3)    -79.7062         0.034932   
    303. D(N  15,C   5,C   4,O  16)     10.7769         0.034932   
    304. D(O  16,C   5,C   0,C   1)     96.8032         0.035553   
    305. D(O  16,C   5,C   4,H  14)     80.5697         0.034932   
    306. D(O  17,C   5,C   4,N  15)      8.9675         0.034932   
    307. D(N  15,C   5,C   4,C   3)    -88.6737         0.034932   
    308. D(N  15,C   5,C   4,H  14)     91.3466         0.034932   
    309. D(O  17,C   5,C   0,C   1)     83.9198         0.035553   
    310. D(N  15,C   5,C   0,C   6)    -94.5061         0.035553   
    311. D(N  15,C   5,C   0,C   1)     85.4853         0.035553   
    312. D(H  13,C   5,C   4,C   3)    179.9904         0.034932   
    313. D(C   0,C   5,C   4,N  15)     88.6590         0.034932   
    314. D(H  13,C   5,C   4,O  16)    -80.5590         0.034932   
    315. D(O  17,C   5,C   0,O  16)    -12.8833         0.035553   
    316. D(C   4,C   5,C   0,C   1)      0.0255         0.035553   
    317. D(H  13,C   5,C   0,O  17)     96.1005         0.035553   
    318. D(O  16,C   5,C   0,C   6)    -83.1883         0.035553   
    319. D(H  13,C   5,C   0,O  16)     83.2172         0.035553   
    320. D(C   4,C   5,C   0,C   6)   -179.9659         0.035553   
    321. D(C   4,C   5,C   0,N  15)    -85.4598         0.035553   
    322. D(C   0,C   5,C   4,H  14)   -179.9944         0.034932   
    323. D(N  15,C   5,C   0,O  16)    -11.3178         0.035553   
    324. D(H  13,C   5,C   0,C   1)   -179.9797         0.035553   
    325. D(O  16,C   5,C   0,N  15)     11.3178         0.035553   
    326. D(O  16,C   5,C   0,O  17)     12.8833         0.035553   
    327. D(N  15,C   5,C   0,O  17)      1.5655         0.035553   
    328. D(H  13,C   5,C   0,C   6)      0.0289         0.035553   
    329. D(C   4,C   5,C   0,O  17)    -83.8943         0.035553   
    330. D(H  11,C   6,C   0,O  17)    147.9431         0.016808   
    331. D(H  11,C   6,C   0,N  15)    157.4073         0.016808   
    332. D(H  10,C   6,C   0,O  16)    -71.5021         0.016808   
    333. D(O  16,C   6,C   0,O  17)    -20.3885         0.016808   
    334. D(H  10,C   6,C   0,C   1)    179.5963         0.016808   
    335. D(H  11,C   6,C   0,O  16)    168.3316         0.016808   
    336. D(H  11,C   6,C   0,C   5)   -120.5787         0.016808   
    337. D(H  10,C   6,C   0,C   5)     -0.4124         0.016808   
    338. D(H  11,C   6,C   0,C   1)     59.4300         0.016808   
    339. D(H  12,C   6,C   0,C   1)    -60.4548         0.016808   
    340. D(H  10,C   6,C   0,O  17)    -91.8906         0.016808   
    341. D(H  10,C   6,C   0,N  15)    -82.4264         0.016808   
    342. D(O  16,C   6,C   0,C   1)   -108.9016         0.016808   
    343. D(O  16,C   6,C   0,N  15)    -10.9243         0.016808   
    344. D(O  16,C   6,C   0,C   5)     71.0897         0.016808   
    345. D(N  15,C   6,C   0,O  16)     10.9243         0.016808   
    346. D(N  15,C   6,C   0,C   5)     82.0140         0.016808   
    347. D(H  12,C   6,C   0,O  17)     28.0583         0.016808   
    348. D(N  15,C   6,C   0,O  17)     -9.4642         0.016808   
    349. D(N  15,C   6,C   0,C   1)    -97.9773         0.016808   
    350. D(H  12,C   6,C   0,O  16)     48.4469         0.016808   
    351. D(H  12,C   6,C   0,N  15)     37.5226         0.016808   
    352. D(H  12,C   6,C   0,C   5)    119.5366         0.016808   
    353. D(O  17,N  15,C   3,H   7)    106.8942         0.001500   
    354. D(O  17,N  15,C   3,C   2)    -14.0769         0.001500   
    355. D(O  16,N  15,C   3,C   4)     -4.5785         0.001500   
    356. D(C   4,N  15,C   1,O  16)     61.2430         0.001500   
    357. D(C   6,N  15,C   2,H   8)    137.5762         0.001500   
    358. D(C   5,N  15,C   1,H   9)    149.2491         0.001500   
    359. D(C   5,N  15,C   2,O  17)    131.7492         0.001500   
    360. D(C   5,N  15,C   2,O  16)      1.8225         0.001500   
    361. D(C   4,N  15,C   2,O  17)    163.2329         0.001500   
    362. D(C   6,N  15,C   1,C   2)   -152.7463         0.001500   
    363. D(C   4,N  15,C   2,C   1)     91.9094         0.001500   
    364. D(O  16,N  15,C   2,H   8)    178.2541         0.001500   
    365. D(C   3,N  15,C   2,C   1)    122.4260         0.001500   
    366. D(C   4,N  15,C   2,C   3)    -30.5165         0.001500   
    367. D(O  17,N  15,C   2,C   1)    -71.3235         0.001500   
    368. D(C   1,N  15,C   2,H   8)    119.6508         0.001500   
    369. D(C   1,N  15,C   2,C   3)   -122.4260         0.001500   
    370. D(C   0,N  15,C   2,O  17)    100.7020         0.001500   
    371. D(C   0,N  15,C   2,C   3)    -93.0474         0.001500   
    372. D(C   0,N  15,C   2,O  16)    -29.2247         0.001500   
    373. D(O  17,N  15,C   2,H   8)     48.3274         0.001500   
    374. D(O  17,N  15,C   2,C   3)    166.2506         0.001500   
    375. D(C   0,N  15,C   2,H   8)    149.0294         0.001500   
    376. D(O  16,N  15,C   2,O  17)    129.9268         0.001500   
    377. D(C   3,N  15,C   2,H   8)   -117.9232         0.001500   
    378. D(C   1,N  15,C   2,O  16)    -58.6033         0.001500   
    379. D(C   6,N  15,C   1,O  17)     98.4558         0.001500   
    380. D(C   6,N  15,C   1,O  16)    -31.6793         0.001500   
    381. D(C   6,N  15,C   1,H   9)     87.7753         0.001500   
    382. D(C   4,N  15,C   2,H   8)   -148.4397         0.001500   
    383. D(C   3,N  15,C   2,O  17)   -166.2506         0.001500   
    384. D(C   6,N  15,C   1,C   0)    -30.4293         0.001500   
    385. D(C   5,N  15,C   1,O  16)     29.7945         0.001500   
    386. D(C   5,N  15,C   2,H   8)   -179.9234         0.001500   
    387. D(C   6,N  15,C   2,C   3)   -104.5006         0.001500   
    388. D(C   5,N  15,C   1,C   0)     31.0446         0.001500   
    389. D(C   4,N  15,C   1,O  17)   -168.6219         0.001500   
    390. D(C   4,N  15,C   2,O  16)     33.3061         0.001500   
    391. D(C   4,N  15,C   1,H   9)   -179.3024         0.001500   
    392. D(O  16,N  15,C   3,H   7)   -123.1303         0.001500   
    393. D(C   6,N  15,C   2,O  17)     89.2488         0.001500   
    394. D(C   3,N  15,C   1,O  17)   -137.9911         0.001500   
    395. D(C   3,N  15,C   1,O  16)     91.8737         0.001500   
    396. D(O  17,N  15,C   3,C   4)   -134.5540         0.001500   
    397. D(C   3,N  15,C   1,H   9)   -148.6717         0.001500   
    398. D(C   3,N  15,C   1,C   2)    -29.1932         0.001500   
    399. D(C   6,N  15,C   2,O  16)    -40.6780         0.001500   
    400. D(C   3,N  15,C   1,C   0)     93.1238         0.001500   
    401. D(C   2,N  15,C   1,O  17)   -108.7979         0.001500   
    402. D(C   5,N  15,C   6,O  16)     85.8550         0.001500   
    403. D(C   5,N  15,C   6,H  12)   -166.4066         0.001500   
    404. D(C   5,N  15,C   6,H  11)   -122.5170         0.001500   
    405. D(C   2,N  15,C   1,H   9)   -119.4785         0.001500   
    406. D(C   2,N  15,C   1,C   0)    122.3170         0.001500   
    407. D(C   4,N  15,C   6,H  12)   -155.3245         0.001500   
    408. D(C   4,N  15,C   1,C   0)     62.4930         0.001500   
    409. D(C   4,N  15,C   1,C   2)    -59.8240         0.001500   
    410. D(C   0,N  15,C   1,O  17)    128.8851         0.001500   
    411. D(O  16,N  15,C   3,C   2)    115.8986         0.001500   
    412. D(C   0,N  15,C   1,O  16)     -1.2501         0.001500   
    413. D(C   4,N  15,C   6,C   0)    -19.5210         0.001500   
    414. D(C   5,N  15,C   1,C   2)    -91.2724         0.001500   
    415. D(C   6,N  15,C   2,C   1)     17.9253         0.001500   
    416. D(C   3,N  15,C   6,O  16)    116.7804         0.001500   
    417. D(C   5,N  15,C   1,O  17)    159.9297         0.001500   
    418. D(C   0,N  15,C   1,H   9)    118.2045         0.001500   
    419. D(C   5,N  15,C   2,C   1)     60.4258         0.001500   
    420. D(C   0,N  15,C   3,C   4)    -61.4393         0.001500   
    421. D(C   3,N  15,C   0,O  17)   -110.1589         0.001500   
    422. D(C   4,N  15,C   0,C   1)    -89.0163         0.001500   
    423. D(O  16,N  15,C   2,C   1)     58.6033         0.001500   
    424. D(O  16,N  15,C   2,C   3)    -63.8227         0.001500   
    425. D(C   3,N  15,C   2,O  16)     63.8227         0.001500   
    426. D(C   3,N  15,C   6,C   0)      0.3223         0.001500   
    427. D(C   1,N  15,C   2,O  17)     71.3235         0.001500   
    428. D(O  17,N  15,C   1,O  16)   -130.1352         0.001500   
    429. D(C   2,N  15,C   6,H  12)   -116.3111         0.001500   
    430. D(O  17,N  15,C   2,O  16)   -129.9268         0.001500   
    431. D(C   0,N  15,C   2,C   1)     29.3786         0.001500   
    432. D(C   2,N  15,C   6,H  10)    132.4731         0.001500   
    433. D(C   3,N  15,C   5,H  13)    149.1126         0.001500   
    434. D(C   4,N  15,C   0,O  16)     89.6922         0.001500   
    435. D(C   4,N  15,C   0,C   6)    150.1656         0.001500   
    436. D(C   4,N  15,C   5,H  13)    119.1338         0.001500   
    437. D(C   0,N  15,C   6,O  16)    116.4581         0.001500   
    438. D(O  16,N  15,C   1,C   2)   -121.0669         0.001500   
    439. D(C   0,N  15,C   6,H  12)   -135.8035         0.001500   
    440. D(C   1,N  15,C   6,H  12)   -106.1957         0.001500   
    441. D(O  17,N  15,C   6,H  12)    -24.5274         0.001500   
    442. D(C   5,N  15,C   0,O  16)     59.1485         0.001500   
    443. D(O  16,N  15,C   6,H  12)    107.7384         0.001500   
    444. D(C   5,N  15,C   0,C   1)   -119.5600         0.001500   
    445. D(O  16,N  15,C   6,H  10)     -3.4774         0.001500   
    446. D(C   6,N  15,C   5,O  17)     39.9845         0.001500   
    447. D(O  17,N  15,C   6,C   0)    111.2761         0.001500   
    448. D(O  17,N  15,C   6,H  10)   -135.7432         0.001500   
    449. D(C   5,N  15,C   2,C   3)    -62.0002         0.001500   
    450. D(C   5,N  15,C   0,C   6)    119.6220         0.001500   
    451. D(C   6,N  15,C   5,C   0)     30.6609         0.001500   
    452. D(C   6,N  15,C   0,O  17)     69.3711         0.001500   
    453. D(O  16,N  15,C   6,C   0)   -116.4581         0.001500   
    454. D(C   0,N  15,C   6,H  11)    -91.9139         0.001500   
    455. D(C   4,N  15,C   5,C   0)   -120.2234         0.001500   
    456. D(O  16,N  15,C   1,C   0)      1.2501         0.001500   
    457. D(C   1,N  15,C   6,O  16)    146.0659         0.001500   
    458. D(O  17,N  15,C   1,C   0)   -128.8851         0.001500   
    459. D(C   1,N  15,C   6,H  10)    142.5885         0.001500   
    460. D(C   0,N  15,C   6,H  10)    112.9807         0.001500   
    461. D(C   2,N  15,C   6,H  11)    -72.4215         0.001500   
    462. D(C   2,N  15,C   6,O  16)    135.9505         0.001500   
    463. D(O  17,N  15,C   1,C   2)    108.7979         0.001500   
    464. D(C   3,N  15,C   6,H  11)    -91.5916         0.001500   
    465. D(C   3,N  15,C   0,O  16)    119.9965         0.001500   
    466. D(C   1,N  15,C   5,O  16)   -148.0679         0.001500   
    467. D(C   3,N  15,C   6,H  10)    113.3030         0.001500   
    468. D(O  17,N  15,C   6,O  16)   -132.2658         0.001500   
    469. D(O  16,N  15,C   1,H   9)    119.4546         0.001500   
    470. D(C   0,N  15,C   3,C   2)     59.0378         0.001500   
    471. D(C   3,N  15,C   0,C   6)   -179.5301         0.001500   
    472. D(C   1,N  15,C   3,O  16)    -86.7115         0.001500   
    473. D(C   0,N  15,C   5,O  17)      9.3236         0.001500   
    474. D(C   2,N  15,C   3,H   7)    120.9711         0.001500   
    475. D(O  17,N  15,C   5,O  16)   -127.1317         0.001500   
    476. D(C   3,N  15,C   0,C   1)    -58.7120         0.001500   
    477. D(C   1,N  15,C   5,C   0)    -30.2598         0.001500   
    478. D(C   4,N  15,C   3,H   7)   -118.5518         0.001500   
    479. D(O  16,N  15,C   5,O  17)    127.1317         0.001500   
    480. D(C   4,N  15,C   3,O  16)      4.5785         0.001500   
    481. D(C   5,N  15,C   3,C   4)    -30.7665         0.001500   
    482. D(O  16,N  15,C   5,H  13)     -2.8347         0.001500   
    483. D(O  16,N  15,C   5,C   0)    117.8081         0.001500   
    484. D(C   6,N  15,C   4,O  16)    -74.0573         0.001500   
    485. D(C   6,N  15,C   3,H   7)    179.8442         0.001500   
    486. D(C   5,N  15,C   4,O  16)    -55.1441         0.001500   
    487. D(C   6,N  15,C   3,O  16)    -57.0255         0.001500   
    488. D(O  16,N  15,C   4,C   5)     55.1441         0.001500   
    489. D(C   3,N  15,C   4,H  14)    120.1516         0.001500   
    490. D(C   5,N  15,C   3,O  16)    -26.1880         0.001500   
    491. D(C   3,N  15,C   4,C   5)   -120.1361         0.001500   
    492. D(C   2,N  15,C   4,C   5)    -90.2895         0.001500   
    493. D(O  16,N  15,C   0,C   5)    -59.1485         0.001500   
    494. D(C   1,N  15,C   4,H  14)    179.9397         0.001500   
    495. D(O  17,N  15,C   0,C   1)     51.4469         0.001500   
    496. D(C   1,N  15,C   4,C   5)    -60.3480         0.001500   
    497. D(C   0,N  15,C   4,O  16)    -85.2677         0.001500   
    498. D(C   0,N  15,C   4,H  14)   -149.8359         0.001500   
    499. D(C   1,N  15,C   4,C   3)     59.7881         0.001500   
    500. D(C   0,N  15,C   4,C   5)    -30.1236         0.001500   
    501. D(O  16,N  15,C   0,O  17)    129.8446         0.001500   
    502. D(O  16,N  15,C   0,C   6)     60.4735         0.001500   
    503. D(C   0,N  15,C   4,C   3)     90.0125         0.001500   
    504. D(O  17,N  15,C   4,O  16)   -127.5942         0.001500   
    505. D(O  17,N  15,C   0,C   5)    171.0069         0.001500   
    506. D(O  17,N  15,C   4,H  14)    167.8376         0.001500   
    507. D(O  17,N  15,C   4,C   3)     47.6860         0.001500   
    508. D(O  16,N  15,C   0,C   1)   -178.7085         0.001500   
    509. D(O  17,N  15,C   4,C   5)    -72.4501         0.001500   
    510. D(C   2,N  15,C   4,C   3)     29.8466         0.001500   
    511. D(O  17,N  15,C   0,O  16)   -129.8446         0.001500   
    512. D(O  16,N  15,C   4,H  14)    -64.5681         0.001500   
    513. D(C   2,N  15,C   4,O  16)   -145.4337         0.001500   
    514. D(C   3,N  15,C   4,O  16)   -175.2803         0.001500   
    515. D(O  16,N  15,C   4,C   3)    175.2803         0.001500   
    516. D(C   1,N  15,C   0,C   5)    119.5600         0.001500   
    517. D(C   2,N  15,C   4,H  14)    149.9982         0.001500   
    518. D(C   5,N  15,C   4,H  14)   -119.7123         0.001500   
    519. D(C   1,N  15,C   0,O  16)    178.7085         0.001500   
    520. D(C   1,N  15,C   0,C   6)   -120.8180         0.001500   
    521. D(O  17,N  15,C   5,C   4)    110.8998         0.001500   
    522. D(C   6,N  15,C   3,C   4)    -61.6040         0.001500   
    523. D(C   6,N  15,C   3,C   2)     58.8731         0.001500   
    524. D(C   6,N  15,C   4,C   3)    101.2230         0.001500   
    525. D(C   5,N  15,C   4,C   3)    120.1361         0.001500   
    526. D(O  17,N  15,C   0,C   6)    -69.3711         0.001500   
    527. D(C   1,N  15,C   4,O  16)   -115.4922         0.001500   
    528. D(C   2,N  15,C   0,C   1)    -29.1182         0.001500   
    529. D(C   5,N  15,C   3,H   7)   -149.3184         0.001500   
    530. D(C   2,N  15,C   0,C   5)     90.4418         0.001500   
    531. D(C   1,N  15,C   5,H  13)   -150.9026         0.001500   
    532. D(C   5,N  15,C   3,C   2)     89.7105         0.001500   
    533. D(C   1,N  15,C   5,O  17)    -20.9362         0.001500   
    534. D(C   2,N  15,C   5,C   0)    -60.2452         0.001500   
    535. D(C   0,N  15,C   1,C   2)   -122.3170         0.001500   
    536. D(C   2,N  15,C   5,H  13)    179.1120         0.001500   
    537. D(C   2,N  15,C   5,O  16)   -178.0533         0.001500   
    538. D(O  17,N  15,C   1,H   9)    -10.6806         0.001500   
    539. D(C   3,N  15,C   5,C   0)    -90.2446         0.001500   
    540. D(C   3,N  15,C   5,C   4)     29.9788         0.001500   
    541. D(C   2,N  15,C   6,C   0)     19.4924         0.001500   
    542. D(C   3,N  15,C   5,O  16)    151.9473         0.001500   
    543. D(O  16,N  15,C   1,O  17)    130.1352         0.001500   
    544. D(C   4,N  15,C   0,O  17)   -140.4632         0.001500   
    545. D(C   1,N  15,C   6,C   0)     29.6077         0.001500   
    546. D(C   4,N  15,C   5,O  16)    121.9685         0.001500   
    547. D(C   4,N  15,C   5,O  17)   -110.8998         0.001500   
    548. D(O  16,N  15,C   5,C   4)   -121.9685         0.001500   
    549. D(C   6,N  15,C   5,C   4)    150.8843         0.001500   
    550. D(C   6,N  15,C   5,H  13)    -89.9819         0.001500   
    551. D(C   6,N  15,C   0,O  16)    -60.4735         0.001500   
    552. D(C   5,N  15,C   0,O  17)   -171.0069         0.001500   
    553. D(C   6,N  15,C   0,C   5)   -119.6220         0.001500   
    554. D(O  16,N  15,C   6,H  11)    151.6280         0.001500   
    555. D(C   6,N  15,C   0,C   1)    120.8180         0.001500   
    556. D(C   6,N  15,C   4,H  14)   -138.6255         0.001500   
    557. D(O  17,N  15,C   5,C   0)     -9.3236         0.001500   
    558. D(O  17,N  15,C   6,H  11)     19.3622         0.001500   
    559. D(C   6,N  15,C   5,O  16)    -87.1472         0.001500   
    560. D(C   2,N  15,C   0,O  16)    149.5903         0.001500   
    561. D(C   2,N  15,C   0,C   6)   -149.9362         0.001500   
    562. D(C   4,N  15,C   3,C   2)    120.4771         0.001500   
    563. D(C   2,N  15,C   3,O  16)   -115.8986         0.001500   
    564. D(O  17,N  15,C   5,H  13)   -129.9664         0.001500   
    565. D(C   1,N  15,C   0,O  17)    -51.4469         0.001500   
    566. D(C   0,N  15,C   5,H  13)   -120.6428         0.001500   
    567. D(C   2,N  15,C   3,C   4)   -120.4771         0.001500   
    568. D(C   1,N  15,C   6,H  11)    -62.3061         0.001500   
    569. D(C   3,N  15,C   5,O  17)    -80.9210         0.001500   
    570. D(C   0,N  15,C   5,O  16)   -117.8081         0.001500   
    571. D(C   3,N  15,C   0,C   5)     60.8479         0.001500   
    572. D(C   1,N  15,C   3,H   7)    150.1581         0.001500   
    573. D(C   0,N  15,C   5,C   4)    120.2234         0.001500   
    574. D(C   4,N  15,C   0,C   5)     30.5436         0.001500   
    575. D(C   2,N  15,C   5,O  17)    -50.9216         0.001500   
    576. D(C   1,N  15,C   3,C   4)    -91.2900         0.001500   
    577. D(C   1,N  15,C   3,C   2)     29.1871         0.001500   
    578. D(C   3,N  15,C   6,H  12)   -135.4812         0.001500   
    579. D(C   2,N  15,C   5,C   4)     59.9782         0.001500   
    580. D(C   0,N  15,C   3,O  16)    -56.8608         0.001500   
    581. D(C   0,N  15,C   3,H   7)   -179.9911         0.001500   
    582. D(C   4,N  15,C   6,H  10)     93.4597         0.001500   
    583. D(C   4,N  15,C   6,H  11)   -111.4349         0.001500   
    584. D(C   1,N  15,C   5,C   4)     89.9635         0.001500   
    585. D(C   4,N  15,C   6,O  16)     96.9371         0.001500   
    586. D(C   5,N  15,C   6,C   0)    -30.6031         0.001500   
    587. D(C   5,N  15,C   6,H  10)     82.3776         0.001500   
    588. D(C   2,N  15,C   0,O  17)    -80.5651         0.001500   
    589. D(C   6,N  15,C   4,C   5)    -18.9132         0.001500   
    590. D(O  17,N  15,C   3,O  16)   -129.9755         0.001500   
    591. D(C   2,N  15,C   1,O  16)    121.0669         0.001500   
    592. D(C   2,O  16,C   4,C   3)     30.1942         0.001500   
    593. D(C   1,O  16,C   4,N  15)     64.1930         0.001500   
    594. D(C   1,O  16,C   4,H  14)    179.9453         0.001500   
    595. D(C   1,O  16,C   4,C   3)     59.3135         0.001500   
    596. D(C   0,O  16,C   4,N  15)     93.2345         0.001500   
    597. D(C   0,O  16,C   4,H  14)   -151.0132         0.001500   
    598. D(C   0,O  16,C   4,C   3)     88.3550         0.001500   
    599. D(N  15,O  16,C   4,H  14)    115.7523         0.001500   
    600. D(N  15,O  16,C   4,C   5)   -122.9778         0.001500   
    601. D(N  15,O  16,C   4,C   3)     -4.8795         0.001500   
    602. D(C   6,O  16,C   3,N  15)    120.1702         0.001500   
    603. D(C   6,O  16,C   3,H   7)    179.8446         0.001500   
    604. D(C   6,O  16,C   3,C   4)    -64.7595         0.001500   
    605. D(C   5,O  16,C   3,N  15)    151.7958         0.001500   
    606. D(C   5,O  16,C   3,H   7)   -148.5298         0.001500   
    607. D(C   5,O  16,C   3,C   4)    -33.1339         0.001500   
    608. D(C   4,O  16,C   3,N  15)   -175.0703         0.001500   
    609. D(C   4,O  16,C   3,H   7)   -115.3959         0.001500   
    610. D(C   4,O  16,C   3,C   2)    120.1021         0.001500   
    611. D(C   2,O  16,C   3,H   7)    124.5020         0.001500   
    612. D(C   2,O  16,C   3,C   4)   -120.1021         0.001500   
    613. D(C   1,O  16,C   3,N  15)     91.9083         0.001500   
    614. D(C   1,O  16,C   3,H   7)    151.5827         0.001500   
    615. D(C   1,O  16,C   3,C   4)    -93.0214         0.001500   
    616. D(C   1,O  16,C   3,C   2)     27.0807         0.001500   
    617. D(C   0,O  16,C   3,N  15)    120.3340         0.001500   
    618. D(C   0,O  16,C   3,C   4)    -64.5957         0.001500   
    619. D(C   0,O  16,C   3,C   2)     55.5063         0.001500   
    620. D(N  15,O  16,C   3,H   7)     59.6744         0.001500   
    621. D(N  15,O  16,C   3,C   2)    -64.8276         0.001500   
    622. D(C   6,O  16,C   2,O  17)    114.1112         0.001500   
    623. D(C   6,O  16,C   2,N  15)    137.0883         0.001500   
    624. D(C   6,O  16,C   2,C   3)   -109.4411         0.001500   
    625. D(C   6,O  16,C   2,C   1)     17.3575         0.001500   
    626. D(C   5,O  16,C   2,O  17)    159.0213         0.001500   
    627. D(C   5,O  16,C   2,N  15)   -178.0015         0.001500   
    628. D(C   5,O  16,C   2,H   8)   -179.9159         0.001500   
    629. D(C   5,O  16,C   2,C   3)    -64.5310         0.001500   
    630. D(C   5,O  16,C   2,C   1)     62.2677         0.001500   
    631. D(C   4,O  16,C   2,N  15)   -143.9582         0.001500   
    632. D(C   4,O  16,C   2,H   8)   -145.8726         0.001500   
    633. D(C   4,O  16,C   2,C   3)    -30.4877         0.001500   
    634. D(C   3,O  16,C   2,O  17)   -136.4477         0.001500   
    635. D(C   3,O  16,C   2,N  15)   -113.4705         0.001500   
    636. D(C   3,O  16,C   2,H   8)   -115.3849         0.001500   
    637. D(C   1,O  16,C   2,O  17)     96.7536         0.001500   
    638. D(C   1,O  16,C   2,N  15)    119.7308         0.001500   
    639. D(C   1,O  16,C   2,H   8)    117.8165         0.001500   
    640. D(C   1,O  16,C   2,C   3)   -126.7986         0.001500   
    641. D(C   0,O  16,C   2,O  17)    125.7271         0.001500   
    642. D(C   0,O  16,C   2,N  15)    148.7043         0.001500   
    643. D(C   0,O  16,C   2,H   8)    146.7900         0.001500   
    644. D(C   0,O  16,C   2,C   1)     28.9735         0.001500   
    645. D(N  15,O  16,C   2,O  17)    -22.9772         0.001500   
    646. D(N  15,O  16,C   2,H   8)     -1.9143         0.001500   
    647. D(N  15,O  16,C   2,C   1)   -119.7308         0.001500   
    648. D(C   6,O  16,C   1,O  17)    124.4146         0.001500   
    649. D(C   6,O  16,C   1,N  15)    147.2397         0.001500   
    650. D(C   6,O  16,C   1,H   9)     82.8089         0.001500   
    651. D(C   6,O  16,C   1,C   2)   -154.0334         0.001500   
    652. D(C   6,O  16,C   1,C   0)    -31.4178         0.001500   
    653. D(C   5,O  16,C   1,O  17)   -170.4537         0.001500   
    654. D(C   5,O  16,C   1,N  15)   -147.6286         0.001500   
    655. D(N  15,O  16,C   2,C   3)    113.4705         0.001500   
    656. D(C   5,O  16,C   1,H   9)    147.9406         0.001500   
    657. D(C   5,O  16,C   1,C   2)    -88.9018         0.001500   
    658. D(C   5,O  16,C   1,C   0)     33.7139         0.001500   
    659. D(C   0,O  16,C   2,C   3)    -97.8251         0.001500   
    660. D(C   4,O  16,C   1,O  17)   -137.6905         0.001500   
    661. D(C   4,O  16,C   1,N  15)   -114.8655         0.001500   
    662. D(C   4,O  16,C   1,H   9)   -179.2962         0.001500   
    663. D(C   4,O  16,C   1,C   2)    -56.1386         0.001500   
    664. D(C   4,O  16,C   1,C   0)     66.4771         0.001500   
    665. D(C   3,O  16,C   1,O  17)   -108.3983         0.001500   
    666. D(C   3,O  16,C   1,N  15)    -85.5732         0.001500   
    667. D(C   3,O  16,C   2,C   1)    126.7986         0.001500   
    668. D(C   3,O  16,C   1,H   9)   -150.0040         0.001500   
    669. D(C   3,O  16,C   1,C   2)    -26.8463         0.001500   
    670. D(C   3,O  16,C   1,C   0)     95.7693         0.001500   
    671. D(C   4,O  16,C   2,C   1)     96.3109         0.001500   
    672. D(C   2,O  16,C   1,O  17)    -81.5520         0.001500   
    673. D(C   2,O  16,C   1,N  15)    -58.7269         0.001500   
    674. D(C   2,O  16,C   1,H   9)   -123.1577         0.001500   
    675. D(C   4,O  16,C   2,O  17)   -166.9354         0.001500   
    676. D(C   2,O  16,C   1,C   0)    122.6156         0.001500   
    677. D(C   0,O  16,C   1,O  17)    155.8324         0.001500   
    678. D(C   0,O  16,C   1,N  15)    178.6575         0.001500   
    679. D(C   0,O  16,C   1,H   9)    114.2267         0.001500   
    680. D(C   0,O  16,C   1,C   2)   -122.6156         0.001500   
    681. D(N  15,O  16,C   1,O  17)    -22.8251         0.001500   
    682. D(N  15,O  16,C   1,H   9)    -64.4308         0.001500   
    683. D(C   6,O  16,C   2,H   8)    135.1740         0.001500   
    684. D(N  15,O  16,C   1,C   2)     58.7269         0.001500   
    685. D(N  15,O  16,C   1,C   0)   -178.6575         0.001500   
    686. D(C   6,O  16,C   0,O  17)     98.2729         0.001500   
    687. D(N  15,O  16,C   3,C   4)    175.0703         0.001500   
    688. D(C   6,O  16,C   0,N  15)    120.8037         0.001500   
    689. D(C   6,O  16,C   0,C   5)   -121.2734         0.001500   
    690. D(C   6,O  16,C   0,C   1)    122.1367         0.001500   
    691. D(C   0,O  16,C   3,H   7)   -179.9917         0.001500   
    692. D(C   5,O  16,C   0,O  17)   -140.4537         0.001500   
    693. D(C   5,O  16,C   0,N  15)   -117.9229         0.001500   
    694. D(C   5,O  16,C   0,C   6)    121.2734         0.001500   
    695. D(C   5,O  16,C   0,C   1)   -116.5899         0.001500   
    696. D(C   4,O  16,C   0,O  17)   -110.0710         0.001500   
    697. D(C   4,O  16,C   0,N  15)    -87.5402         0.001500   
    698. D(C   4,O  16,C   0,C   6)    151.6561         0.001500   
    699. D(C   2,O  16,C   3,N  15)     64.8276         0.001500   
    700. D(C   4,O  16,C   0,C   5)     30.3826         0.001500   
    701. D(C   4,O  16,C   0,C   1)    -86.2072         0.001500   
    702. D(C   3,O  16,C   0,O  17)    -81.2795         0.001500   
    703. D(C   5,O  16,C   3,C   2)     86.9681         0.001500   
    704. D(C   3,O  16,C   0,N  15)    -58.7487         0.001500   
    705. D(C   3,O  16,C   0,C   6)   -179.5524         0.001500   
    706. D(C   3,O  16,C   0,C   5)     59.1741         0.001500   
    707. D(C   6,O  16,C   3,C   2)     55.3426         0.001500   
    708. D(C   3,O  16,C   0,C   1)    -57.4157         0.001500   
    709. D(C   2,O  16,C   0,O  17)    -53.0389         0.001500   
    710. D(C   2,O  16,C   0,N  15)    -30.5081         0.001500   
    711. D(C   2,O  16,C   0,C   6)   -151.3118         0.001500   
    712. D(C   2,O  16,C   0,C   5)     87.4147         0.001500   
    713. D(C   2,O  16,C   0,C   1)    -29.1751         0.001500   
    714. D(C   1,O  16,C   0,O  17)    -23.8638         0.001500   
    715. D(C   0,O  16,C   4,C   5)    -29.7433         0.001500   
    716. D(C   1,O  16,C   0,N  15)     -1.3330         0.001500   
    717. D(C   1,O  16,C   0,C   6)   -122.1367         0.001500   
    718. D(C   1,O  16,C   0,C   5)    116.5899         0.001500   
    719. D(C   1,O  16,C   4,C   5)    -58.7848         0.001500   
    720. D(N  15,O  16,C   0,O  17)    -22.5308         0.001500   
    721. D(N  15,O  16,C   0,C   6)   -120.8037         0.001500   
    722. D(N  15,O  16,C   0,C   5)    117.9229         0.001500   
    723. D(C   2,O  16,C   4,C   5)    -87.9041         0.001500   
    724. D(N  15,O  16,C   0,C   1)      1.3330         0.001500   
    725. D(C   6,O  16,N  15,C   5)    -19.8233         0.008176   
    726. D(C   6,O  16,N  15,C   4)    -29.3470         0.008176   
    727. D(C   6,O  16,N  15,C   2)    -19.1198         0.008176   
    728. D(C   6,O  16,N  15,C   1)    -10.2167         0.008176   
    729. D(C   6,O  16,N  15,C   0)     -9.9806         0.008176   
    730. D(C   5,O  16,N  15,C   6)     19.8233         0.008176   
    731. D(C   5,O  16,N  15,C   4)     -9.5237         0.008176   
    732. D(C   5,O  16,N  15,C   3)     -8.6523         0.008176   
    733. D(C   5,O  16,N  15,C   2)      0.7035         0.008176   
    734. D(C   5,O  16,N  15,C   1)      9.6066         0.008176   
    735. D(C   5,O  16,N  15,C   0)      9.8427         0.008176   
    736. D(C   5,O  16,N  15,O  17)     94.2952         0.008176   
    737. D(C   4,O  16,N  15,C   5)      9.5237         0.008176   
    738. D(C   4,O  16,N  15,C   3)      0.8714         0.008176   
    739. D(C   4,O  16,N  15,C   2)     10.2272         0.008176   
    740. D(C   4,O  16,N  15,C   0)     19.3664         0.008176   
    741. D(C   4,O  16,N  15,O  17)    103.8189         0.008176   
    742. D(C   3,O  16,N  15,C   6)     28.4756         0.008176   
    743. D(C   3,O  16,N  15,C   4)     -0.8714         0.008176   
    744. D(C   3,O  16,N  15,C   2)      9.3558         0.008176   
    745. D(C   3,O  16,N  15,C   1)     18.2590         0.008176   
    746. D(C   3,O  16,N  15,C   0)     18.4950         0.008176   
    747. D(C   3,O  16,N  15,O  17)    102.9475         0.008176   
    748. D(C   2,O  16,N  15,C   6)     19.1198         0.008176   
    749. D(C   2,O  16,N  15,C   5)     -0.7035         0.008176   
    750. D(C   2,O  16,N  15,C   3)     -9.3558         0.008176   
    751. D(C   2,O  16,N  15,C   1)      8.9031         0.008176   
    752. D(C   2,O  16,N  15,C   0)      9.1392         0.008176   
    753. D(C   1,O  16,N  15,C   6)     10.2167         0.008176   
    754. D(C   1,O  16,N  15,C   5)     -9.6066         0.008176   
    755. D(C   1,O  16,N  15,C   4)    -19.1303         0.008176   
    756. D(C   1,O  16,N  15,C   2)     -8.9031         0.008176   
    757. D(C   1,O  16,N  15,C   0)      0.2361         0.008176   
    758. D(C   1,O  16,N  15,O  17)     84.6886         0.008176   
    759. D(C   0,O  16,N  15,C   6)      9.9806         0.008176   
    760. D(C   0,O  16,N  15,C   5)     -9.8427         0.008176   
    761. D(C   0,O  16,N  15,C   4)    -19.3664         0.008176   
    762. D(C   0,O  16,N  15,C   3)    -18.4950         0.008176   
    763. D(C   0,O  16,N  15,C   1)     -0.2361         0.008176   
    764. D(C   0,O  16,N  15,O  17)     84.4525         0.008176   
    765. D(C   5,O  16,C   6,N  15)    -89.3670         0.001500   
    766. D(C   5,O  16,C   6,H  11)   -144.2560         0.001500   
    767. D(C   5,O  16,C   6,H  10)     87.0926         0.001500   
    768. D(C   5,O  16,C   6,C   0)    -29.1812         0.001500   
    769. D(C   4,O  16,C   6,H  12)   -143.6906         0.001500   
    770. D(C   4,O  16,C   6,H  11)   -133.4437         0.001500   
    771. D(C   4,O  16,C   6,H  10)     97.9049         0.001500   
    772. D(C   4,O  16,C   6,C   0)    -18.3689         0.001500   
    773. D(C   3,O  16,C   6,N  15)    -59.8845         0.001500   
    774. D(C   3,O  16,C   6,H  12)   -125.0204         0.001500   
    775. D(C   3,O  16,C   6,H  11)   -114.7735         0.001500   
    776. D(C   3,O  16,C   6,C   0)      0.3013         0.001500   
    777. D(C   2,O  16,C   6,N  15)    -42.2342         0.001500   
    778. D(C   2,O  16,C   6,H  12)   -107.3701         0.001500   
    779. D(C   2,O  16,C   6,H  11)    -97.1232         0.001500   
    780. D(C   2,O  16,C   6,H  10)    134.2254         0.001500   
    781. D(C   2,O  16,C   6,C   0)     17.9516         0.001500   
    782. D(C   1,O  16,C   6,N  15)    -32.8706         0.001500   
    783. D(C   1,O  16,C   6,H  12)    -98.0065         0.001500   
    784. D(C   1,O  16,C   6,H  11)    -87.7596         0.001500   
    785. D(C   1,O  16,C   6,H  10)    143.5889         0.001500   
    786. D(C   1,O  16,C   6,C   0)     27.3151         0.001500   
    787. D(C   3,O  16,C   6,H  10)    116.5751         0.001500   
    788. D(C   0,O  16,C   6,N  15)    -60.1858         0.001500   
    789. D(C   0,O  16,C   6,H  12)   -125.3217         0.001500   
    790. D(C   0,O  16,C   6,H  11)   -115.0748         0.001500   
    791. D(C   0,O  16,C   6,H  10)    116.2738         0.001500   
    792. D(N  15,O  16,C   6,H  12)    -65.1359         0.001500   
    793. D(N  15,O  16,C   6,H  11)    -54.8890         0.001500   
    794. D(N  15,O  16,C   6,H  10)    176.4596         0.001500   
    795. D(C   4,O  16,C   6,N  15)    -78.5547         0.001500   
    796. D(N  15,O  16,C   6,C   0)     60.1858         0.001500   
    797. D(C   6,O  16,C   5,O  17)     70.6300         0.001500   
    798. D(C   6,O  16,C   5,N  15)     93.4961         0.001500   
    799. D(C   5,O  16,C   6,H  12)   -154.5029         0.001500   
    800. D(C   6,O  16,C   5,H  13)    -89.3719         0.001500   
    801. D(C   6,O  16,C   5,C   4)    151.3224         0.001500   
    802. D(C   6,O  16,C   5,C   0)     30.5048         0.001500   
    803. D(C   0,O  16,N  15,C   2)     -9.1392         0.008176   
    804. D(C   4,O  16,C   5,O  17)    -80.6924         0.001500   
    805. D(C   4,O  16,C   5,N  15)    -57.8263         0.001500   
    806. D(C   4,O  16,C   5,H  13)    119.3057         0.001500   
    807. D(C   4,O  16,C   5,C   0)   -120.8176         0.001500   
    808. D(C   3,O  16,C   5,O  17)    -51.0321         0.001500   
    809. D(C   3,O  16,C   5,N  15)    -28.1659         0.001500   
    810. D(C   3,O  16,C   5,H  13)    148.9660         0.001500   
    811. D(C   1,O  16,N  15,C   3)    -18.2590         0.008176   
    812. D(C   3,O  16,C   5,C   4)     29.6604         0.001500   
    813. D(C   3,O  16,C   5,C   0)    -91.1572         0.001500   
    814. D(C   2,O  16,C   5,O  17)    -20.8968         0.001500   
    815. D(C   2,O  16,N  15,O  17)     93.5917         0.008176   
    816. D(C   2,O  16,C   5,N  15)      1.9693         0.001500   
    817. D(C   2,O  16,C   5,H  13)    179.1013         0.001500   
    818. D(C   2,O  16,C   5,C   4)     59.7956         0.001500   
    819. D(C   2,O  16,N  15,C   4)    -10.2272         0.008176   
    820. D(C   2,O  16,C   5,C   0)    -61.0220         0.001500   
    821. D(C   1,O  16,C   5,O  17)      9.5483         0.001500   
    822. D(C   1,O  16,C   5,N  15)     32.4144         0.001500   
    823. D(C   1,O  16,C   5,H  13)   -150.4536         0.001500   
    824. D(C   1,O  16,C   5,C   4)     90.2407         0.001500   
    825. D(C   1,O  16,C   5,C   0)    -30.5769         0.001500   
    826. D(C   0,O  16,C   5,O  17)     40.1252         0.001500   
    827. D(C   3,O  16,N  15,C   5)      8.6523         0.008176   
    828. D(C   0,O  16,C   5,N  15)     62.9913         0.001500   
    829. D(C   0,O  16,C   5,H  13)   -119.8768         0.001500   
    830. D(C   0,O  16,C   5,C   4)    120.8176         0.001500   
    831. D(C   4,O  16,N  15,C   1)     19.1303         0.008176   
    832. D(N  15,O  16,C   5,O  17)    -22.8661         0.001500   
    833. D(N  15,O  16,C   5,H  13)    177.1319         0.001500   
    834. D(N  15,O  16,C   5,C   4)     57.8263         0.001500   
    835. D(C   4,O  16,N  15,C   6)     29.3470         0.008176   
    836. D(N  15,O  16,C   5,C   0)    -62.9913         0.001500   
    837. D(C   6,O  16,C   4,N  15)    104.1598         0.001500   
    838. D(C   6,O  16,C   4,H  14)   -140.0879         0.001500   
    839. D(C   6,O  16,C   4,C   5)    -18.8180         0.001500   
    840. D(C   6,O  16,C   4,C   3)     99.2803         0.001500   
    841. D(C   5,O  16,C   4,N  15)    122.9778         0.001500   
    842. D(C   5,O  16,C   4,H  14)   -121.2699         0.001500   
    843. D(C   6,O  16,N  15,O  17)     74.4719         0.008176   
    844. D(C   5,O  16,C   4,C   3)    118.0983         0.001500   
    845. D(C   3,O  16,C   4,N  15)      4.8795         0.001500   
    846. D(C   3,O  16,C   4,H  14)    120.6318         0.001500   
    847. D(C   6,O  16,N  15,C   3)    -28.4756         0.008176   
    848. D(C   3,O  16,C   4,C   5)   -118.0983         0.001500   
    849. D(C   2,O  16,C   4,N  15)     35.0736         0.001500   
    850. D(C   2,O  16,C   4,H  14)    150.8260         0.001500   
    851. D(C   5,O  17,N  15,C   4)     10.8021         0.052850   
    852. D(C   5,O  17,N  15,C   3)     18.8292         0.052850   
    853. D(C   5,O  17,N  15,C   2)     16.3080         0.052850   
    854. D(C   5,O  17,N  15,C   0)     -1.7388         0.052850   
    855. D(C   5,O  17,N  15,O  16)    -76.4467         0.052850   
    856. D(C   2,O  17,N  15,C   6)    -28.1155         0.052850   
    857. D(C   2,O  17,N  15,C   4)     -5.5059         0.052850   
    858. D(C   2,O  17,N  15,C   3)      2.5212         0.052850   
    859. D(C   2,O  17,N  15,C   1)     -9.8565         0.052850   
    860. D(C   2,O  17,N  15,C   0)    -18.0468         0.052850   
    861. D(C   2,O  17,N  15,O  16)    -92.7547         0.052850   
    862. D(C   1,O  17,N  15,C   6)    -18.2590         0.052850   
    863. D(C   1,O  17,N  15,C   5)     -6.4515         0.052850   
    864. D(C   1,O  17,N  15,C   3)     12.3778         0.052850   
    865. D(C   1,O  17,N  15,C   2)      9.8565         0.052850   
    866. D(C   1,O  17,N  15,C   0)     -8.1903         0.052850   
    867. D(C   0,O  17,N  15,C   6)    -10.0687         0.052850   
    868. D(C   0,O  17,N  15,C   5)      1.7388         0.052850   
    869. D(C   0,O  17,N  15,C   4)     12.5409         0.052850   
    870. D(C   0,O  17,N  15,C   2)     18.0468         0.052850   
    871. D(C   0,O  17,N  15,C   1)      8.1903         0.052850   
    872. D(C   0,O  17,N  15,O  16)    -74.7078         0.052850   
    873. D(C   2,O  17,C   5,O  16)    159.0982         0.001500   
    874. D(C   2,O  17,C   5,N  15)    128.2356         0.001500   
    875. D(C   2,O  17,C   5,H  13)    179.1032         0.001500   
    876. D(C   2,O  17,C   5,C   4)     59.5652         0.001500   
    877. D(C   1,O  17,C   5,O  16)   -170.4268         0.001500   
    878. D(C   1,O  17,C   5,N  15)    158.7106         0.001500   
    879. D(C   1,O  17,C   5,H  13)   -150.4218         0.001500   
    880. D(C   1,O  17,C   5,C   0)    -30.7128         0.001500   
    881. D(C   0,O  17,C   5,O  16)   -139.7140         0.001500   
    882. D(C   0,O  17,C   5,N  15)   -170.5766         0.001500   
    883. D(C   0,O  17,C   5,C   4)    120.7530         0.001500   
    884. D(N  15,O  17,C   5,O  16)     30.8626         0.001500   
    885. D(N  15,O  17,C   5,H  13)     50.8676         0.001500   
    886. D(N  15,O  17,C   5,C   4)    -68.6704         0.001500   
    887. D(N  15,O  17,C   5,C   0)    170.5766         0.001500   
    888. D(C   5,O  17,C   2,O  16)    -18.4662         0.001500   
    889. D(C   5,O  17,C   2,N  15)    -46.3669         0.001500   
    890. D(C   5,O  17,C   2,C   3)    -59.8442         0.001500   
    891. D(C   5,O  17,C   2,C   1)     61.0342         0.001500   
    892. D(C   1,O  17,C   2,O  16)    -79.5004         0.001500   
    893. D(C   1,O  17,C   2,N  15)   -107.4011         0.001500   
    894. D(C   1,O  17,C   2,H   8)    119.0417         0.001500   
    895. D(C   1,O  17,C   2,C   3)   -120.8784         0.001500   
    896. D(C   0,O  17,C   2,O  16)    -49.1922         0.001500   
    897. D(C   0,O  17,C   2,N  15)    -77.0929         0.001500   
    898. D(C   0,O  17,C   2,H   8)    149.3500         0.001500   
    899. D(C   5,O  17,C   2,H   8)   -179.9241         0.001500   
    900. D(C   0,O  17,C   2,C   3)    -90.5701         0.001500   
    901. D(C   0,O  17,C   2,C   1)     30.3083         0.001500   
    902. D(N  15,O  17,C   2,O  16)     27.9007         0.001500   
    903. D(N  15,O  17,C   2,H   8)   -133.5572         0.001500   
    904. D(N  15,O  17,C   2,C   3)    -13.4772         0.001500   
    905. D(N  15,O  17,C   2,C   1)    107.4011         0.001500   
    906. D(C   5,O  17,C   1,O  16)      8.5380         0.001500   
    907. D(C   0,O  17,C   5,H  13)   -119.7089         0.001500   
    908. D(C   5,O  17,C   1,N  15)    -19.3310         0.001500   
    909. D(C   5,O  17,C   1,H   9)    150.3773         0.001500   
    910. D(C   5,O  17,C   1,C   2)    -90.0919         0.001500   
    911. D(C   1,O  17,C   5,C   4)     90.0402         0.001500   
    912. D(C   5,O  17,C   1,C   0)     30.5232         0.001500   
    913. D(C   2,O  17,C   1,O  16)     98.6300         0.001500   
    914. D(C   2,O  17,C   1,N  15)     70.7610         0.001500   
    915. D(C   2,O  17,C   5,C   0)    -61.1878         0.001500   
    916. D(C   2,O  17,C   1,H   9)   -119.5308         0.001500   
    917. D(C   2,O  17,C   1,C   0)    120.6151         0.001500   
    918. D(C   0,O  17,C   1,O  16)    -21.9851         0.001500   
    919. D(C   0,O  17,C   1,N  15)    -49.8541         0.001500   
    920. D(C   0,O  17,C   1,H   9)    119.8541         0.001500   
    921. D(C   0,O  17,C   1,C   2)   -120.6151         0.001500   
    922. D(N  15,O  17,C   1,O  16)     27.8690         0.001500   
    923. D(C   0,O  17,N  15,C   3)     20.5681         0.052850   
    924. D(N  15,O  17,C   1,H   9)    169.7082         0.001500   
    925. D(N  15,O  17,C   1,C   2)    -70.7610         0.001500   
    926. D(N  15,O  17,C   1,C   0)     49.8541         0.001500   
    927. D(C   1,O  17,N  15,O  16)    -82.8981         0.052850   
    928. D(C   5,O  17,C   0,O  16)     37.2870         0.001500   
    929. D(C   5,O  17,C   0,N  15)      8.8053         0.001500   
    930. D(C   5,O  17,C   0,C   6)    120.7577         0.001500   
    931. D(C   1,O  17,N  15,C   4)      4.3506         0.052850   
    932. D(C   5,O  17,C   0,C   1)   -119.5781         0.001500   
    933. D(C   2,O  17,C   0,O  16)    126.9888         0.001500   
    934. D(C   2,O  17,C   0,N  15)     98.5071         0.001500   
    935. D(C   2,O  17,C   0,C   6)   -149.5404         0.001500   
    936. D(C   2,O  17,C   0,C   5)     89.7019         0.001500   
    937. D(C   2,O  17,C   0,C   1)    -29.8763         0.001500   
    938. D(C   1,O  17,C   0,O  16)    156.8651         0.001500   
    939. D(C   2,O  17,N  15,C   5)    -16.3080         0.052850   
    940. D(C   1,O  17,C   0,N  15)    128.3834         0.001500   
    941. D(C   1,O  17,C   0,C   6)   -119.6642         0.001500   
    942. D(C   1,O  17,C   0,C   5)    119.5781         0.001500   
    943. D(C   5,O  17,N  15,C   1)      6.4515         0.052850   
    944. D(N  15,O  17,C   0,O  16)     28.4817         0.001500   
    945. D(N  15,O  17,C   0,C   6)    111.9525         0.001500   
    946. D(N  15,O  17,C   0,C   5)     -8.8053         0.001500   
    947. D(C   5,O  17,N  15,C   6)    -11.8075         0.052850   
    948. D(N  15,O  17,C   0,C   1)   -128.3834         0.001500   
    -----------------------------------------------------------------

Number of atoms                         .... 18
Number of degrees of freedom            .... 948

         *************************************************************
         *                GEOMETRY OPTIMIZATION CYCLE   1            *
         *************************************************************
---------------------------------
CARTESIAN COORDINATES (ANGSTROEM)
---------------------------------
  C     -4.235280    2.345260    0.032440
  C     -5.436140    1.628860    0.152090
  C     -5.423440    0.230050    0.186460
  C     -4.213650   -0.461140    0.102140
  C     -3.014600    0.245350   -0.016870
  C     -3.022940    1.644120   -0.051660
  C     -4.259020    3.845840   -0.004410
  H     -4.205140   -1.543540    0.128970
  H     -6.351440   -0.318220    0.278320
  H     -6.379750    2.153460    0.217590
  H     -3.253010    4.265530   -0.092790
  H     -4.711160    4.232010    0.911380
  H     -4.844170    4.196460   -0.860550
  H     -2.085390    2.176950   -0.144060
  H     -2.078330   -0.290890   -0.081860
  N     -3.805500    0.883460   -7.337130
  O     -2.462720    1.754600   -6.989960
  O     -5.070280    1.305260   -7.630670

----------------------------
CARTESIAN COORDINATES (A.U.)
----------------------------
  NO LB      ZA    FRAG     MASS         X           Y           Z
   0 C     6.0000    0    12.011   -8.003519    4.431899    0.061303
   1 C     6.0000    0    12.011  -10.272816    3.078099    0.287408
   2 C     6.0000    0    12.011  -10.248816    0.434731    0.352358
   3 C     6.0000    0    12.011   -7.962645   -0.871428    0.193017
   4 C     6.0000    0    12.011   -5.696768    0.463644   -0.031880
   5 C     6.0000    0    12.011   -5.712529    3.106937   -0.097623
   6 C     6.0000    0    12.011   -8.048381    7.267584   -0.008334
   7 H     1.0000    0     1.008   -7.946563   -2.916868    0.243718
   8 H     1.0000    0     1.008  -12.002482   -0.601349    0.525949
   9 H     1.0000    0     1.008  -12.055980    4.069450    0.411186
  10 H     1.0000    0     1.008   -6.147298    8.060684   -0.175348
  11 H     1.0000    0     1.008   -8.902802    7.997340    1.722259
  12 H     1.0000    0     1.008   -9.154155    7.930160   -1.626204
  13 H     1.0000    0     1.008   -3.940816    4.113839   -0.272234
  14 H     1.0000    0     1.008   -3.927475   -0.549702   -0.154693
  15 N     7.0000    0    14.007   -7.191353    1.669497  -13.865166
  16 O     8.0000    0    15.999   -4.653866    3.315713  -13.209110
  17 O     8.0000    0    15.999   -9.581441    2.466584  -14.419877

--------------------------------
INTERNAL COORDINATES (ANGSTROEM)
--------------------------------
 C      0   0   0     0.000000000000     0.00000000     0.00000000
 C      1   0   0     1.403427882757     0.00000000     0.00000000
 C      2   1   0     1.399289820945   120.30596107     0.00000000
 C      3   2   1     1.395867229575   120.09144006     0.00000000
 C      4   3   2     1.396786455655   119.91352903     0.00000000
 C      5   4   3     1.399227434194   120.17436287     0.00000000
 C      1   2   3     1.501220119270   119.92118431   179.96339743
 H      4   3   2     1.082765916069   120.02094064   179.99247544
 H      3   2   1     1.081768114015   120.06311677   180.02850084
 H      2   1   3     1.081616957199   120.26934343   180.05878972
 H      7   1   2     1.093620976664   111.77946135   179.59627558
 H      7   1   2     1.091892473003   109.84520224    59.42996740
 H      7   1   2     1.094673744318   110.35347242   299.54522509
 H      6   5   4     1.082333391982   119.28118642   179.99042921
 H      5   4   3     1.080915607529   119.85185344   179.98584132
 N     13   7   1     7.348529979887   117.99140223   315.89616300
 O     16  13   7     1.637824788218    71.89660859   290.05583623
 O     16  13   7     1.365192081723    85.36900689   155.39913899

---------------------------
INTERNAL COORDINATES (A.U.)
---------------------------
 C      0   0   0     0.000000000000     0.00000000     0.00000000
 C      1   0   0     2.652094347120     0.00000000     0.00000000
 C      2   1   0     2.644274543570   120.30596107     0.00000000
 C      3   2   1     2.637806783211   120.09144006     0.00000000
 C      4   3   2     2.639543868758   119.91352903     0.00000000
 C      5   4   3     2.644156649695   120.17436287     0.00000000
[...]
 Basis Dimension        Dim             ....  180
 Nuclear Repulsion      ENuc            ....    400.3323637113 Eh

Convergence Acceleration:
 DIIS                   CNVDIIS         .... on
   Start iteration      DIISMaxIt       ....    12
   Startup error        DIISStart       ....  0.200000
   # of expansion vecs  DIISMaxEq       ....     5
   Bias factor          DIISBfac        ....   1.050
   Max. coefficient     DIISMaxC        ....  10.000
 Newton-Raphson         CNVNR           .... off
 SOSCF                  CNVSOSCF        .... on
   Start iteration      SOSCFMaxIt      ....   150
   Startup grad/error   SOSCFStart      ....  0.003300
 Level Shifting         CNVShift        .... on
   Level shift para.    LevelShift      ....    0.2500
   Turn off err/grad.   ShiftErr        ....    0.0010
 Zerner damping         CNVZerner       .... off
 Static damping         CNVDamp         .... on
   Fraction old density DampFac         ....    0.7000
   Max. Damping (<1)    DampMax         ....    0.9800
   Min. Damping (>=0)   DampMin         ....    0.0000
   Turn off err/grad.   DampErr         ....    0.1000
 Fernandez-Rico         CNVRico         .... off

SCF Procedure:
 Maximum # iterations   MaxIter         ....  2000
 SCF integral mode      SCFMode         .... Direct
   Integral package                     .... LIBINT
 Reset frequency        DirectResetFreq ....    20
 Integral Threshold     Thresh          ....  1.000e-09 Eh
 Primitive CutOff       TCut            ....  1.000e-10 Eh

Convergence Tolerance:
 Convergence Check Mode ConvCheckMode   .... Only-One-Criterion
 Convergence forced     ConvForced      .... 0
 Energy Change          TolE            ....  3.000e-05 Eh
 Max Density Change     TolMaxP         ....  1.000e-04
 RMS Density Change     TolRMSP         ....  1.000e-05
 Orbital Gradient       TolG            ....  3.000e-04
 Orbital Rotation angle TolX            ....  3.000e-04
 DIIS Error             TolErr          ....  1.000e-04


Diagonalization of the overlap matrix:
Smallest eigenvalue                        ... 3.038e-04
Time for diagonalization                   ...    0.013 sec
Threshold for overlap eigenvalues          ... 1.000e-08
Number of eigenvalues below threshold      ... 0
Time for construction of square roots      ...    0.008 sec
Total time needed                          ...    0.022 sec

-------------------
DFT GRID GENERATION
-------------------

General Integration Accuracy     IntAcc      ...  4.340
Radial Grid Type                 RadialGrid  ... Gauss-Chebyshev
Angular Grid (max. acc.)         AngularGrid ... Lebedev-110
Angular grid pruning method      GridPruning ... 3 (G Style)
Weight generation scheme         WeightScheme... Becke
Basis function cutoff            BFCut       ...    1.0000e-10
Integration weight cutoff        WCut        ...    1.0000e-14
Grids for H and He will be reduced by one unit

# of grid points (after initial pruning)     ...  23078 (   0.0 sec)
# of grid points (after weights+screening)   ...  21615 (   0.2 sec)
nearest neighbour list constructed           ...    0.0 sec
Grid point re-assignment to atoms done       ...    0.0 sec
Grid point division into batches done        ...    0.0 sec
Reduced shell lists constructed in    0.7 sec

Total number of grid points                  ...    21615
Total number of batches                      ...      346
Average number of points per batch           ...       62
Average number of grid points per atom       ...     1201
Average number of shells per batch           ...    43.27 (51.52%)
Average number of basis functions per batch  ...    89.61 (49.78%)
Average number of large shells per batch     ...    33.50 (77.40%)
Average number of large basis fcns per batch ...    69.26 (77.29%)
Maximum spatial batch extension              ...  20.36, 21.69, 21.39 au
Average spatial batch extension              ...   3.90,  3.92,  4.06 au

Time for grid setup =    0.896 sec

------------------------------
INITIAL GUESS: MODEL POTENTIAL
------------------------------
Loading Hartree-Fock densities                     ... done
Calculating cut-offs                               ... done
Setting up the integral package                    ... done
Initializing the effective Hamiltonian             ... done
Starting the Coulomb interaction                   ... done (   0.4 sec)
Reading the grid                                   ... done
Mapping shells                                     ... done
Starting the XC term evaluation                    ... done (   0.5 sec)
  promolecular density results
     # of electrons  =     72.997890732
     EX              =    -61.049677813
     EC              =     -2.449372269
     EX+EC           =    -63.499050082
Transforming the Hamiltonian                       ... done (   0.0 sec)
Diagonalizing the Hamiltonian                      ... done (   0.0 sec)
Back transforming the eigenvectors                 ... done (   0.0 sec)
Now organizing SCF variables                       ... done
                      ------------------
                      INITIAL GUESS DONE (   2.2 sec)
                      ------------------
--------------
SCF ITERATIONS
--------------
ITER       Energy         Delta-E        Max-DP      RMS-DP      [F,P]     Damp
               ***  Starting incremental Fock matrix formation  ***
  0   -475.0033102896   0.000000000000 0.33761844  0.00485672  0.2277126 0.7000
  1   -475.2308367153  -0.227526425692 0.06677791  0.00170935  0.0882874 0.7000
                               ***Turning on DIIS***
  2   -475.3478141868  -0.116977471481 0.17762867  0.00370656  0.0389289 0.0000
  3   -475.3404050703   0.007409116475 0.03153926  0.00079196  0.0879170 0.0000
  4   -475.3648090723  -0.024404002030 0.03415417  0.00063356  0.0747105 0.0000
  5   -475.3781815321  -0.013372459750 0.04329390  0.00093260  0.0597618 0.0000
  6   -475.3890574702  -0.010875938124 0.47202722  0.00847302  0.0330593 0.0000
  7   -474.9563811982   0.432676272007 0.00320582  0.00007085  0.2926738 0.7000
  8   -474.9536878750   0.002693323160 0.00307968  0.00007055  0.2935310 0.7000
  9   -474.9522545736   0.001433301432 0.00834258  0.00015187  0.2930544 0.7000
 10   -474.9605475205  -0.008292946875 0.00974830  0.00014940  0.2801938 0.7000
 11   -474.9640559932  -0.003508472756 0.25351279  0.00582472  0.2740912 0.7000
 12   -474.9333501756   0.030705817619 0.10570489  0.00243995  0.1182942 0.7000
 13   -475.0744984497  -0.141148274089 0.24630055  0.00534247  0.0709312 0.0000
 14   -475.1783314559  -0.103833006250 0.00928791  0.00024421  0.2265458 0.7000
 15   -475.2001326725  -0.021801216525 0.01194889  0.00029661  0.2204515 0.7000
 16   -475.2257504901  -0.025617817628 0.12652101  0.00268704  0.2116353 0.7000
 17   -475.3647251984  -0.138974708330 0.08892905  0.00182922  0.1803219 0.7000
 18   -475.3759057096  -0.011180511118 0.12104225  0.00213277  0.1957043 0.7000
 19   -475.3754444734   0.000461236132 0.18084133  0.00407836  0.0811021 0.0000
               *** Restarting incremental Fock matrix formation ***
                                   *** Resetting DIIS ***
 20   -475.0117241412   0.363720332227 0.26827601  0.00571987  0.2575090 0.7000
 21   -474.7405209985   0.271203142650 0.09766864  0.00231418  0.1527141 0.7000
 22   -474.8502795492  -0.109758550623 0.06969979  0.00165652  0.1917089 0.7000
 23   -474.9742052432  -0.123925694036 0.04680289  0.00121833  0.1745222 0.7000
 24   -475.0803148003  -0.106109557089 0.03915812  0.00092234  0.1457668 0.7000
 25   -475.1628276472  -0.082512846873 0.21780204  0.00361839  0.1191584 0.7000
 26   -475.2429716511  -0.080144003981 0.41662986  0.00816801  0.0931232 0.0000
 27   -472.3539069542   2.889064696905 0.00551371  0.00021035  0.4393986 0.7000
 28   -472.3763232079  -0.022416253655 0.00601950  0.00022929  0.4337303 0.7000
 29   -472.3985823265  -0.022259118610 0.00569176  0.00020661  0.4303180 0.7000
 30   -472.4176981317  -0.019115805174 0.00973516  0.00024181  0.4278797 0.7000
 31   -472.4330888563  -0.015390724659 3.71274017  0.07218400  0.4276257 0.7000
 32   -469.2088503826   3.224238473777 1.09264131  0.02194697  0.3596217 0.7000
 33   -468.7213432595   0.487507123080 0.76842786  0.01531862  0.2667446 0.7000
 34   -471.0346390943  -2.313295834850 0.54112160  0.01075120  0.2166558 0.7000
 35   -472.4875255609  -1.452886466599 0.38106485  0.00756400  0.2051085 0.7000
 36   -473.4486795500  -0.961153989114 0.30079755  0.00732187  0.1732054 0.7000
 37   -474.2943374557  -0.845657905679 0.19150861  0.00453387  0.2183347 0.7000
 38   -474.1597680121   0.134569443659 0.13147062  0.00309890  0.1785517 0.7000
 39   -473.8227499614   0.337018050687 0.09177984  0.00215905  0.2560144 0.7000
               *** Restarting incremental Fock matrix formation ***
                                   *** Resetting DIIS ***
 40   -473.4911768241   0.331573137254 4.13468798  0.06437383  0.3139308 0.7000
 41   -471.5545791864   1.936597637694 1.29978917  0.02046237  0.2269911 0.7000
 42   -472.7274281808  -1.172848994384 0.91126437  0.01431525  0.1368618 0.7000
 43   -473.5052291703  -0.777800989536 0.63916372  0.01003935  0.1473123 0.7000
 44   -474.0661257217  -0.560896551388 0.44853295  0.00704646  0.1391545 0.7000
 45   -474.4634004757  -0.397274753950 0.32295273  0.00608665  0.1268572 0.7000
 46   -474.9745393223  -0.511138846569 0.73597965  0.01380358  0.0734348 0.0000
 47   -472.3201325271   2.654406795146 0.00865245  0.00021805  0.4763081 0.7000
 48   -472.3401156345  -0.019983107386 0.00808683  0.00021608  0.4776418 0.7000
 49   -472.3577845473  -0.017668912840 0.00669312  0.00017976  0.4794822 0.7000
 50   -472.3712553153  -0.013470767973 0.00521664  0.00015188  0.4810194 0.7000
 51   -472.3834443241  -0.012189008746 3.57158359  0.06687527  0.4817376 0.7000
 52   -469.1307131580   3.252731166009 1.05869936  0.02011331  0.3362338 0.7000
 53   -471.1675535543  -2.036840396281 0.74454586  0.01406887  0.1771440 0.7000
 54   -472.4285062139  -1.260952659549 0.52380362  0.00988729  0.1792503 0.7000
 55   -473.3235921321  -0.895085918245 0.36864139  0.00695845  0.1708108 0.7000
 56   -473.9568003554  -0.633208223233 0.27222394  0.00602629  0.1584430 0.7000
 57   -474.7146685922  -0.757868236897 0.60680681  0.01345923  0.0662736 0.0000
 58   -472.2888094247   2.425859167526 0.01120976  0.00025024  0.4837804 0.7000
 59   -472.3174479061  -0.028638481418 0.01032345  0.00024407  0.4835735 0.7000
               *** Restarting incremental Fock matrix formation ***
                                   *** Resetting DIIS ***
 60   -472.3435654239  -0.026117517782 3.14311337  0.06206690  0.4840913 0.7000
 61   -469.0839484365   3.259616987471 0.92754032  0.01866279  0.3129817 0.7000
 62   -471.1296040650  -2.045655628560 0.65524970  0.01306568  0.1811200 0.7000
 63   -472.4023853353  -1.272781270255 0.46229349  0.00919456  0.1785813 0.7000
 64   -473.3111498216  -0.908764486373 0.32567650  0.00647406  0.1738382 0.7000
 65   -473.9514624688  -0.640312647182 0.24169400  0.00572515  0.1645042 0.7000
 66   -474.7076107962  -0.756148327404 0.53646814  0.01278871  0.0722020 0.0000
 67   -472.2912270748   2.416383721396 0.01134260  0.00026599  0.4841111 0.7000
 68   -472.3175697960  -0.026342721133 0.01015208  0.00025875  0.4861867 0.7000
 69   -472.3409350766  -0.023365280683 0.00762558  0.00020973  0.4891951 0.7000
 70   -472.3593394021  -0.018404325475 0.00510445  0.00015486  0.4913067 0.7000
 71   -472.3741479404  -0.014808538289 3.44583839  0.06712652  0.4919832 0.7000
 72   -469.1415190521   3.232628888278 1.01960697  0.02019481  0.3243315 0.7000
 73   -471.1809463720  -2.039427319892 0.71893444  0.01412842  0.1731596 0.7000
 74   -472.4380716491  -1.257125277116 0.50648621  0.00993209  0.1751097 0.7000
 75   -473.3344895336  -0.896417884477 0.35660415  0.00699091  0.1736648 0.7000
 76   -473.9684447001  -0.633955166444 0.26294275  0.00601269  0.1648820 0.7000
 77   -474.7166960309  -0.748251330837 0.58555386  0.01348639  0.0707066 0.0000
 78   -472.3022542114   2.414441819472 0.01080112  0.00027027  0.4806835 0.7000
 79   -472.3270415119  -0.024787300491 0.00962625  0.00026273  0.4839145 0.7000
               *** Restarting incremental Fock matrix formation ***
                                   *** Resetting DIIS ***
 80   -472.3488724948  -0.021830982901 3.16023814  0.06214423  0.4879754 0.7000
 81   -469.0807911780   3.268081316777 0.93301974  0.01868876  0.3100934 0.7000
 82   -471.1278188977  -2.047027719704 0.65906832  0.01308372  0.1812912 0.7000
 83   -472.4018516373  -1.274032739600 0.46498148  0.00920785  0.1766646 0.7000
 84   -473.3133861503  -0.911534512968 0.32758476  0.00648375  0.1757529 0.7000
 85   -473.9551088694  -0.641722719087 0.24309909  0.00571633  0.1668362 0.7000
 86   -474.7100245868  -0.754915717420 0.53928653  0.01279340  0.0712085 0.0000
 87   -472.3079349554   2.402089631444 0.01068593  0.00026700  0.4794139 0.7000
 88   -472.3322739219  -0.024338966565 0.00945652  0.00025885  0.4825517 0.7000
 89   -472.3535464912  -0.021272569214 0.00703000  0.00020976  0.4865505 0.7000
 90   -472.3701979849  -0.016651493751 0.00468854  0.00015320  0.4894300 0.7000
 91   -472.3837985394  -0.013600554476 3.43099318  0.06690646  0.4905547 0.7000
 92   -469.1328139097   3.250984629668 1.01512506  0.02012713  0.3229628 0.7000
 93   -471.1771702713  -2.044356361547 0.71587146  0.01408283  0.1742196 0.7000
 94   -472.4375097289  -1.260339457630 0.50439117  0.00990031  0.1748010 0.7000
 95   -473.3352509141  -0.897741185168 0.35516693  0.00696861  0.1741622 0.7000
 96   -473.9693280672  -0.634077153161 0.26272382  0.00599717  0.1655010 0.7000
 97   -474.7186939636  -0.749365896375 0.58330605  0.01345480  0.0690207 0.0000
 98   -472.3125357631   2.406158200540 0.01042950  0.00026441  0.4774429 0.7000
 99   -472.3367136842  -0.024177921105 0.00929787  0.00025629  0.4806011 0.7000
               *** Restarting incremental Fock matrix formation ***
                                   *** Resetting DIIS ***
100   -472.3579306697  -0.021216985531 3.17109550  0.06225286  0.4845728 0.7000
101   -469.0823678229   3.275562846765 0.93615070  0.01871832  0.3080625 0.7000
102   -471.1286326605  -2.046264837566 0.66121731  0.01310538  0.1815559 0.7000
103   -472.4033622059  -1.274729545423 0.46649358  0.00922270  0.1771346 0.7000
104   -473.3147037671  -0.911341561140 0.32864776  0.00649378  0.1764175 0.7000
105   -473.9558664103  -0.641162643286 0.24396711  0.00572295  0.1678301 0.7000
106   -474.7114058875  -0.755539477128 0.54114530  0.01280944  0.0704492 0.0000
107   -472.3121273322   2.399278555262 0.01050770  0.00026663  0.4782533 0.7000
108   -472.3363108959  -0.024183563697 0.00929037  0.00025857  0.4814096 0.7000
109   -472.3574183210  -0.021107425130 0.00688964  0.00020939  0.4854448 0.7000
110   -472.3739240604  -0.016505739391 0.00459505  0.00015247  0.4883531 0.7000
111   -472.3873703492  -0.013446288793 3.43482216  0.06694613  0.4895002 0.7000
112   -469.1326914887   3.254678860563 1.01626241  0.02013838  0.3224662 0.7000
113   -471.1771474471  -2.044455958419 0.71666588  0.01409107  0.1743505 0.7000
114   -472.4378444264  -1.260696979374 0.50495400  0.00990600  0.1749095 0.7000
115   -473.3355994899  -0.897755063482 0.35556385  0.00697248  0.1744070 0.7000
116   -473.9695116512  -0.633912161274 0.26310810  0.00599975  0.1658410 0.7000
117   -474.7192139361  -0.749702284939 0.58412691  0.01346087  0.0687431 0.0000
118   -472.3144651297   2.404748806441 0.01037382  0.00026398  0.4768850 0.7000
119   -472.3385891431  -0.024124013370 0.00924844  0.00025583  0.4800310 0.7000
               *** Restarting incremental Fock matrix formation ***
                                   *** Resetting DIIS ***
120   -472.3597537851  -0.021164642041 3.17415134  0.06228070  0.4839910 0.7000
121   -469.0825487976   3.277204987541 0.93706041  0.01872626  0.3077034 0.7000
122   -471.1287180086  -2.046169211024 0.66184275  0.01311108  0.1816219 0.7000
123   -472.4035826109  -1.274864602288 0.46693242  0.00922664  0.1772052 0.7000
124   -473.3149172456  -0.911334634684 0.32895601  0.00649648  0.1765582 0.7000
125   -473.9559941811  -0.641076935578 0.24420935  0.00572460  0.1680366 0.7000
126   -474.7116782593  -0.755684078154 0.54166912  0.01281349  0.0702750 0.0000
127   -472.3131195489   2.398558710425 0.01046339  0.00026661  0.4779733 0.7000
128   -472.3372581505  -0.024138601615 0.00924762  0.00025856  0.4811423 0.7000
129   -472.3583177985  -0.021059648051 0.00685380  0.00020936  0.4851921 0.7000
130   -472.3747805220  -0.016462723450 0.00458654  0.00015232  0.4881122 0.7000
131   -472.3881845170  -0.013403995025 3.43578113  0.06695489  0.4892670 0.7000
132   -469.1326175904   3.255566926608 1.01654768  0.02014086  0.3223827 0.7000
133   -471.1771289089  -2.044511318545 0.71686518  0.01409289  0.1743821 0.7000
134   -472.4379162831  -1.260787374178 0.50509528  0.00990725  0.1749322 0.7000
135   -473.3356765387  -0.897760255593 0.35566362  0.00697333  0.1744565 0.7000
136   -473.9695511427  -0.633874603991 0.26320608  0.00600032  0.1659088 0.7000
137   -474.7193346738  -0.749783531055 0.58433835  0.01346221  0.0686756 0.0000
138   -472.3149166612   2.404418012547 0.01036154  0.00026383  0.4767516 0.7000
139   -472.3390293024  -0.024112641188 0.00923792  0.00025567  0.4798915 0.7000
               *** Restarting incremental Fock matrix formation ***
                                   *** Resetting DIIS ***
140   -472.3601829113  -0.021153608895 3.17495729  0.06228723  0.4838452 0.7000
141   -469.0826006381   3.277582273180 0.93730042  0.01872811  0.3076129 0.7000
142   -471.1287436163  -2.046142978216 0.66200747  0.01311241  0.1816378 0.7000
143   -472.4036396458  -1.274896029439 0.46704787  0.00922756  0.1772244 0.7000
144   -473.3149690708  -0.911329425068 0.32903706  0.00649710  0.1765906 0.7000
145   -473.9560230803  -0.641054009434 0.24427262  0.00572500  0.1680850 0.7000
146   -474.7117419475  -0.755718867264 0.54180724  0.01281444  0.0702349 0.0000
147   -472.3133407062   2.398401241353 0.01045348  0.00026660  0.4779110 0.7000
148   -472.3374703111  -0.024129604894 0.00923813  0.00025856  0.4810821 0.7000
149   -472.3585201890  -0.021049877880 0.00684583  0.00020935  0.4851346 0.7000
                      *** Initiating the SOSCF procedure ***
                           *** Shutting down DIIS ***
                      *** Re-Reading the Fockian *** 
                      *** Removing any level shift *** 
ITER      Energy       Delta-E        Grad      Rot      Max-DP    RMS-DP
150   -472.37497365  -0.0164534593  0.001710  0.001710  0.015281  0.000508
               *** Restarting incremental Fock matrix formation ***
151   -472.41855647  -0.0435828171  0.236280  0.388922  0.336288  0.005922
152   -472.69876762  -0.2802111556  0.116912  0.443533  0.191567  0.002910

                    ****Warning: large step in SOSCF, scaling down***
153   -472.97045099  -0.2716833676  0.498989  3.613058  4.084181  0.049429

          ************************************************************
          *                     SERIOUS PROBLEM IN SOSCF             *
          *                     ------------------------             *
          *            HUGE, UNRELIABLE STEP WAS ABOUT TO BE TAKEN   *
          *                         ABORTING THE RUN                 *
          ************************************************************
[file orca_scf/scf2.cpp, line 1476]: 


ORCA finished by error termination in SCF
Calling Command: orca_scf neb_educts_optfreq2.gbw b 
[file orca_tools/qcmsg.cpp, line 458]: 
  .... aborting the run

