
                                 *****************
                                 * O   R   C   A *
                                 *****************

                                            #,                                       
                                            ###                                      
                                            ####                                     
                                            #####                                    
                                            ######                                   
                                           ########,                                 
                                     ,,################,,,,,                         
                               ,,#################################,,                 
                          ,,##########################################,,             
                       ,#########################################, ''#####,          
                    ,#############################################,,   '####,        
                  ,##################################################,,,,####,       
                ,###########''''           ''''###############################       
              ,#####''   ,,,,##########,,,,          '''####'''          '####       
            ,##' ,,,,###########################,,,                        '##       
           ' ,,###''''                  '''############,,,                           
         ,,##''                                '''############,,,,        ,,,,,,###''
      ,#''                                            '''#######################'''  
     '                                                          ''''####''''         
             ,#######,   #######,   ,#######,      ##                                
            ,#'     '#,  ##    ##  ,#'     '#,    #''#        ######   ,####,        
            ##       ##  ##   ,#'  ##            #'  '#       #        #'  '#        
            ##       ##  #######   ##           ,######,      #####,   #    #        
            '#,     ,#'  ##    ##  '#,     ,#' ,#      #,         ##   #,  ,#        
             '#######'   ##     ##  '#######'  #'      '#     #####' # '####'        



                  #######################################################
                  #                        -***-                        #
                  #          Department of theory and spectroscopy      #
                  #    Directorship and core code : Frank Neese         #
                  #        Max Planck Institute fuer Kohlenforschung    #
                  #                Kaiser Wilhelm Platz 1               #
                  #                 D-45470 Muelheim/Ruhr               #
                  #                      Germany                        #
                  #                                                     #
                  #                  All rights reserved                #
                  #                        -***-                        #
                  #######################################################



                         Program Version 5.0.4 -  RELEASE  -

 With contributions from (in alphabetic order):
   Daniel Aravena         : Magnetic Suceptibility
   Michael Atanasov       : Ab Initio Ligand Field Theory (pilot matlab implementation)
   Alexander A. Auer      : GIAO ZORA, VPT2 properties, NMR spectrum
   Ute Becker             : Parallelization
   Giovanni Bistoni       : ED, misc. LED, open-shell LED, HFLD
   Martin Brehm           : Molecular dynamics
   Dmytro Bykov           : SCF Hessian
   Vijay G. Chilkuri      : MRCI spin determinant printing, contributions to CSF-ICE
   Dipayan Datta          : RHF DLPNO-CCSD density
   Achintya Kumar Dutta   : EOM-CC, STEOM-CC
   Dmitry Ganyushin       : Spin-Orbit,Spin-Spin,Magnetic field MRCI
   Miquel Garcia          : C-PCM and meta-GGA Hessian, CC/C-PCM, Gaussian charge scheme
   Yang Guo               : DLPNO-NEVPT2, F12-NEVPT2, CIM, IAO-localization
   Andreas Hansen         : Spin unrestricted coupled pair/coupled cluster methods
   Benjamin Helmich-Paris : MC-RPA, TRAH-SCF, COSX integrals
   Lee Huntington         : MR-EOM, pCC
   Robert Izsak           : Overlap fitted RIJCOSX, COSX-SCS-MP3, EOM
   Marcus Kettner         : VPT2
   Christian Kollmar      : KDIIS, OOCD, Brueckner-CCSD(T), CCSD density, CASPT2, CASPT2-K
   Simone Kossmann        : Meta GGA functionals, TD-DFT gradient, OOMP2, MP2 Hessian
   Martin Krupicka        : Initial AUTO-CI
   Lucas Lang             : DCDCAS
   Marvin Lechner         : AUTO-CI (C++ implementation), FIC-MRCC
   Dagmar Lenk            : GEPOL surface, SMD
   Dimitrios Liakos       : Extrapolation schemes; Compound Job, initial MDCI parallelization
   Dimitrios Manganas     : Further ROCIS development; embedding schemes
   Dimitrios Pantazis     : SARC Basis sets
   Anastasios Papadopoulos: AUTO-CI, single reference methods and gradients
   Taras Petrenko         : DFT Hessian,TD-DFT gradient, ASA, ECA, R-Raman, ABS, FL, XAS/XES, NRVS
   Peter Pinski           : DLPNO-MP2, DLPNO-MP2 Gradient
   Christoph Reimann      : Effective Core Potentials
   Marius Retegan         : Local ZFS, SOC
   Christoph Riplinger    : Optimizer, TS searches, QM/MM, DLPNO-CCSD(T), (RO)-DLPNO pert. Triples
   Tobias Risthaus        : Range-separated hybrids, TD-DFT gradient, RPA, STAB
   Michael Roemelt        : Original ROCIS implementation
   Masaaki Saitow         : Open-shell DLPNO-CCSD energy and density
   Barbara Sandhoefer     : DKH picture change effects
   Avijit Sen             : IP-ROCIS
   Kantharuban Sivalingam : CASSCF convergence, NEVPT2, FIC-MRCI
   Bernardo de Souza      : ESD, SOC TD-DFT
   Georgi Stoychev        : AutoAux, RI-MP2 NMR, DLPNO-MP2 response
   Willem Van den Heuvel  : Paramagnetic NMR
   Boris Wezisla          : Elementary symmetry handling
   Frank Wennmohs         : Technical directorship


 We gratefully acknowledge several colleagues who have allowed us to
 interface, adapt or use parts of their codes:
   Stefan Grimme, W. Hujo, H. Kruse, P. Pracht,  : VdW corrections, initial TS optimization,
                  C. Bannwarth, S. Ehlert          DFT functionals, gCP, sTDA/sTD-DF
   Ed Valeev, F. Pavosevic, A. Kumar             : LibInt (2-el integral package), F12 methods
   Garnet Chan, S. Sharma, J. Yang, R. Olivares  : DMRG
   Ulf Ekstrom                                   : XCFun DFT Library
   Mihaly Kallay                                 : mrcc  (arbitrary order and MRCC methods)
   Jiri Pittner, Ondrej Demel                    : Mk-CCSD
   Frank Weinhold                                : gennbo (NPA and NBO analysis)
   Christopher J. Cramer and Donald G. Truhlar   : smd solvation model
   Lars Goerigk                                  : TD-DFT with DH, B97 family of functionals
   V. Asgeirsson, H. Jonsson                     : NEB implementation
   FAccTs GmbH                                   : IRC, NEB, NEB-TS, DLPNO-Multilevel, CI-OPT
                                                   MM, QMMM, 2- and 3-layer-ONIOM, Crystal-QMMM,
                                                   LR-CPCM, SF, NACMEs, symmetry and pop. for TD-DFT,
                                                   nearIR, NL-DFT gradient (VV10), updates on ESD,
                                                   ML-optimized integration grids
   S Lehtola, MJT Oliveira, MAL Marques          : LibXC Library
   Liviu Ungur et al                             : ANISO software


 Your calculation uses the libint2 library for the computation of 2-el integrals
 For citations please refer to: http://libint.valeyev.net

 Your ORCA version has been built with support for libXC version: 5.1.0
 For citations please refer to: https://tddft.org/programs/libxc/

 This ORCA versions uses:
   CBLAS   interface :  Fast vector & matrix operations
   LAPACKE interface :  Fast linear algebra routines
   Shared memory     :  Shared parallel matrices


================================================================================

----- Orbital basis set information -----
Your calculation utilizes the basis: def2-QZVPP
   F. Weigend and R. Ahlrichs, Phys. Chem. Chem. Phys. 7, 3297 (2005).

----- AuxJ basis set information -----
Your calculation utilizes the auxiliary basis: def2/J
   F. Weigend, Phys. Chem. Chem. Phys. 8, 1057 (2006).

================================================================================
                                        WARNINGS
                       Please study these warnings very carefully!
================================================================================


WARNING: your system is open-shell and RHF/RKS was chosen
  ===> : WILL SWITCH to UHF/UKS


INFO   : the flag for use of the SHARK integral package has been found!

================================================================================
                                       INPUT FILE
================================================================================
NAME = kation.inp
|  1> !B3LYP DEF2-QZVPP
|  2> 
|  3> %scf
|  4> convergence tight
|  5> end
|  6> 
|  7> * xyz 1 2
|  8>   C   -6.35529566713189      0.98183690763207     -0.00001504036478
|  9>   C   -7.70369862552641      0.57957456761231     -0.00000173744009
| 10>   C   -8.02102163499719     -0.77812943500883      0.00001944975110
| 11>   C   -7.00414212151022     -1.73832946214561      0.00002743447097
| 12>   C   -5.66330053841805     -1.34054476427431      0.00001396353728
| 13>   C   -5.33361031358612      0.01419348174697     -0.00000730718435
| 14>   C   -6.02185993035994      2.37866436898736     -0.00003589559077
| 15>   H   -8.49093284139212      1.33596053577513     -0.00000808213751
| 16>   H   -9.06839558616840     -1.08907636566259      0.00002985217797
| 17>   H   -7.25784524787421     -2.80130133697912      0.00004422468217
| 18>   H   -4.86880131166015     -2.09058333047744      0.00002017846662
| 19>   H   -4.28975746602226      0.33378924079070     -0.00001788378122
| 20>   N   -5.75052871535300      3.50757559200336     -0.00004915658739
| 21> **                         ****END OF INPUT****
================================================================================

                       ****************************
                       * Single Point Calculation *
                       ****************************

---------------------------------
CARTESIAN COORDINATES (ANGSTROEM)
---------------------------------
  C     -6.355296    0.981837   -0.000015
  C     -7.703699    0.579575   -0.000002
  C     -8.021022   -0.778129    0.000019
  C     -7.004142   -1.738329    0.000027
  C     -5.663301   -1.340545    0.000014
  C     -5.333610    0.014193   -0.000007
  C     -6.021860    2.378664   -0.000036
  H     -8.490933    1.335961   -0.000008
  H     -9.068396   -1.089076    0.000030
  H     -7.257845   -2.801301    0.000044
  H     -4.868801   -2.090583    0.000020
  H     -4.289757    0.333789   -0.000018
  N     -5.750529    3.507576   -0.000049

----------------------------
CARTESIAN COORDINATES (A.U.)
----------------------------
  NO LB      ZA    FRAG     MASS         X           Y           Z
   0 C     6.0000    0    12.011  -12.009768    1.855403   -0.000028
   1 C     6.0000    0    12.011  -14.557881    1.095237   -0.000003
   2 C     6.0000    0    12.011  -15.157534   -1.470452    0.000037
   3 C     6.0000    0    12.011  -13.235910   -3.284967    0.000052
   4 C     6.0000    0    12.011  -10.702087   -2.533262    0.000026
   5 C     6.0000    0    12.011  -10.079063    0.026822   -0.000014
   6 C     6.0000    0    12.011  -11.379666    4.495024   -0.000068
   7 H     1.0000    0     1.008  -16.045538    2.524600   -0.000015
   8 H     1.0000    0     1.008  -17.136784   -2.058056    0.000056
   9 H     1.0000    0     1.008  -13.715340   -5.293692    0.000084
  10 H     1.0000    0     1.008   -9.200701   -3.950630    0.000038
  11 H     1.0000    0     1.008   -8.106467    0.630770   -0.000034
  12 N     7.0000    0    14.007  -10.866924    6.628357   -0.000093

--------------------------------
INTERNAL COORDINATES (ANGSTROEM)
--------------------------------
 C      0   0   0     0.000000000000     0.00000000     0.00000000
 C      1   0   0     1.407126692442     0.00000000     0.00000000
 C      2   1   0     1.394293387893   119.76620668     0.00000000
 C      3   2   1     1.398580722421   120.20282967     0.00000000
 C      4   3   2     1.398602451375   120.11818815     0.00000000
 C      5   4   3     1.394278078446   120.20160187     0.00000000
 C      1   2   3     1.436073239006   120.03694851   180.00004523
 H      2   1   3     1.091722237340   119.53370807   179.99999648
 H      3   2   1     1.092556720442   119.69027761   179.99999447
 H      4   3   2     1.092828661454   119.93403434   179.99998947
 H      5   4   3     1.092605542796   120.12491198   180.00000148
 H      6   5   4     1.091682287425   120.70065099   179.99999658
 N      7   1   2     1.161060367881   179.91122133   179.88519101

---------------------------
INTERNAL COORDINATES (A.U.)
---------------------------
 C      0   0   0     0.000000000000     0.00000000     0.00000000
 C      1   0   0     2.659084084445     0.00000000     0.00000000
 C      2   1   0     2.634832653455   119.76620668     0.00000000
 C      3   2   1     2.642934541557   120.20282967     0.00000000
 C      4   3   2     2.642975603329   120.11818815     0.00000000
 C      5   4   3     2.634803722793   120.20160187     0.00000000
 C      1   2   3     2.713785129974   120.03694851   180.00004523
 H      2   1   3     2.063056042885   119.53370807   179.99999648
 H      3   2   1     2.064632987411   119.69027761   179.99999447
 H      4   3   2     2.065146881448   119.93403434   179.99998947
 H      5   4   3     2.064725248290   120.12491198   180.00000148
 H      6   5   4     2.062980548486   120.70065099   179.99999658
 N      7   1   2     2.194086120245   179.91122133   179.88519101

---------------------
BASIS SET INFORMATION
---------------------
There are 3 groups of distinct atoms

 Group   1 Type C   : 15s8p3d2f1g contracted to 7s4p3d2f1g pattern {8211111/5111/111/11/1}
 Group   2 Type H   : 7s3p2d1f contracted to 4s3p2d1f pattern {4111/111/11/1}
 Group   3 Type N   : 15s8p3d2f1g contracted to 7s4p3d2f1g pattern {8211111/5111/111/11/1}

Atom   0C    basis set group =>   1
Atom   1C    basis set group =>   1
Atom   2C    basis set group =>   1
Atom   3C    basis set group =>   1
Atom   4C    basis set group =>   1
Atom   5C    basis set group =>   1
Atom   6C    basis set group =>   1
Atom   7H    basis set group =>   2
Atom   8H    basis set group =>   2
Atom   9H    basis set group =>   2
Atom  10H    basis set group =>   2
Atom  11H    basis set group =>   2
Atom  12N    basis set group =>   3
---------------------------------
AUXILIARY/J BASIS SET INFORMATION
---------------------------------
There are 3 groups of distinct atoms

 Group   1 Type C   : 12s5p4d2f1g contracted to 6s4p3d1f1g pattern {711111/2111/211/2/1}
 Group   2 Type H   : 5s2p1d contracted to 3s1p1d pattern {311/2/1}
 Group   3 Type N   : 12s5p4d2f1g contracted to 6s4p3d1f1g pattern {711111/2111/211/2/1}

Atom   0C    basis set group =>   1
Atom   1C    basis set group =>   1
Atom   2C    basis set group =>   1
Atom   3C    basis set group =>   1
Atom   4C    basis set group =>   1
Atom   5C    basis set group =>   1
Atom   6C    basis set group =>   1
Atom   7H    basis set group =>   2
Atom   8H    basis set group =>   2
Atom   9H    basis set group =>   2
Atom  10H    basis set group =>   2
Atom  11H    basis set group =>   2
Atom  12N    basis set group =>   3
------------------------------------------------------------------------------
                           ORCA GTO INTEGRAL CALCULATION
                           -- RI-GTO INTEGRALS CHOSEN --
------------------------------------------------------------------------------
------------------------------------------------------------------------------
                   ___                                                        
                  /   \      - P O W E R E D   B Y -                         
                 /     \                                                     
                 |  |  |   _    _      __       _____    __    __             
                 |  |  |  | |  | |    /  \     |  _  \  |  |  /  |          
                  \  \/   | |  | |   /    \    | | | |  |  | /  /          
                 / \  \   | |__| |  /  /\  \   | |_| |  |  |/  /          
                |  |  |   |  __  | /  /__\  \  |    /   |      \           
                |  |  |   | |  | | |   __   |  |    \   |  |\   \          
                \     /   | |  | | |  |  |  |  | |\  \  |  | \   \       
                 \___/    |_|  |_| |__|  |__|  |_| \__\ |__|  \__/        
                                                                              
                      - O R C A' S   B I G   F R I E N D -                    
                                      &                                       
                       - I N T E G R A L  F E E D E R -                       
                                                                              
 v1 FN, 2020, v2 2021                                                         
------------------------------------------------------------------------------


Reading SHARK input file kation.SHARKINP.tmp ... ok
----------------------
SHARK INTEGRAL PACKAGE
----------------------

Number of atoms                             ...     13
Number of basis functions                   ...    606
Number of shells                            ...    186
Maximum angular momentum                    ...      4
Integral batch strategy                     ... SHARK/LIBINT Hybrid
RI-J (if used) integral strategy            ... SPLIT-RIJ (Revised 2003 algorithm where possible)
Printlevel                                  ...      1
Contraction scheme used                     ... SEGMENTED contraction
Coulomb Range Separation                    ... NOT USED
Exchange Range Separation                   ... NOT USED
Finite Nucleus Model                        ... NOT USED
Auxiliary Coulomb fitting basis             ... AVAILABLE
   # of basis functions in Aux-J            ...    447
   # of shells in Aux-J                     ...    145
   Maximum angular momentum in Aux-J        ...      4
Auxiliary J/K fitting basis                 ... NOT available
Auxiliary Correlation fitting basis         ... NOT available
Auxiliary 'external' fitting basis          ... NOT available
Integral threshold                          ...     2.500000e-11
Primitive cut-off                           ...     2.500000e-12
Primitive pair pre-selection threshold      ...     2.500000e-12

Calculating pre-screening integrals         ... done (  3.6 sec) Dimension = 186
Organizing shell pair data                  ... done (  2.9 sec)
Shell pair information
Total number of shell pairs                 ...     17391
Shell pairs after pre-screening             ...     14944
Total number of primitive shell pairs       ...     44595
Primitive shell pairs kept                  ...     29342
          la=0 lb=0:   2282 shell pairs
          la=1 lb=0:   3132 shell pairs
          la=1 lb=1:   1058 shell pairs
          la=2 lb=0:   2164 shell pairs
          la=2 lb=1:   1455 shell pairs
          la=2 lb=2:    520 shell pairs
          la=3 lb=0:   1324 shell pairs
          la=3 lb=1:    892 shell pairs
          la=3 lb=2:    622 shell pairs
          la=3 lb=3:    200 shell pairs
          la=4 lb=0:    521 shell pairs
          la=4 lb=1:    348 shell pairs
          la=4 lb=2:    241 shell pairs
          la=4 lb=3:    152 shell pairs
          la=4 lb=4:     33 shell pairs

Calculating one electron integrals          ... done (  1.2 sec)
Calculating RI/J V-Matrix + Cholesky decomp.... done (  0.1 sec)
Calculating Nuclear repulsion               ... done (  0.0 sec) ENN=    298.729306774016 Eh

SHARK setup successfully completed in  14.8 seconds

Maximum memory used throughout the entire GTOINT-calculation: 537.2 MB
-------------------------------------------------------------------------------
                                 ORCA SCF
-------------------------------------------------------------------------------

------------
SCF SETTINGS
------------
Hamiltonian:
 Density Functional     Method          .... DFT(GTOs)
 Exchange Functional    Exchange        .... B88
   X-Alpha parameter    XAlpha          ....  0.666667
   Becke's b parameter  XBeta           ....  0.004200
 Correlation Functional Correlation     .... LYP
 LDA part of GGA corr.  LDAOpt          .... VWN-5
 Gradients option       PostSCFGGA      .... off
 Hybrid DFT is turned on
   Fraction HF Exchange ScalHFX         ....  0.200000
   Scaling of DF-GGA-X  ScalDFX         ....  0.720000
   Scaling of DF-GGA-C  ScalDFC         ....  0.810000
   Scaling of DF-LDA-C  ScalLDAC        ....  1.000000
   Perturbative correction              ....  0.000000
   Density functional embedding theory  .... OFF
   NL short-range parameter             ....  4.800000
 RI-approximation to the Coulomb term is turned on
   Number of AuxJ basis functions       .... 447
   RIJ-COSX (HFX calculated with COS-X)).... on


General Settings:
 Integral files         IntName         .... kation
 Hartree-Fock type      HFTyp           .... UHF
 Total Charge           Charge          ....    1
 Multiplicity           Mult            ....    2
 Number of Electrons    NEL             ....   53
 Basis Dimension        Dim             ....  606
 Nuclear Repulsion      ENuc            ....    298.7293067740 Eh

Convergence Acceleration:
 DIIS                   CNVDIIS         .... on
   Start iteration      DIISMaxIt       ....    12
   Startup error        DIISStart       ....  0.200000
   # of expansion vecs  DIISMaxEq       ....     5
   Bias factor          DIISBfac        ....   1.050
   Max. coefficient     DIISMaxC        ....  10.000
 Trust-Rad. Augm. Hess. CNVTRAH         .... auto
   Auto Start mean grad. ratio tolernc. ....  1.125000
   Auto Start start iteration           ....    20
   Auto Start num. interpolation iter.  ....    10
   Max. Number of Micro iterations      ....    16
   Max. Number of Macro iterations      .... Maxiter - #DIIS iter
   Number of Davidson start vectors     ....     2
   Converg. threshold I  (grad. norm)   ....   1.000e-05
   Converg. threshold II (energy diff.) ....   1.000e-08
   Grad. Scal. Fac. for Micro threshold ....   0.100
   Minimum threshold for Micro iter.    ....   0.010
   NR start threshold (gradient norm)   ....   0.001
   Initial trust radius                 ....   0.400
   Minimum AH scaling param. (alpha)    ....   1.000
   Maximum AH scaling param. (alpha)    .... 1000.000
   Orbital update algorithm             .... Taylor
   White noise on init. David. guess    .... on
   Maximum white noise                  ....   0.010
   Quad. conv. algorithm                .... NR
 SOSCF                  CNVSOSCF        .... off
 Level Shifting         CNVShift        .... on
   Level shift para.    LevelShift      ....    0.2500
   Turn off err/grad.   ShiftErr        ....    0.0010
 Zerner damping         CNVZerner       .... off
 Static damping         CNVDamp         .... on
   Fraction old density DampFac         ....    0.7000
   Max. Damping (<1)    DampMax         ....    0.9800
   Min. Damping (>=0)   DampMin         ....    0.0000
   Turn off err/grad.   DampErr         ....    0.1000
 Fernandez-Rico         CNVRico         .... off

SCF Procedure:
 Maximum # iterations   MaxIter         ....   125
 SCF integral mode      SCFMode         .... Direct
   Integral package                     .... SHARK and LIBINT hybrid scheme
 Reset frequency        DirectResetFreq ....    20
 Integral Threshold     Thresh          ....  2.500e-11 Eh
 Primitive CutOff       TCut            ....  2.500e-12 Eh

Convergence Tolerance:
 Convergence Check Mode ConvCheckMode   .... Total+1el-Energy
 Convergence forced     ConvForced      .... 0
 Energy Change          TolE            ....  1.000e-08 Eh
 1-El. energy change                    ....  1.000e-05 Eh
 DIIS Error             TolErr          ....  5.000e-07


Diagonalization of the overlap matrix:
Smallest eigenvalue                        ... 6.907e-06
Time for diagonalization                   ...    0.394 sec
Threshold for overlap eigenvalues          ... 1.000e-08
Number of eigenvalues below threshold      ... 0
Time for construction of square roots      ...    0.270 sec
Total time needed                          ...    0.665 sec

Time for model grid setup =    2.766 sec

------------------------------
INITIAL GUESS: MODEL POTENTIAL
------------------------------
Loading Hartree-Fock densities                     ... done
Calculating cut-offs                               ... done
Initializing the effective Hamiltonian             ... done
Setting up the integral package (SHARK)            ... done
Starting the Coulomb interaction                   ... done (   7.4 sec)
Reading the grid                                   ... done
Mapping shells                                     ... done
Starting the XC term evaluation                    ... done (   8.7 sec)
  promolecular density results
     # of electrons  =     53.999152564
     EX              =    -43.952402339
     EC              =     -1.803976292
     EX+EC           =    -45.756378631
Transforming the Hamiltonian                       ... done (   0.2 sec)
Diagonalizing the Hamiltonian                      ... done (   0.4 sec)
Back transforming the eigenvectors                 ... done (   0.1 sec)
Now organizing SCF variables                       ... done
                      ------------------
                      INITIAL GUESS DONE (  19.8 sec)
                      ------------------
-------------------
DFT GRID GENERATION
-------------------

General Integration Accuracy     IntAcc      ... 4.388
Radial Grid Type                 RadialGrid  ... OptM3 with GC (2021)
Angular Grid (max. ang.)         AngularGrid ... 4 (Lebedev-302)
Angular grid pruning method      GridPruning ... 4 (adaptive)
Weight generation scheme         WeightScheme... Becke
Basis function cutoff            BFCut       ... 1.0000e-11
Integration weight cutoff        WCut        ... 1.0000e-14
Angular grids for H and He will be reduced by one unit
Partially contracted basis set               ... off
Rotationally invariant grid construction     ... off

Total number of grid points                  ...    66532
Total number of batches                      ...     1045
Average number of points per batch           ...       63
Average number of grid points per atom       ...     5118
Time for grid setup =    9.103 sec

--------------------
COSX GRID GENERATION
--------------------

GRIDX 1
-------
General Integration Accuracy     IntAcc      ... 3.816
Radial Grid Type                 RadialGrid  ... OptM3 with GC (2021)
Angular Grid (max. ang.)         AngularGrid ... 1 (Lebedev-50)
Angular grid pruning method      GridPruning ... 4 (adaptive)
Weight generation scheme         WeightScheme... Becke
Basis function cutoff            BFCut       ... 1.0000e-11
Integration weight cutoff        WCut        ... 1.0000e-14
Angular grids for H and He will be reduced by one unit
Partially contracted basis set               ... on
Rotationally invariant grid construction     ... off

Total number of grid points                  ...     8501
Total number of batches                      ...      141
Average number of points per batch           ...       60
Average number of grid points per atom       ...      654
UseSFitting                                  ... on

GRIDX 2
-------
General Integration Accuracy     IntAcc      ... 4.020
Radial Grid Type                 RadialGrid  ... OptM3 with GC (2021)
Angular Grid (max. ang.)         AngularGrid ... 2 (Lebedev-110)
Angular grid pruning method      GridPruning ... 4 (adaptive)
Weight generation scheme         WeightScheme... Becke
Basis function cutoff            BFCut       ... 1.0000e-11
Integration weight cutoff        WCut        ... 1.0000e-14
Angular grids for H and He will be reduced by one unit
Partially contracted basis set               ... on
Rotationally invariant grid construction     ... off

Total number of grid points                  ...    20964
Total number of batches                      ...      334
Average number of points per batch           ...       62
Average number of grid points per atom       ...     1613
UseSFitting                                  ... on

GRIDX 3
-------
General Integration Accuracy     IntAcc      ... 4.338
Radial Grid Type                 RadialGrid  ... OptM3 with GC (2021)
Angular Grid (max. ang.)         AngularGrid ... 3 (Lebedev-194)
Angular grid pruning method      GridPruning ... 4 (adaptive)
Weight generation scheme         WeightScheme... Becke
Basis function cutoff            BFCut       ... 1.0000e-11
Integration weight cutoff        WCut        ... 1.0000e-14
Angular grids for H and He will be reduced by one unit
Partially contracted basis set               ... on
Rotationally invariant grid construction     ... off

Total number of grid points                  ...    45178
Total number of batches                      ...      712
Average number of points per batch           ...       63
Average number of grid points per atom       ...     3475
UseSFitting                                  ... on

Time for X-Grid setup             =   26.088 sec

--------------
SCF ITERATIONS
--------------
ITER       Energy         Delta-E        Max-DP      RMS-DP      [F,P]     Damp
               ***  Starting incremental Fock matrix formation  ***
  0   -323.9314040230   0.000000000000 0.01699423  0.00014343  0.1469662 0.7000
  1   -324.0066812082  -0.075277185210 0.00903852  0.00009153  0.0540279 0.7000
                               ***Turning on DIIS***
  2   -324.0296299892  -0.022948781005 0.01260539  0.00015400  0.0219084 0.0000
  3   -324.0792165549  -0.049586565696 0.00979952  0.00007540  0.0254464 0.0000
  4   -324.0834818784  -0.004265323464 0.00523036  0.00003213  0.0226309 0.0000
  5   -324.0860415670  -0.002559688675 0.00182565  0.00001104  0.0055096 0.0000
  6   -324.0862107315  -0.000169164477 0.00090704  0.00000620  0.0033333 0.0000
  7   -324.0862907274  -0.000079995911 0.00072746  0.00000468  0.0016902 0.0000
  8   -324.0863362638  -0.000045536391 0.00054774  0.00000358  0.0012814 0.0000
  9   -324.0863612913  -0.000025027446 0.00089159  0.00000520  0.0009018 0.0000
               *** Restarting incremental Fock matrix formation ***
                                   *** Resetting DIIS ***
 10   -324.0863770900  -0.000015798709 0.00035650  0.00000409  0.0005412 0.0000
 11   -324.0863682118   0.000008878193 0.00014219  0.00000121  0.0011453 0.0000
 12   -324.0863785520  -0.000010340188 0.00016622  0.00000135  0.0003753 0.0000
 13   -324.0863811015  -0.000002549577 0.00006352  0.00000060  0.0001303 0.0000
 14   -324.0863815116  -0.000000410083 0.00006768  0.00000047  0.0002238 0.0000
 15   -324.0863818476  -0.000000335956 0.00002866  0.00000027  0.0000494 0.0000
 16   -324.0863819040  -0.000000056402 0.00001427  0.00000015  0.0000261 0.0000
 17   -324.0863819191  -0.000000015074 0.00002386  0.00000022  0.0000097 0.0000
 18   -324.0863819247  -0.000000005623 0.00002866  0.00000021  0.0000053 0.0000
 19   -324.0863819254  -0.000000000756 0.00001418  0.00000014  0.0000049 0.0000
 20   -324.0863819280  -0.000000002562 0.00002560  0.00000020  0.0000035 0.0000
 21   -324.0863819296  -0.000000001613 0.00001700  0.00000016  0.0000053 0.0000
 22   -324.0863819317  -0.000000002085 0.00002530  0.00000024  0.0000038 0.0000
 23   -324.0863819308   0.000000000918 0.00002972  0.00000028  0.0000023 0.0000
 24   -324.0863819312  -0.000000000395 0.00001527  0.00000012  0.0000014 0.0000
                 **** Energy Check signals convergence ****

               *****************************************************
               *                     SUCCESS                       *
               *           SCF CONVERGED AFTER  25 CYCLES          *
               *****************************************************

Old exchange energy                            =     -8.855125051 Eh
New exchange energy                            =     -8.855118654 Eh
Exchange energy change after final integration =      0.000006397 Eh
Total energy after final integration           =   -324.086375534 Eh
Final COS-X integration done in                =   310.106 sec

----------------
TOTAL SCF ENERGY
----------------

Total Energy       :         -324.08637553 Eh           -8818.83862 eV

Components:
Nuclear Repulsion  :          298.72930677 Eh            8128.83770 eV
Electronic Energy  :         -622.81568231 Eh          -16947.67632 eV
One Electron Energy:        -1016.50199437 Eh          -27660.42550 eV
Two Electron Energy:          393.68631206 Eh           10712.74918 eV
Max COSX asymmetry :            0.00000015 Eh               0.00000 eV

Virial components:
Potential Energy   :         -646.70326967 Eh          -17597.69062 eV
Kinetic Energy     :          322.61689414 Eh            8778.85200 eV
Virial Ratio       :            2.00455488


DFT components:
N(Alpha)           :       27.000018293406 electrons
N(Beta)            :       26.000031200198 electrons
N(Total)           :       53.000049493604 electrons
E(X)               :      -35.225268651322 Eh       
E(C)               :       -2.100250632657 Eh       
E(XC)              :      -37.325519283979 Eh       
DFET-embed. en.    :        0.000000000000 Eh       

---------------
SCF CONVERGENCE
---------------

  Last Energy change         ...    5.1352e-10  Tolerance :   1.0000e-08
  Last MAX-Density change    ...    0.0000e+00  Tolerance :   1.0000e-07
  Last RMS-Density change    ...    0.0000e+00  Tolerance :   5.0000e-09
  Last DIIS Error            ...    1.1495e-06  Tolerance :   5.0000e-07

             **** THE GBW FILE WAS UPDATED (kation.gbw) ****
             **** DENSITY kation.scfp WAS UPDATED ****
             **** ENERGY FILE WAS UPDATED (kation.en.tmp) ****
----------------------
UHF SPIN CONTAMINATION
----------------------

Warning: in a DFT calculation there is little theoretical justification to 
         calculate <S**2> as in Hartree-Fock theory. We will do it anyways
         but you should keep in mind that the values have only limited relevance

Expectation value of <S**2>     :     0.768139
Ideal value S*(S+1) for S=0.5   :     0.750000
Deviation                       :     0.018139

             **** THE GBW FILE WAS UPDATED (kation.gbw) ****
             **** DENSITY kation.scfp WAS UPDATED ****
----------------
ORBITAL ENERGIES
----------------
                 SPIN UP ORBITALS
  NO   OCC          E(Eh)            E(eV) 
   0   1.0000     -14.545645      -395.8071 
   1   1.0000     -10.475621      -285.0562 
   2   1.0000     -10.440906      -284.1115 
   3   1.0000     -10.426180      -283.7108 
   4   1.0000     -10.422877      -283.6209 
   5   1.0000     -10.422821      -283.6194 
   6   1.0000     -10.412636      -283.3422 
   7   1.0000     -10.412585      -283.3409 
   8   1.0000      -1.132871       -30.8270 
   9   1.0000      -1.102617       -30.0037 
  10   1.0000      -1.013085       -27.5674 
  11   1.0000      -0.980951       -26.6930 
  12   1.0000      -0.870798       -23.6956 
  13   1.0000      -0.844350       -22.9759 
  14   1.0000      -0.775166       -21.0933 
  15   1.0000      -0.715777       -19.4773 
  16   1.0000      -0.699509       -19.0346 
  17   1.0000      -0.663289       -18.0490 
  18   1.0000      -0.646735       -17.5986 
  19   1.0000      -0.632617       -17.2144 
  20   1.0000      -0.593736       -16.1564 
  21   1.0000      -0.580529       -15.7970 
  22   1.0000      -0.573079       -15.5943 
  23   1.0000      -0.569141       -15.4871 
  24   1.0000      -0.545339       -14.8394 
  25   1.0000      -0.504721       -13.7342 
  26   1.0000      -0.487046       -13.2532 
  27   0.0000      -0.282064        -7.6754 
  28   0.0000      -0.241876        -6.5818 
  29   0.0000      -0.175700        -4.7810 
  30   0.0000      -0.147083        -4.0023 
  31   0.0000      -0.144216        -3.9243 
  32   0.0000      -0.109462        -2.9786 
  33   0.0000      -0.105195        -2.8625 
  34   0.0000      -0.087067        -2.3692 
  35   0.0000      -0.084577        -2.3015 
  36   0.0000      -0.083539        -2.2732 
  37   0.0000      -0.068929        -1.8756 
  38   0.0000      -0.049138        -1.3371 
  39   0.0000      -0.036664        -0.9977 
  40   0.0000      -0.018653        -0.5076 
  41   0.0000      -0.011361        -0.3092 
  42   0.0000      -0.007473        -0.2033 
  43   0.0000      -0.005056        -0.1376 
  44   0.0000       0.003311         0.0901 
  45   0.0000       0.013269         0.3611 
  46   0.0000       0.035430         0.9641 
  47   0.0000       0.036114         0.9827 
  48   0.0000       0.048235         1.3125 
  49   0.0000       0.058028         1.5790 
  50   0.0000       0.058582         1.5941 
  51   0.0000       0.065606         1.7852 
  52   0.0000       0.069705         1.8968 
  53   0.0000       0.077448         2.1075 
  54   0.0000       0.087812         2.3895 
  55   0.0000       0.103284         2.8105 
  56   0.0000       0.126586         3.4446 
  57   0.0000       0.140083         3.8119 
  58   0.0000       0.141280         3.8444 
  59   0.0000       0.152679         4.1546 
  60   0.0000       0.155616         4.2345 
  61   0.0000       0.157829         4.2948 
  62   0.0000       0.176021         4.7898 
  63   0.0000       0.182241         4.9590 
  64   0.0000       0.198162         5.3923 
  65   0.0000       0.209592         5.7033 
  66   0.0000       0.226623         6.1667 
  67   0.0000       0.229387         6.2419 
  68   0.0000       0.238233         6.4826 
  69   0.0000       0.253602         6.9009 
  70   0.0000       0.256079         6.9683 
  71   0.0000       0.272847         7.4245 
  72   0.0000       0.275523         7.4974 
  73   0.0000       0.280187         7.6243 
  74   0.0000       0.291703         7.9376 
  75   0.0000       0.315594         8.5877 
  76   0.0000       0.318584         8.6691 
  77   0.0000       0.328516         8.9394 
  78   0.0000       0.334693         9.1075 
  79   0.0000       0.336810         9.1651 
  80   0.0000       0.363097         9.8804 
  81   0.0000       0.363931         9.9031 
  82   0.0000       0.372244        10.1293 
  83   0.0000       0.375487        10.2175 
  84   0.0000       0.390599        10.6287 
  85   0.0000       0.420155        11.4330 
  86   0.0000       0.445707        12.1283 
  87   0.0000       0.456455        12.4208 
  88   0.0000       0.466767        12.7014 
  89   0.0000       0.470231        12.7956 
  90   0.0000       0.478780        13.0283 
  91   0.0000       0.490883        13.3576 
  92   0.0000       0.508969        13.8498 
  93   0.0000       0.522532        14.2188 
  94   0.0000       0.523004        14.2317 
  95   0.0000       0.543063        14.7775 
  96   0.0000       0.543376        14.7860 
  97   0.0000       0.544531        14.8175 
  98   0.0000       0.549669        14.9572 
  99   0.0000       0.561303        15.2738 
 100   0.0000       0.562896        15.3172 
 101   0.0000       0.584608        15.9080 
 102   0.0000       0.588925        16.0255 
 103   0.0000       0.617804        16.8113 
 104   0.0000       0.623562        16.9680 
 105   0.0000       0.632602        17.2140 
 106   0.0000       0.640856        17.4386 
 107   0.0000       0.653976        17.7956 
 108   0.0000       0.657131        17.8814 
 109   0.0000       0.686438        18.6789 
 110   0.0000       0.697278        18.9739 
 111   0.0000       0.701542        19.0899 
 112   0.0000       0.703289        19.1375 
 113   0.0000       0.709353        19.3025 
 114   0.0000       0.711499        19.3609 
 115   0.0000       0.713841        19.4246 
 116   0.0000       0.719629        19.5821 
 117   0.0000       0.768770        20.9193 
 118   0.0000       0.770906        20.9774 
 119   0.0000       0.788532        21.4570 
 120   0.0000       0.798381        21.7251 
 121   0.0000       0.800886        21.7932 
 122   0.0000       0.815879        22.2012 
 123   0.0000       0.818206        22.2645 
 124   0.0000       0.832454        22.6522 
 125   0.0000       0.843132        22.9428 
 126   0.0000       0.862233        23.4626 
 127   0.0000       0.871963        23.7273 
 128   0.0000       0.877265        23.8716 
 129   0.0000       0.899239        24.4695 
 130   0.0000       0.907939        24.7063 
 131   0.0000       0.932568        25.3765 
 132   0.0000       0.948732        25.8163 
 133   0.0000       0.960164        26.1274 
 134   0.0000       0.962320        26.1860 
 135   0.0000       0.978821        26.6351 
 136   0.0000       0.989203        26.9176 
 137   0.0000       0.993543        27.0357 
 138   0.0000       1.024224        27.8706 
 139   0.0000       1.041302        28.3353 
 140   0.0000       1.056393        28.7459 
 141   0.0000       1.062208        28.9041 
 142   0.0000       1.075698        29.2712 
 143   0.0000       1.084662        29.5152 
 144   0.0000       1.092947        29.7406 
 145   0.0000       1.147459        31.2240 
 146   0.0000       1.154060        31.4036 
 147   0.0000       1.188358        32.3369 
 148   0.0000       1.196608        32.5614 
 149   0.0000       1.252058        34.0702 
 150   0.0000       1.272287        34.6207 
 151   0.0000       1.286930        35.0191 
 152   0.0000       1.300253        35.3817 
 153   0.0000       1.310991        35.6739 
 154   0.0000       1.335048        36.3285 
 155   0.0000       1.347978        36.6803 
 156   0.0000       1.360454        37.0198 
 157   0.0000       1.380182        37.5567 
 158   0.0000       1.382824        37.6285 
 159   0.0000       1.396633        38.0043 
 160   0.0000       1.421692        38.6862 
 161   0.0000       1.431982        38.9662 
 162   0.0000       1.443902        39.2906 
 163   0.0000       1.452075        39.5130 
 164   0.0000       1.467413        39.9303 
 165   0.0000       1.500661        40.8351 
 166   0.0000       1.502198        40.8769 
 167   0.0000       1.502970        40.8979 
 168   0.0000       1.515487        41.2385 
 169   0.0000       1.543214        41.9930 
 170   0.0000       1.556768        42.3618 
 171   0.0000       1.559486        42.4358 
 172   0.0000       1.565821        42.6081 
 173   0.0000       1.577241        42.9189 
 174   0.0000       1.614597        43.9354 
 175   0.0000       1.622038        44.1379 
 176   0.0000       1.632501        44.4226 
 177   0.0000       1.646321        44.7987 
 178   0.0000       1.659074        45.1457 
 179   0.0000       1.670662        45.4610 
 180   0.0000       1.701881        46.3105 
 181   0.0000       1.706952        46.4485 
 182   0.0000       1.714540        46.6550 
 183   0.0000       1.736144        47.2429 
 184   0.0000       1.739615        47.3373 
 185   0.0000       1.743070        47.4313 
 186   0.0000       1.751558        47.6623 
 187   0.0000       1.755699        47.7750 
 188   0.0000       1.775783        48.3215 
 189   0.0000       1.809424        49.2369 
 190   0.0000       1.811558        49.2950 
 191   0.0000       1.818712        49.4897 
 192   0.0000       1.840573        50.0845 
 193   0.0000       1.852125        50.3989 
 194   0.0000       1.855704        50.4963 
 195   0.0000       1.875558        51.0365 
 196   0.0000       1.892183        51.4889 
 197   0.0000       1.897159        51.6243 
 198   0.0000       1.897371        51.6301 
 199   0.0000       1.916053        52.1384 
 200   0.0000       1.928009        52.4638 
 201   0.0000       1.936377        52.6915 
 202   0.0000       1.975768        53.7634 
 203   0.0000       1.976202        53.7752 
 204   0.0000       1.985602        54.0310 
 205   0.0000       2.005344        54.5682 
 206   0.0000       2.007880        54.6372 
 207   0.0000       2.025083        55.1053 
 208   0.0000       2.034780        55.3692 
 209   0.0000       2.048219        55.7349 
 210   0.0000       2.050393        55.7940 
 211   0.0000       2.068283        56.2809 
 212   0.0000       2.074951        56.4623 
 213   0.0000       2.084229        56.7147 
 214   0.0000       2.118126        57.6371 
 215   0.0000       2.137506        58.1645 
 216   0.0000       2.164233        58.8918 
 217   0.0000       2.168881        59.0183 
 218   0.0000       2.185233        59.4632 
 219   0.0000       2.189116        59.5689 
 220   0.0000       2.196384        59.7667 
 221   0.0000       2.207190        60.0607 
 222   0.0000       2.218952        60.3808 
 223   0.0000       2.227762        60.6205 
 224   0.0000       2.245363        61.0994 
 225   0.0000       2.268756        61.7360 
 226   0.0000       2.273931        61.8768 
 227   0.0000       2.279677        62.0332 
 228   0.0000       2.291940        62.3669 
 229   0.0000       2.302409        62.6517 
 230   0.0000       2.303348        62.6773 
 231   0.0000       2.304944        62.7207 
 232   0.0000       2.343829        63.7788 
 233   0.0000       2.344460        63.7960 
 234   0.0000       2.357972        64.1637 
 235   0.0000       2.371102        64.5210 
 236   0.0000       2.398505        65.2666 
 237   0.0000       2.402221        65.3678 
 238   0.0000       2.411952        65.6325 
 239   0.0000       2.420184        65.8566 
 240   0.0000       2.439544        66.3834 
 241   0.0000       2.442733        66.4702 
 242   0.0000       2.445417        66.5432 
 243   0.0000       2.452047        66.7236 
 244   0.0000       2.452578        66.7380 
 245   0.0000       2.489619        67.7460 
 246   0.0000       2.518965        68.5445 
 247   0.0000       2.521501        68.6135 
 248   0.0000       2.527211        68.7689 
 249   0.0000       2.537892        69.0595 
 250   0.0000       2.557158        69.5838 
 251   0.0000       2.575134        70.0730 
 252   0.0000       2.577863        70.1472 
 253   0.0000       2.579043        70.1793 
 254   0.0000       2.593312        70.5676 
 255   0.0000       2.601464        70.7894 
 256   0.0000       2.620045        71.2950 
 257   0.0000       2.661749        72.4299 
 258   0.0000       2.671224        72.6877 
 259   0.0000       2.701613        73.5146 
 260   0.0000       2.710872        73.7666 
 261   0.0000       2.726333        74.1873 
 262   0.0000       2.757852        75.0450 
 263   0.0000       2.781606        75.6914 
 264   0.0000       2.815633        76.6173 
 265   0.0000       2.840528        77.2947 
 266   0.0000       2.868972        78.0687 
 267   0.0000       2.870595        78.1129 
 268   0.0000       2.879960        78.3677 
 269   0.0000       2.894446        78.7619 
 270   0.0000       2.898389        78.8692 
 271   0.0000       2.906929        79.1016 
 272   0.0000       2.960385        80.5562 
 273   0.0000       2.960812        80.5678 
 274   0.0000       3.004332        81.7520 
 275   0.0000       3.021499        82.2192 
 276   0.0000       3.086205        83.9799 
 277   0.0000       3.111144        84.6585 
 278   0.0000       3.126622        85.0797 
 279   0.0000       3.127487        85.1032 
 280   0.0000       3.136004        85.3350 
 281   0.0000       3.149801        85.7104 
 282   0.0000       3.158021        85.9341 
 283   0.0000       3.184701        86.6601 
 284   0.0000       3.219370        87.6035 
 285   0.0000       3.243553        88.2616 
 286   0.0000       3.243729        88.2664 
 287   0.0000       3.263565        88.8061 
 288   0.0000       3.266993        88.8994 
 289   0.0000       3.296132        89.6923 
 290   0.0000       3.319826        90.3370 
 291   0.0000       3.324044        90.4518 
 292   0.0000       3.326230        90.5113 
 293   0.0000       3.352251        91.2194 
 294   0.0000       3.409506        92.7774 
 295   0.0000       3.433993        93.4437 
 296   0.0000       3.439249        93.5867 
 297   0.0000       3.475789        94.5810 
 298   0.0000       3.484528        94.8188 
 299   0.0000       3.574616        97.2702 
 300   0.0000       3.592124        97.7467 
 301   0.0000       3.637546        98.9827 
 302   0.0000       3.651267        99.3560 
 303   0.0000       3.679990       100.1376 
 304   0.0000       3.682377       100.2026 
 305   0.0000       3.683836       100.2423 
 306   0.0000       3.687896       100.3527 
 307   0.0000       3.761559       102.3572 
 308   0.0000       3.785431       103.0068 
 309   0.0000       3.800679       103.4217 
 310   0.0000       3.817167       103.8704 
 311   0.0000       3.856615       104.9438 
 312   0.0000       3.865198       105.1774 
 313   0.0000       3.884073       105.6910 
 314   0.0000       3.922809       106.7451 
 315   0.0000       3.985232       108.4437 
 316   0.0000       4.034024       109.7714 
 317   0.0000       4.082053       111.0783 
 318   0.0000       4.099107       111.5424 
 319   0.0000       4.210353       114.5695 
 320   0.0000       4.261010       115.9480 
 321   0.0000       4.285140       116.6046 
 322   0.0000       4.311088       117.3107 
 323   0.0000       4.431198       120.5790 
 324   0.0000       4.475477       121.7839 
 325   0.0000       4.491182       122.2113 
 326   0.0000       4.494322       122.2967 
 327   0.0000       4.560865       124.1074 
 328   0.0000       4.569011       124.3291 
 329   0.0000       4.569169       124.3334 
 330   0.0000       4.581244       124.6620 
 331   0.0000       4.612499       125.5125 
 332   0.0000       4.623614       125.8149 
 333   0.0000       4.635563       126.1401 
 334   0.0000       4.685419       127.4967 
 335   0.0000       4.733585       128.8074 
 336   0.0000       4.759287       129.5068 
 337   0.0000       4.780181       130.0753 
 338   0.0000       4.785611       130.2231 
 339   0.0000       4.793316       130.4327 
 340   0.0000       4.808770       130.8533 
 341   0.0000       4.815159       131.0271 
 342   0.0000       4.840366       131.7131 
 343   0.0000       4.871575       132.5623 
 344   0.0000       4.927015       134.0709 
 345   0.0000       4.932250       134.2133 
 346   0.0000       4.948273       134.6493 
 347   0.0000       4.979776       135.5066 
 348   0.0000       4.981178       135.5447 
 349   0.0000       4.996708       135.9673 
 350   0.0000       5.015526       136.4794 
 351   0.0000       5.018706       136.5659 
 352   0.0000       5.025933       136.7626 
 353   0.0000       5.065746       137.8459 
 354   0.0000       5.093905       138.6122 
 355   0.0000       5.104558       138.9021 
 356   0.0000       5.121845       139.3725 
 357   0.0000       5.135631       139.7476 
 358   0.0000       5.155497       140.2882 
 359   0.0000       5.173842       140.7874 
 360   0.0000       5.190571       141.2426 
 361   0.0000       5.195298       141.3713 
 362   0.0000       5.246882       142.7749 
 363   0.0000       5.270380       143.4143 
 364   0.0000       5.272627       143.4755 
 365   0.0000       5.302141       144.2786 
 366   0.0000       5.352299       145.6435 
 367   0.0000       5.372009       146.1798 
 368   0.0000       5.383927       146.5041 
 369   0.0000       5.389335       146.6513 
 370   0.0000       5.406889       147.1289 
 371   0.0000       5.435927       147.9191 
 372   0.0000       5.445563       148.1813 
 373   0.0000       5.506745       149.8461 
 374   0.0000       5.524861       150.3391 
 375   0.0000       5.532878       150.5573 
 376   0.0000       5.586900       152.0273 
 377   0.0000       5.596715       152.2944 
 378   0.0000       5.604800       152.5144 
 379   0.0000       5.624877       153.0607 
 380   0.0000       5.630121       153.2034 
 381   0.0000       5.631366       153.2373 
 382   0.0000       5.653568       153.8414 
 383   0.0000       5.660556       154.0316 
 384   0.0000       5.682194       154.6204 
 385   0.0000       5.692841       154.9101 
 386   0.0000       5.698956       155.0765 
 387   0.0000       5.726922       155.8375 
 388   0.0000       5.740784       156.2147 
 389   0.0000       5.773268       157.0986 
 390   0.0000       5.779371       157.2647 
 391   0.0000       5.791081       157.5833 
 392   0.0000       5.796912       157.7420 
 393   0.0000       5.797604       157.7608 
 394   0.0000       5.832518       158.7109 
 395   0.0000       5.837510       158.8467 
 396   0.0000       5.841304       158.9500 
 397   0.0000       5.864809       159.5896 
 398   0.0000       5.867829       159.6717 
 399   0.0000       5.870086       159.7332 
 400   0.0000       5.875332       159.8759 
 401   0.0000       5.903260       160.6359 
 402   0.0000       5.911786       160.8679 
 403   0.0000       5.917634       161.0270 
 404   0.0000       5.930007       161.3637 
 405   0.0000       5.961584       162.2229 
 406   0.0000       5.984957       162.8589 
 407   0.0000       5.999447       163.2532 
 408   0.0000       6.002737       163.3428 
 409   0.0000       6.003749       163.3703 
 410   0.0000       6.028821       164.0526 
 411   0.0000       6.045282       164.5005 
 412   0.0000       6.048783       164.5958 
 413   0.0000       6.052935       164.7087 
 414   0.0000       6.061334       164.9373 
 415   0.0000       6.063502       164.9963 
 416   0.0000       6.077516       165.3776 
 417   0.0000       6.092646       165.7893 
 418   0.0000       6.100282       165.9971 
 419   0.0000       6.139134       167.0543 
 420   0.0000       6.160462       167.6347 
 421   0.0000       6.185541       168.3171 
 422   0.0000       6.193424       168.5316 
 423   0.0000       6.201926       168.7630 
 424   0.0000       6.217088       169.1756 
 425   0.0000       6.229777       169.5209 
 426   0.0000       6.239791       169.7933 
 427   0.0000       6.321739       172.0233 
 428   0.0000       6.334537       172.3715 
 429   0.0000       6.358449       173.0222 
 430   0.0000       6.362700       173.1379 
 431   0.0000       6.371709       173.3830 
 432   0.0000       6.386926       173.7971 
 433   0.0000       6.394644       174.0071 
 434   0.0000       6.397100       174.0740 
 435   0.0000       6.419972       174.6963 
 436   0.0000       6.429915       174.9669 
 437   0.0000       6.430535       174.9837 
 438   0.0000       6.466070       175.9507 
 439   0.0000       6.490458       176.6143 
 440   0.0000       6.495325       176.7468 
 441   0.0000       6.496156       176.7694 
 442   0.0000       6.514791       177.2765 
 443   0.0000       6.553130       178.3197 
 444   0.0000       6.582671       179.1236 
 445   0.0000       6.601105       179.6252 
 446   0.0000       6.638493       180.6426 
 447   0.0000       6.639097       180.6590 
 448   0.0000       6.645860       180.8430 
 449   0.0000       6.659731       181.2205 
 450   0.0000       6.697960       182.2608 
 451   0.0000       6.710981       182.6151 
 452   0.0000       6.719845       182.8563 
 453   0.0000       6.722726       182.9347 
 454   0.0000       6.728253       183.0851 
 455   0.0000       6.805464       185.1861 
 456   0.0000       6.836668       186.0352 
 457   0.0000       6.850443       186.4100 
 458   0.0000       6.874798       187.0728 
 459   0.0000       6.914214       188.1453 
 460   0.0000       6.919730       188.2954 
 461   0.0000       6.968122       189.6122 
 462   0.0000       7.015577       190.9036 
 463   0.0000       7.043339       191.6590 
 464   0.0000       7.046803       191.7532 
 465   0.0000       7.070396       192.3953 
 466   0.0000       7.123709       193.8460 
 467   0.0000       7.125917       193.9061 
 468   0.0000       7.138050       194.2362 
 469   0.0000       7.164818       194.9646 
 470   0.0000       7.204567       196.0462 
 471   0.0000       7.210208       196.1997 
 472   0.0000       7.220320       196.4749 
 473   0.0000       7.242598       197.0811 
 474   0.0000       7.251432       197.3215 
 475   0.0000       7.282981       198.1800 
 476   0.0000       7.305956       198.8052 
 477   0.0000       7.312376       198.9799 
 478   0.0000       7.350155       200.0079 
 479   0.0000       7.351460       200.0434 
 480   0.0000       7.352047       200.0594 
 481   0.0000       7.433805       202.2841 
 482   0.0000       7.434269       202.2967 
 483   0.0000       7.477719       203.4791 
 484   0.0000       7.493613       203.9116 
 485   0.0000       7.534759       205.0312 
 486   0.0000       7.548486       205.4047 
 487   0.0000       7.624969       207.4860 
 488   0.0000       7.625148       207.4908 
 489   0.0000       7.644574       208.0194 
 490   0.0000       7.662732       208.5135 
 491   0.0000       7.717596       210.0065 
 492   0.0000       7.750022       210.8888 
 493   0.0000       7.754417       211.0084 
 494   0.0000       7.756335       211.0606 
 495   0.0000       7.851064       213.6383 
 496   0.0000       7.874934       214.2879 
 497   0.0000       7.875509       214.3035 
 498   0.0000       7.905525       215.1203 
 499   0.0000       7.922999       215.5958 
 500   0.0000       7.938990       216.0309 
 501   0.0000       7.969509       216.8614 
 502   0.0000       7.972130       216.9327 
 503   0.0000       7.998904       217.6612 
 504   0.0000       8.007041       217.8827 
 505   0.0000       8.009381       217.9463 
 506   0.0000       8.031713       218.5540 
 507   0.0000       8.042013       218.8343 
 508   0.0000       8.062314       219.3867 
 509   0.0000       8.072886       219.6744 
 510   0.0000       8.080218       219.8739 
 511   0.0000       8.102779       220.4878 
 512   0.0000       8.110289       220.6922 
 513   0.0000       8.134615       221.3541 
 514   0.0000       8.153996       221.8815 
 515   0.0000       8.155212       221.9146 
 516   0.0000       8.175696       222.4720 
 517   0.0000       8.178614       222.5514 
 518   0.0000       8.187288       222.7874 
 519   0.0000       8.215888       223.5657 
 520   0.0000       8.227222       223.8741 
 521   0.0000       8.243838       224.3262 
 522   0.0000       8.244819       224.3529 
 523   0.0000       8.258138       224.7154 
 524   0.0000       8.263614       224.8644 
 525   0.0000       8.273733       225.1397 
 526   0.0000       8.302051       225.9103 
 527   0.0000       8.305358       226.0003 
 528   0.0000       8.374444       227.8802 
 529   0.0000       8.389917       228.3012 
 530   0.0000       8.407115       228.7692 
 531   0.0000       8.440299       229.6722 
 532   0.0000       8.454647       230.0626 
 533   0.0000       8.460578       230.2240 
 534   0.0000       8.466583       230.3874 
 535   0.0000       8.525012       231.9774 
 536   0.0000       8.542280       232.4473 
 537   0.0000       8.554786       232.7876 
 538   0.0000       8.617497       234.4940 
 539   0.0000       8.627536       234.7672 
 540   0.0000       8.666737       235.8339 
 541   0.0000       8.703781       236.8419 
 542   0.0000       8.727652       237.4915 
 543   0.0000       8.744657       237.9542 
 544   0.0000       8.748848       238.0683 
 545   0.0000       8.794220       239.3029 
 546   0.0000       8.794778       239.3181 
 547   0.0000       8.861811       241.1421 
 548   0.0000       9.077889       247.0219 
 549   0.0000       9.212268       250.6786 
 550   0.0000       9.252099       251.7624 
 551   0.0000       9.273555       252.3463 
 552   0.0000       9.296935       252.9825 
 553   0.0000       9.342867       254.2323 
 554   0.0000       9.394266       255.6310 
 555   0.0000       9.445060       257.0132 
 556   0.0000       9.470840       257.7147 
 557   0.0000       9.499709       258.5002 
 558   0.0000       9.557749       260.0796 
 559   0.0000       9.558922       260.1115 
 560   0.0000       9.598753       261.1954 
 561   0.0000       9.605246       261.3720 
 562   0.0000       9.607239       261.4263 
 563   0.0000       9.721903       264.5464 
 564   0.0000       9.746970       265.2285 
 565   0.0000       9.750772       265.3320 
 566   0.0000       9.754029       265.4206 
 567   0.0000       9.793753       266.5016 
 568   0.0000       9.861473       268.3443 
 569   0.0000       9.933273       270.2981 
 570   0.0000       9.979690       271.5612 
 571   0.0000      10.009354       272.3684 
 572   0.0000      10.047500       273.4064 
 573   0.0000      10.059963       273.7455 
 574   0.0000      10.113325       275.1976 
 575   0.0000      10.289710       279.9973 
 576   0.0000      10.407457       283.2013 
 577   0.0000      10.460897       284.6555 
 578   0.0000      10.533532       286.6320 
 579   0.0000      10.645112       289.6682 
 580   0.0000      11.045894       300.5741 
 581   0.0000      11.346592       308.7565 
 582   0.0000      11.481866       312.4374 
 583   0.0000      11.824913       321.7722 
 584   0.0000      11.848333       322.4095 
 585   0.0000      12.345166       335.9291 
 586   0.0000      12.447632       338.7173 
 587   0.0000      12.624632       343.5337 
 588   0.0000      12.822013       348.9047 
 589   0.0000      12.940406       352.1264 
 590   0.0000      27.608759       751.2725 
 591   0.0000      28.074269       763.9397 
 592   0.0000      28.242576       768.5196 
 593   0.0000      28.523752       776.1708 
 594   0.0000      28.733404       781.8757 
 595   0.0000      28.957534       787.9746 
 596   0.0000      29.191616       794.3443 
 597   0.0000      37.681272      1025.3595 
 598   0.0000     146.683188      3991.4525 
 599   0.0000     147.128018      4003.5569 
 600   0.0000     147.283308      4007.7826 
 601   0.0000     147.539975      4014.7668 
 602   0.0000     147.736806      4020.1229 
 603   0.0000     148.001909      4027.3367 
 604   0.0000     148.269457      4034.6170 
 605   0.0000     196.951183      5359.3141 

                 SPIN DOWN ORBITALS
  NO   OCC          E(Eh)            E(eV) 
   0   1.0000     -14.539442      -395.6383 
   1   1.0000     -10.470525      -284.9175 
   2   1.0000     -10.435662      -283.9688 
   3   1.0000     -10.427494      -283.7465 
   4   1.0000     -10.422297      -283.6051 
   5   1.0000     -10.422251      -283.6039 
   6   1.0000     -10.412482      -283.3380 
   7   1.0000     -10.412440      -283.3369 
   8   1.0000      -1.120343       -30.4861 
   9   1.0000      -1.092110       -29.7178 
  10   1.0000      -0.998894       -27.1813 
  11   1.0000      -0.979099       -26.6426 
  12   1.0000      -0.865467       -23.5505 
  13   1.0000      -0.839701       -22.8494 
  14   1.0000      -0.773089       -21.0368 
  15   1.0000      -0.712798       -19.3962 
  16   1.0000      -0.696318       -18.9478 
  17   1.0000      -0.660206       -17.9651 
  18   1.0000      -0.646509       -17.5924 
  19   1.0000      -0.607334       -16.5264 
  20   1.0000      -0.591245       -16.0886 
  21   1.0000      -0.578241       -15.7347 
  22   1.0000      -0.561165       -15.2701 
  23   1.0000      -0.542043       -14.7497 
  24   1.0000      -0.541101       -14.7241 
  25   1.0000      -0.483162       -13.1475 
  26   0.0000      -0.422945       -11.5089 
  27   0.0000      -0.253070        -6.8864 
  28   0.0000      -0.231109        -6.2888 
  29   0.0000      -0.173698        -4.7266 
  30   0.0000      -0.143442        -3.9033 
  31   0.0000      -0.129515        -3.5243 
  32   0.0000      -0.108496        -2.9523 
  33   0.0000      -0.105170        -2.8618 
  34   0.0000      -0.085037        -2.3140 
  35   0.0000      -0.081547        -2.2190 
  36   0.0000      -0.070770        -1.9258 
  37   0.0000      -0.068873        -1.8741 
  38   0.0000      -0.041277        -1.1232 
  39   0.0000      -0.035074        -0.9544 
  40   0.0000      -0.018562        -0.5051 
  41   0.0000      -0.011048        -0.3006 
  42   0.0000      -0.004608        -0.1254 
  43   0.0000      -0.001316        -0.0358 
  44   0.0000       0.003574         0.0972 
  45   0.0000       0.016002         0.4354 
  46   0.0000       0.036040         0.9807 
  47   0.0000       0.037064         1.0086 
  48   0.0000       0.052006         1.4152 
  49   0.0000       0.059954         1.6314 
  50   0.0000       0.060344         1.6420 
  51   0.0000       0.070859         1.9282 
  52   0.0000       0.071111         1.9350 
  53   0.0000       0.081700         2.2232 
  54   0.0000       0.090691         2.4678 
  55   0.0000       0.104762         2.8507 
  56   0.0000       0.131371         3.5748 
  57   0.0000       0.141773         3.8578 
  58   0.0000       0.144194         3.9237 
  59   0.0000       0.154681         4.2091 
  60   0.0000       0.157736         4.2922 
  61   0.0000       0.158851         4.3226 
  62   0.0000       0.176406         4.8002 
  63   0.0000       0.187138         5.0923 
  64   0.0000       0.200520         5.4564 
  65   0.0000       0.210615         5.7311 
  66   0.0000       0.227302         6.1852 
  67   0.0000       0.230790         6.2801 
  68   0.0000       0.240930         6.5560 
  69   0.0000       0.257149         6.9974 
  70   0.0000       0.257260         7.0004 
  71   0.0000       0.275198         7.4885 
  72   0.0000       0.275559         7.4983 
  73   0.0000       0.282960         7.6997 
  74   0.0000       0.292037         7.9467 
  75   0.0000       0.316975         8.6253 
  76   0.0000       0.319689         8.6992 
  77   0.0000       0.331128         9.0105 
  78   0.0000       0.335278         9.1234 
  79   0.0000       0.337575         9.1859 
  80   0.0000       0.366756         9.9799 
  81   0.0000       0.369147        10.0450 
  82   0.0000       0.377282        10.2664 
  83   0.0000       0.377584        10.2746 
  84   0.0000       0.394891        10.7455 
  85   0.0000       0.422124        11.4866 
  86   0.0000       0.446187        12.1414 
  87   0.0000       0.460751        12.5377 
  88   0.0000       0.467259        12.7148 
  89   0.0000       0.474631        12.9154 
  90   0.0000       0.481812        13.1108 
  91   0.0000       0.492736        13.4080 
  92   0.0000       0.510989        13.9047 
  93   0.0000       0.523103        14.2343 
  94   0.0000       0.525664        14.3040 
  95   0.0000       0.545019        14.8307 
  96   0.0000       0.545486        14.8434 
  97   0.0000       0.548846        14.9349 
  98   0.0000       0.557031        15.1576 
  99   0.0000       0.564603        15.3636 
 100   0.0000       0.569125        15.4867 
 101   0.0000       0.586501        15.9595 
 102   0.0000       0.591337        16.0911 
 103   0.0000       0.624013        16.9803 
 104   0.0000       0.625965        17.0334 
 105   0.0000       0.636716        17.3259 
 106   0.0000       0.642496        17.4832 
 107   0.0000       0.659281        17.9399 
 108   0.0000       0.662235        18.0203 
 109   0.0000       0.687140        18.6980 
 110   0.0000       0.704212        19.1626 
 111   0.0000       0.705174        19.1888 
 112   0.0000       0.706394        19.2220 
 113   0.0000       0.709758        19.3135 
 114   0.0000       0.714321        19.4377 
 115   0.0000       0.715101        19.4589 
 116   0.0000       0.720832        19.6148 
 117   0.0000       0.771850        21.0031 
 118   0.0000       0.773953        21.0603 
 119   0.0000       0.790158        21.5013 
 120   0.0000       0.801627        21.8134 
 121   0.0000       0.804612        21.8946 
 122   0.0000       0.820044        22.3145 
 123   0.0000       0.821479        22.3536 
 124   0.0000       0.834902        22.7188 
 125   0.0000       0.847398        23.0589 
 126   0.0000       0.869831        23.6693 
 127   0.0000       0.873241        23.7621 
 128   0.0000       0.884757        24.0755 
 129   0.0000       0.902367        24.5547 
 130   0.0000       0.908317        24.7166 
 131   0.0000       0.933954        25.4142 
 132   0.0000       0.951312        25.8865 
 133   0.0000       0.963220        26.2106 
 134   0.0000       0.966746        26.3065 
 135   0.0000       0.988996        26.9119 
 136   0.0000       0.992019        26.9942 
 137   0.0000       0.995564        27.0907 
 138   0.0000       1.027569        27.9616 
 139   0.0000       1.043108        28.3844 
 140   0.0000       1.058353        28.7992 
 141   0.0000       1.072607        29.1871 
 142   0.0000       1.076450        29.2917 
 143   0.0000       1.088816        29.6282 
 144   0.0000       1.094091        29.7717 
 145   0.0000       1.148574        31.2543 
 146   0.0000       1.156203        31.4619 
 147   0.0000       1.189717        32.3739 
 148   0.0000       1.198123        32.6026 
 149   0.0000       1.254272        34.1305 
 150   0.0000       1.277211        34.7547 
 151   0.0000       1.290821        35.1250 
 152   0.0000       1.302831        35.4518 
 153   0.0000       1.311217        35.6800 
 154   0.0000       1.340407        36.4743 
 155   0.0000       1.354991        36.8712 
 156   0.0000       1.362029        37.0627 
 157   0.0000       1.383746        37.6536 
 158   0.0000       1.383808        37.6553 
 159   0.0000       1.400400        38.1068 
 160   0.0000       1.424536        38.7636 
 161   0.0000       1.438397        39.1408 
 162   0.0000       1.445906        39.3451 
 163   0.0000       1.452543        39.5257 
 164   0.0000       1.466803        39.9137 
 165   0.0000       1.501074        40.8463 
 166   0.0000       1.503353        40.9083 
 167   0.0000       1.510106        41.0921 
 168   0.0000       1.516106        41.2553 
 169   0.0000       1.547602        42.1124 
 170   0.0000       1.561149        42.4810 
 171   0.0000       1.567723        42.6599 
 172   0.0000       1.573061        42.8052 
 173   0.0000       1.577355        42.9220 
 174   0.0000       1.616429        43.9853 
 175   0.0000       1.623095        44.1667 
 176   0.0000       1.633399        44.4470 
 177   0.0000       1.648541        44.8591 
 178   0.0000       1.660226        45.1771 
 179   0.0000       1.677072        45.6354 
 180   0.0000       1.706645        46.4402 
 181   0.0000       1.713615        46.6298 
 182   0.0000       1.719862        46.7998 
 183   0.0000       1.740143        47.3517 
 184   0.0000       1.740417        47.3592 
 185   0.0000       1.750769        47.6409 
 186   0.0000       1.752908        47.6991 
 187   0.0000       1.758252        47.8445 
 188   0.0000       1.778118        48.3850 
 189   0.0000       1.815558        49.4038 
 190   0.0000       1.815847        49.4117 
 191   0.0000       1.823239        49.6128 
 192   0.0000       1.844364        50.1877 
 193   0.0000       1.856244        50.5110 
 194   0.0000       1.857815        50.5537 
 195   0.0000       1.879932        51.1555 
 196   0.0000       1.894443        51.5504 
 197   0.0000       1.902005        51.7562 
 198   0.0000       1.904674        51.8288 
 199   0.0000       1.917660        52.1822 
 200   0.0000       1.933582        52.6154 
 201   0.0000       1.939860        52.7863 
 202   0.0000       1.979078        53.8535 
 203   0.0000       1.980964        53.9048 
 204   0.0000       1.986905        54.0664 
 205   0.0000       2.005962        54.5850 
 206   0.0000       2.010985        54.7217 
 207   0.0000       2.029337        55.2211 
 208   0.0000       2.037435        55.4414 
 209   0.0000       2.052178        55.8426 
 210   0.0000       2.054154        55.8964 
 211   0.0000       2.074415        56.4477 
 212   0.0000       2.079573        56.5881 
 213   0.0000       2.089790        56.8661 
 214   0.0000       2.122404        57.7535 
 215   0.0000       2.143283        58.3217 
 216   0.0000       2.164818        58.9077 
 217   0.0000       2.171894        59.1002 
 218   0.0000       2.188863        59.5620 
 219   0.0000       2.191052        59.6216 
 220   0.0000       2.208011        60.0830 
 221   0.0000       2.214230        60.2523 
 222   0.0000       2.222643        60.4812 
 223   0.0000       2.231731        60.7285 
 224   0.0000       2.249299        61.2065 
 225   0.0000       2.271745        61.8173 
 226   0.0000       2.277132        61.9639 
 227   0.0000       2.294430        62.4346 
 228   0.0000       2.295118        62.4533 
 229   0.0000       2.305601        62.7386 
 230   0.0000       2.308272        62.8113 
 231   0.0000       2.308688        62.8226 
 232   0.0000       2.347217        63.8710 
 233   0.0000       2.352268        64.0085 
 234   0.0000       2.360697        64.2378 
 235   0.0000       2.378709        64.7280 
 236   0.0000       2.400706        65.3265 
 237   0.0000       2.409676        65.5706 
 238   0.0000       2.419813        65.8464 
 239   0.0000       2.423792        65.9547 
 240   0.0000       2.442237        66.4566 
 241   0.0000       2.444446        66.5167 
 242   0.0000       2.446625        66.5761 
 243   0.0000       2.454356        66.7864 
 244   0.0000       2.459102        66.9156 
 245   0.0000       2.491140        67.7874 
 246   0.0000       2.521462        68.6125 
 247   0.0000       2.524675        68.6999 
 248   0.0000       2.534544        68.9684 
 249   0.0000       2.541156        69.1484 
 250   0.0000       2.564285        69.7777 
 251   0.0000       2.578834        70.1736 
 252   0.0000       2.580689        70.2241 
 253   0.0000       2.581373        70.2427 
 254   0.0000       2.594926        70.6115 
 255   0.0000       2.603197        70.8366 
 256   0.0000       2.621646        71.3386 
 257   0.0000       2.664540        72.5058 
 258   0.0000       2.680710        72.9458 
 259   0.0000       2.707034        73.6621 
 260   0.0000       2.713840        73.8473 
 261   0.0000       2.732353        74.3511 
 262   0.0000       2.771042        75.4039 
 263   0.0000       2.790424        75.9313 
 264   0.0000       2.822407        76.8016 
 265   0.0000       2.841437        77.3194 
 266   0.0000       2.870149        78.1007 
 267   0.0000       2.877064        78.2889 
 268   0.0000       2.885582        78.5207 
 269   0.0000       2.895841        78.7999 
 270   0.0000       2.907332        79.1125 
 271   0.0000       2.915846        79.3442 
 272   0.0000       2.962021        80.6007 
 273   0.0000       2.966774        80.7300 
 274   0.0000       3.007791        81.8462 
 275   0.0000       3.027604        82.3853 
 276   0.0000       3.087881        84.0255 
 277   0.0000       3.117027        84.8186 
 278   0.0000       3.130323        85.1804 
 279   0.0000       3.136623        85.3518 
 280   0.0000       3.143306        85.5337 
 281   0.0000       3.154547        85.8396 
 282   0.0000       3.159312        85.9692 
 283   0.0000       3.188830        86.7725 
 284   0.0000       3.220413        87.6319 
 285   0.0000       3.244265        88.2809 
 286   0.0000       3.250383        88.4474 
 287   0.0000       3.264924        88.8431 
 288   0.0000       3.269795        88.9756 
 289   0.0000       3.304885        89.9305 
 290   0.0000       3.325197        90.4832 
 291   0.0000       3.329697        90.6057 
 292   0.0000       3.332469        90.6811 
 293   0.0000       3.356356        91.3311 
 294   0.0000       3.417816        93.0035 
 295   0.0000       3.440976        93.6337 
 296   0.0000       3.443093        93.6913 
 297   0.0000       3.481781        94.7441 
 298   0.0000       3.488917        94.9383 
 299   0.0000       3.580777        97.4379 
 300   0.0000       3.593057        97.7721 
 301   0.0000       3.643318        99.1397 
 302   0.0000       3.656401        99.4957 
 303   0.0000       3.684435       100.2586 
 304   0.0000       3.689153       100.3870 
 305   0.0000       3.691602       100.4536 
 306   0.0000       3.703669       100.7820 
 307   0.0000       3.768314       102.5410 
 308   0.0000       3.788631       103.0939 
 309   0.0000       3.805351       103.5489 
 310   0.0000       3.818230       103.8993 
 311   0.0000       3.858575       104.9972 
 312   0.0000       3.866600       105.2155 
 313   0.0000       3.891272       105.8869 
 314   0.0000       3.925245       106.8113 
 315   0.0000       3.986623       108.4815 
 316   0.0000       4.042372       109.9985 
 317   0.0000       4.084798       111.1530 
 318   0.0000       4.104720       111.6951 
 319   0.0000       4.213799       114.6633 
 320   0.0000       4.263137       116.0059 
 321   0.0000       4.286280       116.6356 
 322   0.0000       4.313239       117.3692 
 323   0.0000       4.435048       120.6838 
 324   0.0000       4.477720       121.8450 
 325   0.0000       4.495960       122.3413 
 326   0.0000       4.500414       122.4625 
 327   0.0000       4.565816       124.2422 
 328   0.0000       4.566466       124.2599 
 329   0.0000       4.575551       124.5071 
 330   0.0000       4.583195       124.7151 
 331   0.0000       4.609941       125.4429 
 332   0.0000       4.627914       125.9320 
 333   0.0000       4.637613       126.1959 
 334   0.0000       4.690822       127.6438 
 335   0.0000       4.738643       128.9450 
 336   0.0000       4.768165       129.7484 
 337   0.0000       4.789611       130.3319 
 338   0.0000       4.796583       130.5216 
 339   0.0000       4.797352       130.5426 
 340   0.0000       4.813064       130.9701 
 341   0.0000       4.825400       131.3058 
 342   0.0000       4.842961       131.7837 
 343   0.0000       4.874440       132.6403 
 344   0.0000       4.934037       134.2620 
 345   0.0000       4.940532       134.4387 
 346   0.0000       4.950287       134.7041 
 347   0.0000       4.981562       135.5552 
 348   0.0000       4.988916       135.7553 
 349   0.0000       5.001029       136.0849 
 350   0.0000       5.021822       136.6507 
[...]
      f+1     :     0.006749
      f-1     :     0.008016
      f+2     :     0.008814
      f-2     :     0.012949
      f+3     :     0.033978
      f-3     :     0.031100
      g0      :     0.000366  g :     0.011224
      g+1     :     0.000665
      g-1     :     0.001211
      g+2     :     0.001196
      g-2     :     0.001316
      g+3     :     0.000455
      g-3     :     0.000495
      g+4     :     0.002334
      g-4     :     0.003186
  6 C s       :     2.711295  s :     2.711295
      pz      :     0.790331  p :     2.790216
      px      :     0.814932
      py      :     1.184952
      dz2     :     0.056773  d :     0.483888
      dxz     :     0.006947
      dyz     :     0.099492
      dx2y2   :     0.161780
      dxy     :     0.158897
      f0      :     0.013662  f :     0.123188
      f+1     :     0.003277
      f-1     :     0.016424
      f+2     :     0.018323
      f-2     :     0.005139
      f+3     :     0.033881
      f-3     :     0.032482
      g0      :     0.000933  g :     0.025694
      g+1     :     0.000238
      g-1     :     0.004026
      g+2     :     0.001930
      g-2     :     0.001556
      g+3     :     0.001430
      g-3     :     0.001947
      g+4     :     0.007762
      g-4     :     0.005873
  7 H s       :     0.764710  s :     0.764710
      pz      :     0.043230  p :     0.178573
      px      :     0.068354
      py      :     0.066990
      dz2     :     0.004901  d :     0.061645
      dxz     :     0.009179
      dyz     :     0.009258
      dx2y2   :     0.023117
      dxy     :     0.015189
      f0      :     0.000931  f :     0.009092
      f+1     :     0.000647
      f-1     :     0.000589
      f+2     :     0.000029
      f-2     :     0.001556
      f+3     :     0.002743
      f-3     :     0.002598
  8 H s       :     0.769988  s :     0.769988
      pz      :     0.043483  p :     0.179185
      px      :     0.092321
      py      :     0.043381
      dz2     :     0.004868  d :     0.061534
      dxz     :     0.016626
      dyz     :     0.001836
      dx2y2   :     0.017452
      dxy     :     0.020753
      f0      :     0.000933  f :     0.009052
      f+1     :     0.000932
      f-1     :     0.000296
      f+2     :     0.001059
      f-2     :     0.000516
      f+3     :     0.002767
      f-3     :     0.002548
  9 H s       :     0.768043  s :     0.768043
      pz      :     0.033667  p :     0.173753
      px      :     0.043469
      py      :     0.096617
      dz2     :     0.004942  d :     0.059785
      dxz     :     0.001065
      dyz     :     0.014140
      dx2y2   :     0.017179
      dxy     :     0.022460
      f0      :     0.000768  f :     0.008873
      f+1     :     0.000286
      f-1     :     0.000961
      f+2     :     0.001032
      f-2     :     0.000293
      f+3     :     0.002884
      f-3     :     0.002650
 10 H s       :     0.769963  s :     0.769963
      pz      :     0.043488  p :     0.179174
      px      :     0.069875
      py      :     0.065811
      dz2     :     0.004868  d :     0.061530
      dxz     :     0.009383
      dyz     :     0.009082
      dx2y2   :     0.023283
      dxy     :     0.014915
      f0      :     0.000934  f :     0.009050
      f+1     :     0.000638
      f-1     :     0.000590
      f+2     :     0.000024
      f-2     :     0.001551
      f+3     :     0.002760
      f-3     :     0.002553
 11 H s       :     0.764723  s :     0.764723
      pz      :     0.043225  p :     0.178584
      px      :     0.092311
      py      :     0.043048
      dz2     :     0.004902  d :     0.061647
      dxz     :     0.016471
      dyz     :     0.001964
      dx2y2   :     0.017798
      dxy     :     0.020512
      f0      :     0.000931  f :     0.009094
      f+1     :     0.000944
      f-1     :     0.000292
      f+2     :     0.001041
      f-2     :     0.000544
      f+3     :     0.002812
      f-3     :     0.002530
 12 N s       :     3.191664  s :     3.191664
      pz      :     0.815483  p :     3.269143
      px      :     0.994228
      py      :     1.459432
      dz2     :     0.014646  d :     0.139013
      dxz     :     0.002197
      dyz     :     0.037964
      dx2y2   :     0.043305
      dxy     :     0.040902
      f0      :     0.004716  f :     0.038758
      f+1     :     0.000999
      f-1     :     0.004643
      f+2     :     0.006360
      f-2     :     0.001656
      f+3     :     0.010501
      f-3     :     0.009883
      g0      :     0.000313  g :     0.005218
      g+1     :     0.000045
      g-1     :     0.000787
      g+2     :     0.000590
      g-2     :     0.000292
      g+3     :     0.000275
      g-3     :     0.000376
      g+4     :     0.001285
      g-4     :     0.001255

SPIN
  0 C s       :     0.004692  s :     0.004692
      pz      :     0.200297  p :     0.206066
      px      :     0.002284
      py      :     0.003485
      dz2     :    -0.001130  d :    -0.003463
      dxz     :     0.002224
      dyz     :    -0.002311
      dx2y2   :    -0.000801
      dxy     :    -0.001444
      f0      :    -0.001319  f :    -0.000443
      f+1     :    -0.000270
      f-1     :    -0.000253
      f+2     :     0.001546
      f-2     :     0.000672
      f+3     :    -0.000441
      f-3     :    -0.000378
      g0      :    -0.000003  g :    -0.000154
      g+1     :     0.000011
      g-1     :     0.000050
      g+2     :    -0.000017
      g-2     :    -0.000033
      g+3     :    -0.000045
      g-3     :    -0.000062
      g+4     :    -0.000032
      g-4     :    -0.000023
  1 C s       :     0.000134  s :     0.000134
      pz      :     0.035555  p :     0.033072
      px      :    -0.002514
      py      :     0.000031
      dz2     :    -0.000174  d :     0.024100
      dxz     :     0.016586
      dyz     :     0.006964
      dx2y2   :     0.000584
      dxy     :     0.000140
      f0      :     0.000485  f :     0.007938
      f+1     :    -0.000064
      f-1     :    -0.000043
      f+2     :     0.006646
      f-2     :     0.000726
      f+3     :     0.000133
      f-3     :     0.000055
      g0      :    -0.000004  g :     0.000647
      g+1     :     0.000408
      g-1     :     0.000100
      g+2     :    -0.000007
      g-2     :    -0.000007
      g+3     :     0.000081
      g-3     :     0.000049
      g+4     :     0.000018
      g-4     :     0.000009
  2 C s       :    -0.000239  s :    -0.000239
      pz      :     0.020859  p :     0.017924
      px      :    -0.001400
      py      :    -0.001535
      dz2     :    -0.000067  d :     0.031773
      dxz     :     0.006005
      dyz     :     0.024772
      dx2y2   :     0.000139
      dxy     :     0.000923
      f0      :     0.000699  f :     0.008761
      f+1     :    -0.000031
      f-1     :    -0.000044
      f+2     :     0.000779
      f-2     :     0.007113
      f+3     :     0.000074
      f-3     :     0.000172
      g0      :    -0.000004  g :     0.000734
      g+1     :     0.000172
      g-1     :     0.000405
      g+2     :     0.000005
      g-2     :    -0.000017
      g+3     :     0.000045
      g-3     :     0.000094
      g+4     :     0.000010
      g-4     :     0.000025
  3 C s       :     0.004894  s :     0.004894
      pz      :     0.231409  p :     0.237481
      px      :     0.002869
      py      :     0.003203
      dz2     :    -0.001258  d :    -0.002994
      dxz     :     0.000155
      dyz     :    -0.001314
      dx2y2   :    -0.000376
      dxy     :    -0.000202
      f0      :    -0.000858  f :    -0.000720
      f+1     :    -0.000249
      f-1     :    -0.000279
      f+2     :     0.000763
      f-2     :     0.000095
      f+3     :    -0.000076
      f-3     :    -0.000115
      g0      :    -0.000004  g :    -0.000111
      g+1     :    -0.000029
      g-1     :     0.000028
      g+2     :    -0.000019
      g-2     :    -0.000021
      g+3     :    -0.000018
      g-3     :    -0.000024
      g+4     :    -0.000011
      g-4     :    -0.000012
  4 C s       :    -0.000248  s :    -0.000248
      pz      :     0.020507  p :     0.017558
      px      :    -0.002591
      py      :    -0.000358
      dz2     :    -0.000065  d :     0.031827
      dxz     :     0.019471
      dyz     :     0.011357
      dx2y2   :     0.000749
      dxy     :     0.000316
      f0      :     0.000702  f :     0.008778
      f+1     :    -0.000044
      f-1     :    -0.000030
      f+2     :     0.006998
      f-2     :     0.000906
      f+3     :     0.000149
      f-3     :     0.000098
      g0      :    -0.000004  g :     0.000736
      g+1     :     0.000424
      g-1     :     0.000154
      g+2     :    -0.000005
      g-2     :    -0.000007
      g+3     :     0.000075
      g-3     :     0.000064
      g+4     :     0.000021
      g-4     :     0.000014
  5 C s       :     0.000144  s :     0.000144
      pz      :     0.035936  p :     0.033466
      px      :    -0.001189
      py      :    -0.001280
      dz2     :    -0.000177  d :     0.024044
      dxz     :     0.005586
      dyz     :     0.017914
      dx2y2   :    -0.000058
      dxy     :     0.000780
      f0      :     0.000482  f :     0.007920
      f+1     :    -0.000056
      f-1     :    -0.000052
      f+2     :     0.000649
      f-2     :     0.006709
      f+3     :     0.000032
      f-3     :     0.000155
      g0      :    -0.000004  g :     0.000646
      g+1     :     0.000175
      g-1     :     0.000332
      g+2     :     0.000005
      g-2     :    -0.000020
      g+3     :     0.000032
      g-3     :     0.000097
      g+4     :     0.000007
      g-4     :     0.000021
  6 C s       :    -0.003946  s :    -0.003946
      pz      :    -0.027521  p :    -0.046130
      px      :    -0.013826
      py      :    -0.004784
      dz2     :     0.000155  d :     0.081420
      dxz     :     0.004177
      dyz     :     0.072350
      dx2y2   :     0.002378
      dxy     :     0.002360
      f0      :     0.002113  f :     0.007641
      f+1     :     0.000061
      f-1     :    -0.000012
      f+2     :     0.002890
      f-2     :     0.000766
      f+3     :     0.000954
      f-3     :     0.000870
      g0      :    -0.000005  g :     0.005019
      g+1     :     0.000143
      g-1     :     0.002489
      g+2     :    -0.000001
      g-2     :     0.000004
      g+3     :     0.000889
      g-3     :     0.001221
      g+4     :     0.000170
      g-4     :     0.000109
  7 H s       :    -0.000999  s :    -0.000999
      pz      :     0.002463  p :     0.002412
      px      :    -0.000063
      py      :     0.000012
      dz2     :    -0.000007  d :     0.001139
      dxz     :     0.001043
      dyz     :     0.000185
      dx2y2   :    -0.000129
      dxy     :     0.000047
      f0      :     0.000058  f :     0.000153
      f+1     :    -0.000002
      f-1     :    -0.000001
      f+2     :     0.000015
      f-2     :     0.000101
      f+3     :    -0.000014
      f-3     :    -0.000003
  8 H s       :    -0.000564  s :    -0.000564
      pz      :     0.001193  p :     0.000944
      px      :    -0.000022
      py      :    -0.000227
      dz2     :    -0.000006  d :     0.000525
      dxz     :     0.000755
      dyz     :    -0.000100
      dx2y2   :    -0.000027
      dxy     :    -0.000096
      f0      :     0.000029  f :     0.000065
      f+1     :    -0.000001
      f-1     :    -0.000002
      f+2     :     0.000079
      f-2     :    -0.000019
      f+3     :    -0.000008
      f-3     :    -0.000013
  9 H s       :    -0.005581  s :    -0.005581
      pz      :     0.017086  p :     0.019029
      px      :     0.000105
      py      :     0.001839
      dz2     :    -0.000020  d :     0.008099
      dxz     :     0.000415
      dyz     :     0.007189
      dx2y2   :     0.000332
      dxy     :     0.000182
      f0      :     0.000398  f :     0.001134
      f+1     :    -0.000002
      f-1     :    -0.000007
      f+2     :     0.000547
      f-2     :     0.000141
      f+3     :     0.000029
      f-3     :     0.000029
 10 H s       :    -0.000556  s :    -0.000556
      pz      :     0.001165  p :     0.000912
      px      :    -0.000167
      py      :    -0.000085
      dz2     :    -0.000006  d :     0.000511
      dxz     :     0.000739
      dyz     :    -0.000096
      dx2y2   :    -0.000146
      dxy     :     0.000022
      f0      :     0.000028  f :     0.000063
      f+1     :    -0.000002
      f-1     :    -0.000001
      f+2     :     0.000017
      f-2     :     0.000042
      f+3     :    -0.000017
      f-3     :    -0.000004
 11 H s       :    -0.001007  s :    -0.001007
      pz      :     0.002492  p :     0.002445
      px      :     0.000122
      py      :    -0.000169
      dz2     :    -0.000007  d :     0.001153
      dxz     :     0.001316
      dyz     :    -0.000075
      dx2y2   :    -0.000016
      dxy     :    -0.000064
      f0      :     0.000058  f :     0.000155
      f+1     :    -0.000002
      f-1     :    -0.000002
      f+2     :     0.000122
      f-2     :    -0.000005
      f+3     :    -0.000007
      f-3     :    -0.000010
 12 N s       :     0.002441  s :     0.002441
      pz      :     0.220125  p :     0.236341
      px      :     0.015426
      py      :     0.000790
      dz2     :    -0.000058  d :    -0.005566
      dxz     :    -0.000215
      dyz     :    -0.003726
      dx2y2   :    -0.000428
      dxy     :    -0.001139
      f0      :    -0.000634  f :    -0.002015
      f+1     :    -0.000104
      f-1     :    -0.000105
      f+2     :    -0.000553
      f-2     :    -0.000144
      f+3     :    -0.000271
      f-3     :    -0.000204
      g0      :    -0.000003  g :    -0.000202
      g+1     :    -0.000005
      g-1     :    -0.000078
      g+2     :    -0.000007
      g-2     :    -0.000011
      g+3     :    -0.000022
      g-3     :    -0.000030
      g+4     :    -0.000031
      g-4     :    -0.000017


                      *****************************
                      * MAYER POPULATION ANALYSIS *
                      *****************************

  NA   - Mulliken gross atomic population
  ZA   - Total nuclear charge
  QA   - Mulliken gross atomic charge
  VA   - Mayer's total valence
  BVA  - Mayer's bonded valence
  FA   - Mayer's free valence

  ATOM       NA         ZA         QA         VA         BVA        FA
  0 C      5.6835     6.0000     0.3165     3.5553     3.4684     0.0870
  1 C      6.0056     6.0000    -0.0056     3.6660     3.6622     0.0038
  2 C      6.0010     6.0000    -0.0010     3.7822     3.7799     0.0023
  3 C      5.9176     6.0000     0.0824     3.7119     3.6120     0.0999
  4 C      6.0032     6.0000    -0.0032     3.7842     3.7819     0.0023
  5 C      6.0037     6.0000    -0.0037     3.6652     3.6613     0.0039
  6 C      6.0338     6.0000    -0.0338     3.7434     3.7363     0.0070
  7 H      0.8642     1.0000     0.1358     0.9820     0.9820     0.0000
  8 H      0.8754     1.0000     0.1246     0.9882     0.9882     0.0000
  9 H      0.8625     1.0000     0.1375     0.9765     0.9762     0.0003
 10 H      0.8745     1.0000     0.1255     0.9879     0.9879     0.0000
 11 H      0.8646     1.0000     0.1354     0.9820     0.9820     0.0000
 12 N      7.0103     7.0000    -0.0103     2.9271     2.8552     0.0718

  Mayer bond orders larger than 0.100000
B(  0-C ,  1-C ) :   1.0897 B(  0-C ,  5-C ) :   1.0886 B(  0-C ,  6-C ) :   1.0077 
B(  1-C ,  2-C ) :   1.4267 B(  1-C ,  7-H ) :   0.9415 B(  2-C ,  3-C ) :   1.1874 
B(  2-C ,  8-H ) :   0.9491 B(  3-C ,  4-C ) :   1.1884 B(  3-C ,  9-H ) :   0.9438 
B(  4-C ,  5-C ) :   1.4272 B(  4-C , 10-H ) :   0.9493 B(  5-C , 11-H ) :   0.9414 
B(  6-C , 12-N ) :   2.6531 

-------
TIMINGS
-------

Total SCF time: 0 days 1 hours 24 min 15 sec 

Total time                  ....    5055.983 sec
Sum of individual times     ....    4966.989 sec  ( 98.2%)

Fock matrix formation       ....    4876.601 sec  ( 96.5%)
  Split-RI-J                ....     232.929 sec  (  4.8% of F)
  Chain of spheres X        ....    3616.916 sec  ( 74.2% of F)
  XC integration            ....     841.088 sec  ( 17.2% of F)
    Basis function eval.    ....      86.028 sec  ( 10.2% of XC)
    Density eval.           ....     296.822 sec  ( 35.3% of XC)
    XC-Functional eval.     ....       8.192 sec  (  1.0% of XC)
    XC-Potential eval.      ....     333.460 sec  ( 39.6% of XC)
Diagonalization             ....      21.918 sec  (  0.4%)
Density matrix formation    ....       1.226 sec  (  0.0%)
Population analysis         ....       3.059 sec  (  0.1%)
Initial guess               ....      17.031 sec  (  0.3%)
Orbital Transformation      ....       0.000 sec  (  0.0%)
Orbital Orthonormalization  ....       0.000 sec  (  0.0%)
DIIS solution               ....       9.197 sec  (  0.2%)
Grid generation             ....      37.957 sec  (  0.8%)

Maximum memory used throughout the entire SCF-calculation: 657.3 MB

-------------------------   --------------------
FINAL SINGLE POINT ENERGY      -324.086375534136
-------------------------   --------------------


                            ***************************************
                            *     ORCA property calculations      *
                            ***************************************

                                    ---------------------
                                    Active property flags
                                    ---------------------
   (+) Dipole Moment


------------------------------------------------------------------------------
                       ORCA ELECTRIC PROPERTIES CALCULATION
------------------------------------------------------------------------------

Dipole Moment Calculation                       ... on
Quadrupole Moment Calculation                   ... off
Polarizability Calculation                      ... off
GBWName                                         ... kation.gbw
Electron density                                ... kation.scfp
The origin for moment calculation is the CENTER OF MASS  = (-12.250812,  0.842082 -0.000011)

-------------
DIPOLE MOMENT
-------------
                                X             Y             Z
Electronic contribution:      0.99669       4.17705      -0.00006
Nuclear contribution   :     -1.46091      -6.11812       0.00009
                        -----------------------------------------
Total Dipole Moment    :     -0.46422      -1.94107       0.00003
                        -----------------------------------------
Magnitude (a.u.)       :      1.99581
Magnitude (Debye)      :      5.07294



--------------------
Rotational spectrum 
--------------------
 
Rotational constants in cm-1:     0.187863     0.051251     0.040266 
Rotational constants in MHz :  5631.980927  1536.463194  1207.142200 

 Dipole components along the rotational axes: 
x,y,z [a.u.] :    -1.995810    -0.000323    -0.000002 
x,y,z [Debye]:    -5.072945    -0.000820    -0.000005 

 

Timings for individual modules:

Sum of individual times         ...     5073.502 sec (=  84.558 min)
GTO integral calculation        ...       15.710 sec (=   0.262 min)   0.3 %
SCF iterations                  ...     5057.792 sec (=  84.297 min)  99.7 %
                             ****ORCA TERMINATED NORMALLY****
TOTAL RUN TIME: 0 days 1 hours 24 minutes 37 seconds 320 msec
