
                                 *****************
                                 * O   R   C   A *
                                 *****************

                                            #,                                       
                                            ###                                      
                                            ####                                     
                                            #####                                    
                                            ######                                   
                                           ########,                                 
                                     ,,################,,,,,                         
                               ,,#################################,,                 
                          ,,##########################################,,             
                       ,#########################################, ''#####,          
                    ,#############################################,,   '####,        
                  ,##################################################,,,,####,       
                ,###########''''           ''''###############################       
              ,#####''   ,,,,##########,,,,          '''####'''          '####       
            ,##' ,,,,###########################,,,                        '##       
           ' ,,###''''                  '''############,,,                           
         ,,##''                                '''############,,,,        ,,,,,,###''
      ,#''                                            '''#######################'''  
     '                                                          ''''####''''         
             ,#######,   #######,   ,#######,      ##                                
            ,#'     '#,  ##    ##  ,#'     '#,    #''#        ######   ,####,        
            ##       ##  ##   ,#'  ##            #'  '#       #        #'  '#        
            ##       ##  #######   ##           ,######,      #####,   #    #        
            '#,     ,#'  ##    ##  '#,     ,#' ,#      #,         ##   #,  ,#        
             '#######'   ##     ##  '#######'  #'      '#     #####' # '####'        



                  #######################################################
                  #                        -***-                        #
                  #          Department of theory and spectroscopy      #
                  #    Directorship and core code : Frank Neese         #
                  #        Max Planck Institute fuer Kohlenforschung    #
                  #                Kaiser Wilhelm Platz 1               #
                  #                 D-45470 Muelheim/Ruhr               #
                  #                      Germany                        #
                  #                                                     #
                  #                  All rights reserved                #
                  #                        -***-                        #
                  #######################################################



                         Program Version 5.0.4 -  RELEASE  -

 With contributions from (in alphabetic order):
   Daniel Aravena         : Magnetic Suceptibility
   Michael Atanasov       : Ab Initio Ligand Field Theory (pilot matlab implementation)
   Alexander A. Auer      : GIAO ZORA, VPT2 properties, NMR spectrum
   Ute Becker             : Parallelization
   Giovanni Bistoni       : ED, misc. LED, open-shell LED, HFLD
   Martin Brehm           : Molecular dynamics
   Dmytro Bykov           : SCF Hessian
   Vijay G. Chilkuri      : MRCI spin determinant printing, contributions to CSF-ICE
   Dipayan Datta          : RHF DLPNO-CCSD density
   Achintya Kumar Dutta   : EOM-CC, STEOM-CC
   Dmitry Ganyushin       : Spin-Orbit,Spin-Spin,Magnetic field MRCI
   Miquel Garcia          : C-PCM and meta-GGA Hessian, CC/C-PCM, Gaussian charge scheme
   Yang Guo               : DLPNO-NEVPT2, F12-NEVPT2, CIM, IAO-localization
   Andreas Hansen         : Spin unrestricted coupled pair/coupled cluster methods
   Benjamin Helmich-Paris : MC-RPA, TRAH-SCF, COSX integrals
   Lee Huntington         : MR-EOM, pCC
   Robert Izsak           : Overlap fitted RIJCOSX, COSX-SCS-MP3, EOM
   Marcus Kettner         : VPT2
   Christian Kollmar      : KDIIS, OOCD, Brueckner-CCSD(T), CCSD density, CASPT2, CASPT2-K
   Simone Kossmann        : Meta GGA functionals, TD-DFT gradient, OOMP2, MP2 Hessian
   Martin Krupicka        : Initial AUTO-CI
   Lucas Lang             : DCDCAS
   Marvin Lechner         : AUTO-CI (C++ implementation), FIC-MRCC
   Dagmar Lenk            : GEPOL surface, SMD
   Dimitrios Liakos       : Extrapolation schemes; Compound Job, initial MDCI parallelization
   Dimitrios Manganas     : Further ROCIS development; embedding schemes
   Dimitrios Pantazis     : SARC Basis sets
   Anastasios Papadopoulos: AUTO-CI, single reference methods and gradients
   Taras Petrenko         : DFT Hessian,TD-DFT gradient, ASA, ECA, R-Raman, ABS, FL, XAS/XES, NRVS
   Peter Pinski           : DLPNO-MP2, DLPNO-MP2 Gradient
   Christoph Reimann      : Effective Core Potentials
   Marius Retegan         : Local ZFS, SOC
   Christoph Riplinger    : Optimizer, TS searches, QM/MM, DLPNO-CCSD(T), (RO)-DLPNO pert. Triples
   Tobias Risthaus        : Range-separated hybrids, TD-DFT gradient, RPA, STAB
   Michael Roemelt        : Original ROCIS implementation
   Masaaki Saitow         : Open-shell DLPNO-CCSD energy and density
   Barbara Sandhoefer     : DKH picture change effects
   Avijit Sen             : IP-ROCIS
   Kantharuban Sivalingam : CASSCF convergence, NEVPT2, FIC-MRCI
   Bernardo de Souza      : ESD, SOC TD-DFT
   Georgi Stoychev        : AutoAux, RI-MP2 NMR, DLPNO-MP2 response
   Willem Van den Heuvel  : Paramagnetic NMR
   Boris Wezisla          : Elementary symmetry handling
   Frank Wennmohs         : Technical directorship


 We gratefully acknowledge several colleagues who have allowed us to
 interface, adapt or use parts of their codes:
   Stefan Grimme, W. Hujo, H. Kruse, P. Pracht,  : VdW corrections, initial TS optimization,
                  C. Bannwarth, S. Ehlert          DFT functionals, gCP, sTDA/sTD-DF
   Ed Valeev, F. Pavosevic, A. Kumar             : LibInt (2-el integral package), F12 methods
   Garnet Chan, S. Sharma, J. Yang, R. Olivares  : DMRG
   Ulf Ekstrom                                   : XCFun DFT Library
   Mihaly Kallay                                 : mrcc  (arbitrary order and MRCC methods)
   Jiri Pittner, Ondrej Demel                    : Mk-CCSD
   Frank Weinhold                                : gennbo (NPA and NBO analysis)
   Christopher J. Cramer and Donald G. Truhlar   : smd solvation model
   Lars Goerigk                                  : TD-DFT with DH, B97 family of functionals
   V. Asgeirsson, H. Jonsson                     : NEB implementation
   FAccTs GmbH                                   : IRC, NEB, NEB-TS, DLPNO-Multilevel, CI-OPT
                                                   MM, QMMM, 2- and 3-layer-ONIOM, Crystal-QMMM,
                                                   LR-CPCM, SF, NACMEs, symmetry and pop. for TD-DFT,
                                                   nearIR, NL-DFT gradient (VV10), updates on ESD,
                                                   ML-optimized integration grids
   S Lehtola, MJT Oliveira, MAL Marques          : LibXC Library
   Liviu Ungur et al                             : ANISO software


 Your calculation uses the libint2 library for the computation of 2-el integrals
 For citations please refer to: http://libint.valeyev.net

 Your ORCA version has been built with support for libXC version: 5.1.0
 For citations please refer to: https://tddft.org/programs/libxc/

 This ORCA versions uses:
   CBLAS   interface :  Fast vector & matrix operations
   LAPACKE interface :  Fast linear algebra routines
   Shared memory     :  Shared parallel matrices


Your calculation utilizes the atom-pairwise dispersion correction
based on tight binding partial charges (D4)
Cite in your paper:
E.Caldeweyher, C.Bannwarth, S.Grimme, J.Chem.Phys., (2017), 147, 034112.
E.Caldeweyher, S.Ehlert, A.Hansen, H.Neugebauer, S.Grimme, J.Chem.Phys., (2018), in progress.
   

================================================================================

----- Orbital basis set information -----
Your calculation utilizes the basis: def2-QZVPP
   F. Weigend and R. Ahlrichs, Phys. Chem. Chem. Phys. 7, 3297 (2005).

----- AuxJ basis set information -----
Your calculation utilizes the auxiliary basis: def2/J
   F. Weigend, Phys. Chem. Chem. Phys. 8, 1057 (2006).

================================================================================
                                        WARNINGS
                       Please study these warnings very carefully!
================================================================================


INFO   : the flag for use of the SHARK integral package has been found!

================================================================================
                                       INPUT FILE
================================================================================
NAME = fukui_neutral.inp
|  1> !B3LYP DEF2-QZVPP D4 KEEPDENS
|  2> 
|  3> %scf
|  4> convergence tight
|  5> end
|  6> 
|  7> * xyz 0 1
|  8>   C   -6.19125178160671      1.04578685059177     -0.00000001686577
|  9>   C   -7.37580530487043      0.28825949786031     -0.00000001284834
| 10>   C   -7.33908756893839     -1.10768545106982     -0.00000002576604
| 11>   C   -6.11117938173447     -1.77931819998824      0.00000000290657
| 12>   C   -4.92566072561635     -1.04047352586861      0.00000000533049
| 13>   C   -4.96819058552413      0.35823228576941     -0.00000003398085
| 14>   C   -6.24553993017456      2.55508248967342      0.00000000413099
| 15>   H   -5.23843039862032      2.99755933811265     -0.00000003012539
| 16>   H   -6.78052773252599      2.93791704488256      0.88605739423795
| 17>   H   -6.78052780177066      2.93791706461754     -0.88605733399821
| 18>   H   -8.34213499717683      0.80297272229397      0.00000000580428
| 19>   H   -8.27370961744022     -1.67571619441028     -0.00000001783878
| 20>   H   -6.08022998864363     -2.87249607540980      0.00000001903164
| 21>   H   -3.95993407210113     -1.55389094986220      0.00000004701981
| 22>   H   -4.03307011325617      0.92683310280730     -0.00000000703837
| 23> **                         ****END OF INPUT****
================================================================================

                       ****************************
                       * Single Point Calculation *
                       ****************************

---------------------------------
CARTESIAN COORDINATES (ANGSTROEM)
---------------------------------
  C     -6.191252    1.045787   -0.000000
  C     -7.375805    0.288259   -0.000000
  C     -7.339088   -1.107685   -0.000000
  C     -6.111179   -1.779318    0.000000
  C     -4.925661   -1.040474    0.000000
  C     -4.968191    0.358232   -0.000000
  C     -6.245540    2.555082    0.000000
  H     -5.238430    2.997559   -0.000000
  H     -6.780528    2.937917    0.886057
  H     -6.780528    2.937917   -0.886057
  H     -8.342135    0.802973    0.000000
  H     -8.273710   -1.675716   -0.000000
  H     -6.080230   -2.872496    0.000000
  H     -3.959934   -1.553891    0.000000
  H     -4.033070    0.926833   -0.000000

----------------------------
CARTESIAN COORDINATES (A.U.)
----------------------------
  NO LB      ZA    FRAG     MASS         X           Y           Z
   0 C     6.0000    0    12.011  -11.699770    1.976251   -0.000000
   1 C     6.0000    0    12.011  -13.938252    0.544732   -0.000000
   2 C     6.0000    0    12.011  -13.868866   -2.093222   -0.000000
   3 C     6.0000    0    12.011  -11.548455   -3.362424    0.000000
   4 C     6.0000    0    12.011   -9.308150   -1.966210    0.000000
   5 C     6.0000    0    12.011   -9.388520    0.676961   -0.000000
   6 C     6.0000    0    12.011  -11.802360    4.828406    0.000000
   7 H     1.0000    0     1.008   -9.899199    5.664566   -0.000000
   8 H     1.0000    0     1.008  -12.813340    5.551859    1.674406
   9 H     1.0000    0     1.008  -12.813341    5.551859   -1.674406
  10 H     1.0000    0     1.008  -15.764351    1.517399    0.000000
  11 H     1.0000    0     1.008  -15.635045   -3.166645   -0.000000
  12 H     1.0000    0     1.008  -11.489970   -5.428231    0.000000
  13 H     1.0000    0     1.008   -7.483191   -2.936428    0.000000
  14 H     1.0000    0     1.008   -7.621398    1.751461   -0.000000

--------------------------------
INTERNAL COORDINATES (ANGSTROEM)
--------------------------------
 C      0   0   0     0.000000000000     0.00000000     0.00000000
 C      1   0   0     1.406063561726     0.00000000     0.00000000
 C      2   1   0     1.396427761317   121.09238803     0.00000000
 C      3   2   1     1.399588891647   120.18418459     0.00000000
 C      4   3   2     1.396905843813   119.39034129     0.00000000
 C      5   4   3     1.399352256043   120.19055357     0.00000000
 C      1   2   3     1.510271673980   120.53910459   180.00000085
 H      7   1   2     1.100025167872   111.65844665   180.00000171
 H      7   1   2     1.103572355530   111.35260172    59.55028730
 H      7   1   2     1.103572354212   111.35260161   300.44971583
 H      2   1   3     1.094861990225   119.35900951   179.99999915
 H      3   2   1     1.093698906887   119.78306606   180.00000000
 H      4   3   2     1.093615897948   120.29916346   179.99999852
 H      5   4   3     1.093720906159   120.07098490   179.99999915
 H      6   5   4     1.094420936747   119.56009722   179.99999852

---------------------------
INTERNAL COORDINATES (A.U.)
---------------------------
 C      0   0   0     0.000000000000     0.00000000     0.00000000
 C      1   0   0     2.657075058547     0.00000000     0.00000000
 C      2   1   0     2.638866034693   121.09238803     0.00000000
 C      3   2   1     2.644839705292   120.18418459     0.00000000
 C      4   3   2     2.639769479681   119.39034129     0.00000000
 C      5   4   3     2.644392528807   120.19055357     0.00000000
 C      1   2   3     2.853999851641   120.53910459   180.00000085
 H      7   1   2     2.078746307699   111.65844665   180.00000171
 H      7   1   2     2.085449520918   111.35260172    59.55028730
 H      7   1   2     2.085449518427   111.35260161   300.44971583
 H      2   1   3     2.068989315966   119.35900951   179.99999915
 H      3   2   1     2.066791406985   119.78306606   180.00000000
 H      4   3   2     2.066634542823   120.29916346   179.99999852
 H      5   4   3     2.066832979585   120.07098490   179.99999915
 H      6   5   4     2.068155845682   119.56009722   179.99999852

---------------------
BASIS SET INFORMATION
---------------------
There are 2 groups of distinct atoms

 Group   1 Type C   : 15s8p3d2f1g contracted to 7s4p3d2f1g pattern {8211111/5111/111/11/1}
 Group   2 Type H   : 7s3p2d1f contracted to 4s3p2d1f pattern {4111/111/11/1}

Atom   0C    basis set group =>   1
Atom   1C    basis set group =>   1
Atom   2C    basis set group =>   1
Atom   3C    basis set group =>   1
Atom   4C    basis set group =>   1
Atom   5C    basis set group =>   1
Atom   6C    basis set group =>   1
Atom   7H    basis set group =>   2
Atom   8H    basis set group =>   2
Atom   9H    basis set group =>   2
Atom  10H    basis set group =>   2
Atom  11H    basis set group =>   2
Atom  12H    basis set group =>   2
Atom  13H    basis set group =>   2
Atom  14H    basis set group =>   2
---------------------------------
AUXILIARY/J BASIS SET INFORMATION
---------------------------------
There are 2 groups of distinct atoms

 Group   1 Type C   : 12s5p4d2f1g contracted to 6s4p3d1f1g pattern {711111/2111/211/2/1}
 Group   2 Type H   : 5s2p1d contracted to 3s1p1d pattern {311/2/1}

Atom   0C    basis set group =>   1
Atom   1C    basis set group =>   1
Atom   2C    basis set group =>   1
Atom   3C    basis set group =>   1
Atom   4C    basis set group =>   1
Atom   5C    basis set group =>   1
Atom   6C    basis set group =>   1
Atom   7H    basis set group =>   2
Atom   8H    basis set group =>   2
Atom   9H    basis set group =>   2
Atom  10H    basis set group =>   2
Atom  11H    basis set group =>   2
Atom  12H    basis set group =>   2
Atom  13H    basis set group =>   2
Atom  14H    basis set group =>   2
------------------------------------------------------------------------------
                           ORCA GTO INTEGRAL CALCULATION
                           -- RI-GTO INTEGRALS CHOSEN --
------------------------------------------------------------------------------
------------------------------------------------------------------------------
                   ___                                                        
                  /   \      - P O W E R E D   B Y -                         
                 /     \                                                     
                 |  |  |   _    _      __       _____    __    __             
                 |  |  |  | |  | |    /  \     |  _  \  |  |  /  |          
                  \  \/   | |  | |   /    \    | | | |  |  | /  /          
                 / \  \   | |__| |  /  /\  \   | |_| |  |  |/  /          
                |  |  |   |  __  | /  /__\  \  |    /   |      \           
                |  |  |   | |  | | |   __   |  |    \   |  |\   \          
                \     /   | |  | | |  |  |  |  | |\  \  |  | \   \       
                 \___/    |_|  |_| |__|  |__|  |_| \__\ |__|  \__/        
                                                                              
                      - O R C A' S   B I G   F R I E N D -                    
                                      &                                       
                       - I N T E G R A L  F E E D E R -                       
                                                                              
 v1 FN, 2020, v2 2021                                                         
------------------------------------------------------------------------------


Reading SHARK input file fukui_neutral.SHARKINP.tmp ... ok
----------------------
SHARK INTEGRAL PACKAGE
----------------------

Number of atoms                             ...     15
Number of basis functions                   ...    639
Number of shells                            ...    199
Maximum angular momentum                    ...      4
Integral batch strategy                     ... SHARK/LIBINT Hybrid
RI-J (if used) integral strategy            ... SPLIT-RIJ (Revised 2003 algorithm where possible)
Printlevel                                  ...      1
Contraction scheme used                     ... SEGMENTED contraction
Coulomb Range Separation                    ... NOT USED
Exchange Range Separation                   ... NOT USED
Finite Nucleus Model                        ... NOT USED
Auxiliary Coulomb fitting basis             ... AVAILABLE
   # of basis functions in Aux-J            ...    431
   # of shells in Aux-J                     ...    145
   Maximum angular momentum in Aux-J        ...      4
Auxiliary J/K fitting basis                 ... NOT available
Auxiliary Correlation fitting basis         ... NOT available
Auxiliary 'external' fitting basis          ... NOT available
Integral threshold                          ...     2.500000e-11
Primitive cut-off                           ...     2.500000e-12
Primitive pair pre-selection threshold      ...     2.500000e-12

Calculating pre-screening integrals         ... done (  2.2 sec) Dimension = 199
Organizing shell pair data                  ... done (  2.2 sec)
Shell pair information
Total number of shell pairs                 ...     19900
Shell pairs after pre-screening             ...     17252
Total number of primitive shell pairs       ...     47599
Primitive shell pairs kept                  ...     32350
          la=0 lb=0:   2734 shell pairs
          la=1 lb=0:   3708 shell pairs
          la=1 lb=1:   1264 shell pairs
          la=2 lb=0:   2527 shell pairs
          la=2 lb=1:   1716 shell pairs
          la=2 lb=2:    599 shell pairs
          la=3 lb=0:   1502 shell pairs
          la=3 lb=1:   1015 shell pairs
          la=3 lb=2:    698 shell pairs
          la=3 lb=3:    217 shell pairs
          la=4 lb=0:    524 shell pairs
          la=4 lb=1:    338 shell pairs
          la=4 lb=2:    239 shell pairs
          la=4 lb=3:    143 shell pairs
          la=4 lb=4:     28 shell pairs

Calculating one electron integrals          ... done (  1.2 sec)
Calculating RI/J V-Matrix + Cholesky decomp.... done (  0.1 sec)
Calculating Nuclear repulsion               ... done (  0.1 sec) ENN=    268.040360244222 Eh

SHARK setup successfully completed in   9.9 seconds

Maximum memory used throughout the entire GTOINT-calculation: 555.6 MB
-------------------------------------------------------------------------------
                                 ORCA SCF
-------------------------------------------------------------------------------

------------
SCF SETTINGS
------------
Hamiltonian:
 Density Functional     Method          .... DFT(GTOs)
 Exchange Functional    Exchange        .... B88
   X-Alpha parameter    XAlpha          ....  0.666667
   Becke's b parameter  XBeta           ....  0.004200
 Correlation Functional Correlation     .... LYP
 LDA part of GGA corr.  LDAOpt          .... VWN-5
 Gradients option       PostSCFGGA      .... off
 Hybrid DFT is turned on
   Fraction HF Exchange ScalHFX         ....  0.200000
   Scaling of DF-GGA-X  ScalDFX         ....  0.720000
   Scaling of DF-GGA-C  ScalDFC         ....  0.810000
   Scaling of DF-LDA-C  ScalLDAC        ....  1.000000
   Perturbative correction              ....  0.000000
   Density functional embedding theory  .... OFF
   NL short-range parameter             ....  4.800000
 RI-approximation to the Coulomb term is turned on
   Number of AuxJ basis functions       .... 431
   RIJ-COSX (HFX calculated with COS-X)).... on


General Settings:
 Integral files         IntName         .... fukui_neutral
 Hartree-Fock type      HFTyp           .... RHF
 Total Charge           Charge          ....    0
 Multiplicity           Mult            ....    1
 Number of Electrons    NEL             ....   50
 Basis Dimension        Dim             ....  639
 Nuclear Repulsion      ENuc            ....    268.0403602442 Eh

Convergence Acceleration:
 DIIS                   CNVDIIS         .... on
   Start iteration      DIISMaxIt       ....    12
   Startup error        DIISStart       ....  0.200000
   # of expansion vecs  DIISMaxEq       ....     5
   Bias factor          DIISBfac        ....   1.050
   Max. coefficient     DIISMaxC        ....  10.000
 Trust-Rad. Augm. Hess. CNVTRAH         .... auto
   Auto Start mean grad. ratio tolernc. ....  1.125000
   Auto Start start iteration           ....    20
   Auto Start num. interpolation iter.  ....    10
   Max. Number of Micro iterations      ....    16
   Max. Number of Macro iterations      .... Maxiter - #DIIS iter
   Number of Davidson start vectors     ....     2
   Converg. threshold I  (grad. norm)   ....   1.000e-05
   Converg. threshold II (energy diff.) ....   1.000e-08
   Grad. Scal. Fac. for Micro threshold ....   0.100
   Minimum threshold for Micro iter.    ....   0.010
   NR start threshold (gradient norm)   ....   0.001
   Initial trust radius                 ....   0.400
   Minimum AH scaling param. (alpha)    ....   1.000
   Maximum AH scaling param. (alpha)    .... 1000.000
   Orbital update algorithm             .... Taylor
   White noise on init. David. guess    .... on
   Maximum white noise                  ....   0.010
   Quad. conv. algorithm                .... NR
 SOSCF                  CNVSOSCF        .... on
   Start iteration      SOSCFMaxIt      ....   150
   Startup grad/error   SOSCFStart      ....  0.003300
 Level Shifting         CNVShift        .... on
   Level shift para.    LevelShift      ....    0.2500
   Turn off err/grad.   ShiftErr        ....    0.0010
 Zerner damping         CNVZerner       .... off
 Static damping         CNVDamp         .... on
   Fraction old density DampFac         ....    0.7000
   Max. Damping (<1)    DampMax         ....    0.9800
   Min. Damping (>=0)   DampMin         ....    0.0000
   Turn off err/grad.   DampErr         ....    0.1000
 Fernandez-Rico         CNVRico         .... off

SCF Procedure:
 Maximum # iterations   MaxIter         ....   125
 SCF integral mode      SCFMode         .... Direct
   Integral package                     .... SHARK and LIBINT hybrid scheme
 Reset frequency        DirectResetFreq ....    20
 Integral Threshold     Thresh          ....  2.500e-11 Eh
 Primitive CutOff       TCut            ....  2.500e-12 Eh

Convergence Tolerance:
 Convergence Check Mode ConvCheckMode   .... Total+1el-Energy
 Convergence forced     ConvForced      .... 0
 Energy Change          TolE            ....  1.000e-08 Eh
 1-El. energy change                    ....  1.000e-05 Eh
 Orbital Gradient       TolG            ....  1.000e-05
 Orbital Rotation angle TolX            ....  1.000e-05
 DIIS Error             TolErr          ....  5.000e-07


Diagonalization of the overlap matrix:
Smallest eigenvalue                        ... 6.900e-06
Time for diagonalization                   ...    1.061 sec
Threshold for overlap eigenvalues          ... 1.000e-08
Number of eigenvalues below threshold      ... 0
Time for construction of square roots      ...    0.203 sec
Total time needed                          ...    1.266 sec

Time for model grid setup =    2.669 sec

------------------------------
INITIAL GUESS: MODEL POTENTIAL
------------------------------
Loading Hartree-Fock densities                     ... done
Calculating cut-offs                               ... done
Initializing the effective Hamiltonian             ... done
Setting up the integral package (SHARK)            ... done
Starting the Coulomb interaction                   ... done (   6.5 sec)
Reading the grid                                   ... done
Mapping shells                                     ... done
Starting the XC term evaluation                    ... done (   7.1 sec)
  promolecular density results
     # of electrons  =     49.996646362
     EX              =    -38.330213214
     EC              =     -1.632952127
     EX+EC           =    -39.963165341
Transforming the Hamiltonian                       ... done (   0.1 sec)
Diagonalizing the Hamiltonian                      ... done (   0.3 sec)
Back transforming the eigenvectors                 ... done (   0.1 sec)
Now organizing SCF variables                       ... done
                      ------------------
                      INITIAL GUESS DONE (  16.9 sec)
                      ------------------
-------------------
DFT GRID GENERATION
-------------------

General Integration Accuracy     IntAcc      ... 4.388
Radial Grid Type                 RadialGrid  ... OptM3 with GC (2021)
Angular Grid (max. ang.)         AngularGrid ... 4 (Lebedev-302)
Angular grid pruning method      GridPruning ... 4 (adaptive)
Weight generation scheme         WeightScheme... Becke
Basis function cutoff            BFCut       ... 1.0000e-11
Integration weight cutoff        WCut        ... 1.0000e-14
Angular grids for H and He will be reduced by one unit
Partially contracted basis set               ... off
Rotationally invariant grid construction     ... off

Total number of grid points                  ...    69702
Total number of batches                      ...     1095
Average number of points per batch           ...       63
Average number of grid points per atom       ...     4647
Time for grid setup =    5.559 sec

--------------------
COSX GRID GENERATION
--------------------

GRIDX 1
-------
General Integration Accuracy     IntAcc      ... 3.816
Radial Grid Type                 RadialGrid  ... OptM3 with GC (2021)
Angular Grid (max. ang.)         AngularGrid ... 1 (Lebedev-50)
Angular grid pruning method      GridPruning ... 4 (adaptive)
Weight generation scheme         WeightScheme... Becke
Basis function cutoff            BFCut       ... 1.0000e-11
Integration weight cutoff        WCut        ... 1.0000e-14
Angular grids for H and He will be reduced by one unit
Partially contracted basis set               ... on
Rotationally invariant grid construction     ... off

Total number of grid points                  ...     8954
Total number of batches                      ...      149
Average number of points per batch           ...       60
Average number of grid points per atom       ...      597
UseSFitting                                  ... on

GRIDX 2
-------
General Integration Accuracy     IntAcc      ... 4.020
Radial Grid Type                 RadialGrid  ... OptM3 with GC (2021)
Angular Grid (max. ang.)         AngularGrid ... 2 (Lebedev-110)
Angular grid pruning method      GridPruning ... 4 (adaptive)
Weight generation scheme         WeightScheme... Becke
Basis function cutoff            BFCut       ... 1.0000e-11
Integration weight cutoff        WCut        ... 1.0000e-14
Angular grids for H and He will be reduced by one unit
Partially contracted basis set               ... on
Rotationally invariant grid construction     ... off

Total number of grid points                  ...    20811
Total number of batches                      ...      332
Average number of points per batch           ...       62
Average number of grid points per atom       ...     1387
UseSFitting                                  ... on

GRIDX 3
-------
General Integration Accuracy     IntAcc      ... 4.338
Radial Grid Type                 RadialGrid  ... OptM3 with GC (2021)
Angular Grid (max. ang.)         AngularGrid ... 3 (Lebedev-194)
Angular grid pruning method      GridPruning ... 4 (adaptive)
Weight generation scheme         WeightScheme... Becke
Basis function cutoff            BFCut       ... 1.0000e-11
Integration weight cutoff        WCut        ... 1.0000e-14
Angular grids for H and He will be reduced by one unit
Partially contracted basis set               ... on
Rotationally invariant grid construction     ... off

Total number of grid points                  ...    45080
Total number of batches                      ...      713
Average number of points per batch           ...       63
Average number of grid points per atom       ...     3005
UseSFitting                                  ... on

Time for X-Grid setup             =   11.273 sec

--------------
SCF ITERATIONS
--------------
ITER       Energy         Delta-E        Max-DP      RMS-DP      [F,P]     Damp
               ***  Starting incremental Fock matrix formation  ***
  0   -271.2990432233   0.000000000000 0.02223099  0.00026540  0.2058558 0.7000
  1   -271.3924536152  -0.093410391907 0.01374248  0.00020014  0.1067706 0.7000
                               ***Turning on DIIS***
  2   -271.4323207470  -0.039867131751 0.01938406  0.00036092  0.0411831 0.0000
  3   -271.4871895872  -0.054868840244 0.01192672  0.00014281  0.0561975 0.0000
  4   -271.5036852283  -0.016495641091 0.00301700  0.00004446  0.0097852 0.0000
                      *** Initiating the SOSCF procedure ***
                           *** Shutting down DIIS ***
                      *** Re-Reading the Fockian *** 
                      *** Removing any level shift *** 
ITER      Energy       Delta-E        Grad      Rot      Max-DP    RMS-DP
  5   -271.50440590  -0.0007206743  0.000789  0.000789  0.001558  0.000021
               *** Restarting incremental Fock matrix formation ***
  6   -271.50444871  -0.0000428059  0.000265  0.001012  0.001696  0.000022
  7   -271.50444904  -0.0000003294  0.000409  0.000731  0.000410  0.000005
  8   -271.50445298  -0.0000039382  0.000123  0.000320  0.000291  0.000004
  9   -271.50445281   0.0000001620  0.000134  0.000161  0.000115  0.000001
 10   -271.50445332  -0.0000005081  0.000010  0.000025  0.000049  0.000001
 11   -271.50445332   0.0000000048  0.000011  0.000013  0.000017  0.000000
                  ***Gradient check signals convergence***
              ***Rediagonalizing the Fockian in SOSCF/NRSCF***

               *****************************************************
               *                     SUCCESS                       *
               *           SCF CONVERGED AFTER  12 CYCLES          *
               *****************************************************

Old exchange energy                            =     -7.814132756 Eh
New exchange energy                            =     -7.814129410 Eh
Exchange energy change after final integration =      0.000003345 Eh
Total energy after final integration           =   -271.504449972 Eh
Final COS-X integration done in                =   357.062 sec

----------------
TOTAL SCF ENERGY
----------------

Total Energy       :         -271.50444997 Eh           -7388.01168 eV

Components:
Nuclear Repulsion  :          268.04036024 Eh            7293.74901 eV
Electronic Energy  :         -539.54481022 Eh          -14681.76069 eV
One Electron Energy:         -895.34023778 Eh          -24363.44648 eV
Two Electron Energy:          355.79542757 Eh            9681.68579 eV
Max COSX asymmetry :            0.00000093 Eh               0.00003 eV

Virial components:
Potential Energy   :         -541.49968761 Eh          -14734.95561 eV
Kinetic Energy     :          269.99523764 Eh            7346.94393 eV
Virial Ratio       :            2.00558977


DFT components:
N(Alpha)           :       25.000005392743 electrons
N(Beta)            :       25.000005392743 electrons
N(Total)           :       50.000010785485 electrons
E(X)               :      -31.026800682818 Eh       
E(C)               :       -1.937895614176 Eh       
E(XC)              :      -32.964696296994 Eh       
DFET-embed. en.    :        0.000000000000 Eh       

---------------
SCF CONVERGENCE
---------------

  Last Energy change         ...   -1.4876e-10  Tolerance :   1.0000e-08
  Last MAX-Density change    ...    9.9920e-16  Tolerance :   1.0000e-07
  Last RMS-Density change    ...    5.6219e-18  Tolerance :   5.0000e-09
  Last Orbital Gradient      ...    1.6432e-06  Tolerance :   1.0000e-05
  Last Orbital Rotation      ...    3.1710e-06  Tolerance :   1.0000e-05

             **** THE GBW FILE WAS UPDATED (fukui_neutral.gbw) ****
             **** DENSITY fukui_neutral.scfp WAS UPDATED ****
             **** ENERGY FILE WAS UPDATED (fukui_neutral.en.tmp) ****
             **** THE GBW FILE WAS UPDATED (fukui_neutral.gbw) ****
             **** DENSITY fukui_neutral.scfp WAS UPDATED ****
----------------
ORBITAL ENERGIES
----------------

  NO   OCC          E(Eh)            E(eV) 
   0   2.0000     -10.186559      -277.1904 
   1   2.0000     -10.177025      -276.9309 
   2   2.0000     -10.176712      -276.9224 
   3   2.0000     -10.174735      -276.8686 
   4   2.0000     -10.174488      -276.8619 
   5   2.0000     -10.174295      -276.8566 
   6   2.0000     -10.172041      -276.7953 
   7   2.0000      -0.852849       -23.2072 
   8   2.0000      -0.768737       -20.9184 
   9   2.0000      -0.741147       -20.1676 
  10   2.0000      -0.682336       -18.5673 
  11   2.0000      -0.601815       -16.3762 
  12   2.0000      -0.581264       -15.8170 
  13   2.0000      -0.508016       -13.8238 
  14   2.0000      -0.458523       -12.4770 
  15   2.0000      -0.451702       -12.2914 
  16   2.0000      -0.418720       -11.3940 
  17   2.0000      -0.417177       -11.3520 
  18   2.0000      -0.407172       -11.0797 
  19   2.0000      -0.383826       -10.4444 
  20   2.0000      -0.355024        -9.6607 
  21   2.0000      -0.342049        -9.3076 
  22   2.0000      -0.337991        -9.1972 
  23   2.0000      -0.253260        -6.8915 
  24   2.0000      -0.244067        -6.6414 
  25   0.0000      -0.015025        -0.4088 
  26   0.0000      -0.009901        -0.2694 
  27   0.0000       0.023442         0.6379 
  28   0.0000       0.036622         0.9965 
  29   0.0000       0.046615         1.2685 
  30   0.0000       0.067095         1.8257 
  31   0.0000       0.076278         2.0756 
  32   0.0000       0.085121         2.3162 
  33   0.0000       0.090903         2.4736 
  34   0.0000       0.096012         2.6126 
  35   0.0000       0.118780         3.2322 
  36   0.0000       0.120002         3.2654 
  37   0.0000       0.137247         3.7347 
  38   0.0000       0.140292         3.8175 
  39   0.0000       0.148171         4.0319 
  40   0.0000       0.152167         4.1407 
  41   0.0000       0.171236         4.6596 
  42   0.0000       0.172853         4.7036 
  43   0.0000       0.179587         4.8868 
  44   0.0000       0.197760         5.3813 
  45   0.0000       0.197932         5.3860 
  46   0.0000       0.219344         5.9687 
  47   0.0000       0.237475         6.4620 
  48   0.0000       0.248384         6.7589 
  49   0.0000       0.253797         6.9062 
  50   0.0000       0.263266         7.1638 
  51   0.0000       0.269022         7.3205 
  52   0.0000       0.281948         7.6722 
  53   0.0000       0.285565         7.7706 
  54   0.0000       0.292536         7.9603 
  55   0.0000       0.293478         7.9859 
  56   0.0000       0.299037         8.1372 
  57   0.0000       0.305776         8.3206 
  58   0.0000       0.314284         8.5521 
  59   0.0000       0.331061         9.0086 
  60   0.0000       0.332104         9.0370 
  61   0.0000       0.342165         9.3108 
  62   0.0000       0.345458         9.4004 
  63   0.0000       0.353048         9.6069 
  64   0.0000       0.366480         9.9724 
  65   0.0000       0.369410        10.0522 
  66   0.0000       0.394516        10.7353 
  67   0.0000       0.411286        11.1917 
  68   0.0000       0.426506        11.6058 
  69   0.0000       0.430501        11.7145 
  70   0.0000       0.449073        12.2199 
  71   0.0000       0.461985        12.5712 
  72   0.0000       0.484884        13.1944 
  73   0.0000       0.487637        13.2693 
  74   0.0000       0.497309        13.5325 
  75   0.0000       0.514153        13.9908 
  76   0.0000       0.516765        14.0619 
  77   0.0000       0.530624        14.4390 
  78   0.0000       0.533965        14.5299 
  79   0.0000       0.537412        14.6237 
  80   0.0000       0.566292        15.4096 
  81   0.0000       0.575585        15.6625 
  82   0.0000       0.586199        15.9513 
  83   0.0000       0.595947        16.2165 
  84   0.0000       0.621101        16.9010 
  85   0.0000       0.630786        17.1646 
  86   0.0000       0.635349        17.2887 
  87   0.0000       0.643965        17.5232 
  88   0.0000       0.662207        18.0196 
  89   0.0000       0.666765        18.1436 
  90   0.0000       0.677512        18.4360 
  91   0.0000       0.692393        18.8410 
  92   0.0000       0.707349        19.2480 
  93   0.0000       0.710999        19.3473 
  94   0.0000       0.725020        19.7288 
  95   0.0000       0.738097        20.0846 
  96   0.0000       0.740130        20.1400 
  97   0.0000       0.760925        20.7058 
  98   0.0000       0.761626        20.7249 
  99   0.0000       0.763745        20.7826 
 100   0.0000       0.765553        20.8318 
 101   0.0000       0.767482        20.8842 
 102   0.0000       0.809079        22.0162 
 103   0.0000       0.817154        22.2359 
 104   0.0000       0.822689        22.3865 
 105   0.0000       0.824529        22.4366 
 106   0.0000       0.826839        22.4994 
 107   0.0000       0.830436        22.5973 
 108   0.0000       0.851616        23.1737 
 109   0.0000       0.867685        23.6109 
 110   0.0000       0.883198        24.0330 
 111   0.0000       0.893777        24.3209 
 112   0.0000       0.896593        24.3975 
 113   0.0000       0.904882        24.6231 
 114   0.0000       0.913330        24.8530 
 115   0.0000       0.916540        24.9403 
 116   0.0000       0.927182        25.2299 
 117   0.0000       0.928994        25.2792 
 118   0.0000       0.947865        25.7927 
 119   0.0000       0.977719        26.6051 
 120   0.0000       0.986881        26.8544 
 121   0.0000       0.988856        26.9082 
 122   0.0000       1.010373        27.4936 
 123   0.0000       1.013824        27.5875 
 124   0.0000       1.023090        27.8397 
 125   0.0000       1.024028        27.8652 
 126   0.0000       1.032177        28.0870 
 127   0.0000       1.054031        28.6817 
 128   0.0000       1.059179        28.8217 
 129   0.0000       1.059949        28.8427 
 130   0.0000       1.082714        29.4622 
 131   0.0000       1.085651        29.5421 
 132   0.0000       1.113068        30.2881 
 133   0.0000       1.117628        30.4122 
 134   0.0000       1.125907        30.6375 
 135   0.0000       1.130237        30.7553 
 136   0.0000       1.145501        31.1707 
 137   0.0000       1.165515        31.7153 
 138   0.0000       1.186612        32.2894 
 139   0.0000       1.222716        33.2718 
 140   0.0000       1.230046        33.4713 
 141   0.0000       1.250127        34.0177 
 142   0.0000       1.254075        34.1251 
 143   0.0000       1.254658        34.1410 
 144   0.0000       1.275698        34.7135 
 145   0.0000       1.299488        35.3609 
 146   0.0000       1.307953        35.5912 
 147   0.0000       1.329579        36.1797 
 148   0.0000       1.351078        36.7647 
 149   0.0000       1.361753        37.0552 
 150   0.0000       1.400754        38.1165 
 151   0.0000       1.416685        38.5500 
 152   0.0000       1.434035        39.0221 
 153   0.0000       1.443715        39.2855 
 154   0.0000       1.472187        40.0602 
 155   0.0000       1.509907        41.0867 
 156   0.0000       1.535859        41.7929 
 157   0.0000       1.545457        42.0540 
 158   0.0000       1.570664        42.7399 
 159   0.0000       1.593055        43.3492 
 160   0.0000       1.601777        43.5866 
 161   0.0000       1.633074        44.4382 
 162   0.0000       1.633075        44.4382 
 163   0.0000       1.651717        44.9455 
 164   0.0000       1.669133        45.4194 
 165   0.0000       1.698454        46.2173 
 166   0.0000       1.702699        46.3328 
 167   0.0000       1.728828        47.0438 
 168   0.0000       1.739772        47.3416 
 169   0.0000       1.754669        47.7470 
 170   0.0000       1.763138        47.9774 
 171   0.0000       1.789938        48.7067 
 172   0.0000       1.790518        48.7225 
 173   0.0000       1.800472        48.9933 
 174   0.0000       1.803874        49.0859 
 175   0.0000       1.823671        49.6246 
 176   0.0000       1.828683        49.7610 
 177   0.0000       1.858531        50.5732 
 178   0.0000       1.862444        50.6797 
 179   0.0000       1.892721        51.5036 
 180   0.0000       1.893937        51.5367 
 181   0.0000       1.910735        51.9937 
 182   0.0000       1.913182        52.0603 
 183   0.0000       1.931811        52.5673 
 184   0.0000       1.936123        52.6846 
 185   0.0000       1.953025        53.1445 
 186   0.0000       1.960626        53.3513 
 187   0.0000       1.961408        53.3726 
 188   0.0000       1.979566        53.8667 
 189   0.0000       1.994896        54.2839 
 190   0.0000       2.001975        54.4765 
 191   0.0000       2.013279        54.7841 
 192   0.0000       2.026499        55.1438 
 193   0.0000       2.043231        55.5991 
 194   0.0000       2.060027        56.0562 
 195   0.0000       2.063550        56.1520 
 196   0.0000       2.068703        56.2923 
 197   0.0000       2.082585        56.6700 
 198   0.0000       2.083023        56.6819 
 199   0.0000       2.111858        57.4666 
 200   0.0000       2.119691        57.6797 
 201   0.0000       2.125157        57.8284 
 202   0.0000       2.128490        57.9192 
 203   0.0000       2.130349        57.9698 
 204   0.0000       2.151000        58.5317 
 205   0.0000       2.162906        58.8557 
 206   0.0000       2.184085        59.4320 
 207   0.0000       2.191258        59.6272 
 208   0.0000       2.193535        59.6891 
 209   0.0000       2.208504        60.0965 
 210   0.0000       2.217677        60.3461 
 211   0.0000       2.250958        61.2517 
 212   0.0000       2.259353        61.4801 
 213   0.0000       2.267238        61.6947 
 214   0.0000       2.276590        61.9492 
 215   0.0000       2.283039        62.1246 
 216   0.0000       2.286766        62.2261 
 217   0.0000       2.298269        62.5391 
 218   0.0000       2.310608        62.8749 
 219   0.0000       2.330875        63.4263 
 220   0.0000       2.336481        63.5789 
 221   0.0000       2.367458        64.4218 
 222   0.0000       2.385943        64.9248 
 223   0.0000       2.393478        65.1298 
 224   0.0000       2.395795        65.1929 
 225   0.0000       2.427257        66.0490 
 226   0.0000       2.429798        66.1182 
 227   0.0000       2.448237        66.6199 
 228   0.0000       2.453684        66.7681 
 229   0.0000       2.461136        66.9709 
 230   0.0000       2.465682        67.0946 
 231   0.0000       2.496225        67.9257 
 232   0.0000       2.496313        67.9281 
 233   0.0000       2.509116        68.2765 
 234   0.0000       2.513209        68.3879 
 235   0.0000       2.540650        69.1346 
 236   0.0000       2.546328        69.2891 
 237   0.0000       2.553786        69.4921 
 238   0.0000       2.566695        69.8433 
 239   0.0000       2.577002        70.1238 
 240   0.0000       2.585687        70.3601 
 241   0.0000       2.595540        70.6282 
 242   0.0000       2.608938        70.9928 
 243   0.0000       2.610360        71.0315 
 244   0.0000       2.615390        71.1684 
 245   0.0000       2.632674        71.6387 
 246   0.0000       2.645012        71.9744 
 247   0.0000       2.646336        72.0105 
 248   0.0000       2.650609        72.1267 
 249   0.0000       2.680531        72.9410 
 250   0.0000       2.698180        73.4212 
 251   0.0000       2.705585        73.6227 
 252   0.0000       2.723235        74.1030 
 253   0.0000       2.730582        74.3029 
 254   0.0000       2.745424        74.7068 
 255   0.0000       2.754474        74.9531 
 256   0.0000       2.757555        75.0369 
 257   0.0000       2.784018        75.7570 
 258   0.0000       2.794656        76.0464 
 259   0.0000       2.804674        76.3191 
 260   0.0000       2.817943        76.6801 
 261   0.0000       2.823087        76.8201 
 262   0.0000       2.838336        77.2350 
 263   0.0000       2.843275        77.3694 
 264   0.0000       2.860717        77.8441 
 265   0.0000       2.884632        78.4948 
 266   0.0000       2.887795        78.5809 
 267   0.0000       2.932066        79.7856 
 268   0.0000       2.945638        80.1549 
 269   0.0000       2.946077        80.1668 
 270   0.0000       2.964626        80.6716 
 271   0.0000       3.000600        81.6505 
 272   0.0000       3.006296        81.8055 
 273   0.0000       3.041300        82.7580 
 274   0.0000       3.045033        82.8596 
 275   0.0000       3.081322        83.8470 
 276   0.0000       3.100018        84.3558 
 277   0.0000       3.101741        84.4027 
 278   0.0000       3.127837        85.1128 
 279   0.0000       3.151482        85.7562 
 280   0.0000       3.155273        85.8594 
 281   0.0000       3.180160        86.5366 
 282   0.0000       3.189796        86.7988 
 283   0.0000       3.205588        87.2285 
 284   0.0000       3.235622        88.0458 
 285   0.0000       3.262681        88.7821 
 286   0.0000       3.287725        89.4635 
 287   0.0000       3.305079        89.9358 
 288   0.0000       3.306451        89.9731 
 289   0.0000       3.342158        90.9447 
 290   0.0000       3.359638        91.4204 
 291   0.0000       3.365529        91.5807 
 292   0.0000       3.366026        91.5942 
 293   0.0000       3.412747        92.8656 
 294   0.0000       3.427525        93.2677 
 295   0.0000       3.433600        93.4330 
 296   0.0000       3.445776        93.7643 
 297   0.0000       3.452994        93.9607 
 298   0.0000       3.456908        94.0673 
 299   0.0000       3.488712        94.9327 
 300   0.0000       3.488859        94.9367 
 301   0.0000       3.506221        95.4091 
 302   0.0000       3.525113        95.9232 
 303   0.0000       3.563445        96.9663 
 304   0.0000       3.571120        97.1751 
 305   0.0000       3.594833        97.8204 
 306   0.0000       3.606395        98.1350 
 307   0.0000       3.639406        99.0333 
 308   0.0000       3.680332       100.1469 
 309   0.0000       3.687345       100.3378 
 310   0.0000       3.772530       102.6558 
 311   0.0000       3.788464       103.0894 
 312   0.0000       3.797728       103.3414 
 313   0.0000       3.804305       103.5204 
 314   0.0000       3.841777       104.5401 
 315   0.0000       3.856287       104.9349 
 316   0.0000       3.868157       105.2579 
 317   0.0000       3.884147       105.6930 
 318   0.0000       3.920852       106.6918 
 319   0.0000       3.959146       107.7338 
 320   0.0000       4.054498       110.3285 
 321   0.0000       4.075996       110.9135 
 322   0.0000       4.078311       110.9765 
 323   0.0000       4.120364       112.1208 
 324   0.0000       4.127801       112.3232 
 325   0.0000       4.141881       112.7063 
 326   0.0000       4.163000       113.2810 
 327   0.0000       4.202811       114.3643 
 328   0.0000       4.268133       116.1418 
 329   0.0000       4.325779       117.7104 
 330   0.0000       4.345963       118.2597 
 331   0.0000       4.402093       119.7870 
 332   0.0000       4.484744       122.0361 
 333   0.0000       4.513249       122.8117 
 334   0.0000       4.564928       124.2180 
 335   0.0000       4.569534       124.3433 
 336   0.0000       4.679206       127.3277 
 337   0.0000       4.705418       128.0409 
 338   0.0000       4.749791       129.2484 
 339   0.0000       4.766028       129.6902 
 340   0.0000       4.789398       130.3262 
 341   0.0000       4.851128       132.0059 
 342   0.0000       4.874133       132.6319 
 343   0.0000       4.898221       133.2874 
 344   0.0000       4.934005       134.2611 
 345   0.0000       4.998830       136.0251 
 346   0.0000       5.027784       136.8129 
 347   0.0000       5.037607       137.0803 
 348   0.0000       5.062647       137.7616 
 349   0.0000       5.085675       138.3882 
 350   0.0000       5.105292       138.9221 
 351   0.0000       5.105679       138.9326 
 352   0.0000       5.136507       139.7715 
 353   0.0000       5.157123       140.3325 
 354   0.0000       5.187143       141.1493 
 355   0.0000       5.212102       141.8285 
 356   0.0000       5.228514       142.2751 
 357   0.0000       5.243344       142.6787 
 358   0.0000       5.243685       142.6879 
 359   0.0000       5.255671       143.0141 
 360   0.0000       5.293928       144.0551 
 361   0.0000       5.359173       145.8305 
 362   0.0000       5.364939       145.9874 
 363   0.0000       5.380950       146.4231 
 364   0.0000       5.386432       146.5723 
 365   0.0000       5.392573       146.7394 
 366   0.0000       5.402240       147.0024 
 367   0.0000       5.454483       148.4240 
 368   0.0000       5.457435       148.5044 
 369   0.0000       5.482946       149.1985 
 370   0.0000       5.503464       149.7569 
 371   0.0000       5.507066       149.8549 
 372   0.0000       5.520227       150.2130 
 373   0.0000       5.545141       150.8909 
 374   0.0000       5.553723       151.1245 
 375   0.0000       5.573082       151.6513 
 376   0.0000       5.616785       152.8405 
 377   0.0000       5.636046       153.3646 
 378   0.0000       5.671732       154.3357 
 379   0.0000       5.685708       154.7160 
 380   0.0000       5.719181       155.6268 
 381   0.0000       5.740728       156.2131 
 382   0.0000       5.762862       156.8155 
 383   0.0000       5.785305       157.4262 
 384   0.0000       5.801392       157.8639 
 385   0.0000       5.818802       158.3377 
 386   0.0000       5.821216       158.4033 
 387   0.0000       5.822783       158.4460 
 388   0.0000       5.852995       159.2681 
 389   0.0000       5.858336       159.4134 
 390   0.0000       5.890037       160.2760 
 391   0.0000       5.891631       160.3194 
 392   0.0000       5.902471       160.6144 
 393   0.0000       5.919703       161.0833 
 394   0.0000       5.928434       161.3209 
 395   0.0000       5.941099       161.6655 
 396   0.0000       5.948793       161.8749 
 397   0.0000       5.972694       162.5253 
 398   0.0000       5.978410       162.6808 
 399   0.0000       5.990798       163.0179 
 400   0.0000       6.002413       163.3340 
 401   0.0000       6.011750       163.5880 
 402   0.0000       6.027015       164.0034 
 403   0.0000       6.034993       164.2205 
 404   0.0000       6.041460       164.3965 
 405   0.0000       6.058373       164.8567 
 406   0.0000       6.062227       164.9616 
 407   0.0000       6.092599       165.7881 
 408   0.0000       6.095340       165.8626 
 409   0.0000       6.107399       166.1908 
 410   0.0000       6.121206       166.5665 
 411   0.0000       6.123774       166.6364 
 412   0.0000       6.131110       166.8360 
 413   0.0000       6.150876       167.3739 
 414   0.0000       6.157733       167.5604 
 415   0.0000       6.161262       167.6565 
 416   0.0000       6.187564       168.3722 
 417   0.0000       6.208817       168.9505 
 418   0.0000       6.217367       169.1832 
 419   0.0000       6.223479       169.3495 
 420   0.0000       6.236564       169.7055 
 421   0.0000       6.248413       170.0280 
 422   0.0000       6.269018       170.5887 
 423   0.0000       6.276530       170.7931 
 424   0.0000       6.281495       170.9282 
 425   0.0000       6.294903       171.2930 
 426   0.0000       6.299521       171.4187 
 427   0.0000       6.306650       171.6127 
 428   0.0000       6.324674       172.1031 
 429   0.0000       6.339838       172.5158 
 430   0.0000       6.349392       172.7757 
 431   0.0000       6.359952       173.0631 
 432   0.0000       6.394599       174.0059 
 433   0.0000       6.417808       174.6374 
 434   0.0000       6.423336       174.7879 
 435   0.0000       6.427173       174.8923 
 436   0.0000       6.443324       175.3318 
 437   0.0000       6.456067       175.6785 
 438   0.0000       6.462564       175.8553 
 439   0.0000       6.469925       176.0556 
 440   0.0000       6.508142       177.0955 
 441   0.0000       6.510701       177.1652 
 442   0.0000       6.523558       177.5150 
 443   0.0000       6.574550       178.9026 
 444   0.0000       6.575646       178.9324 
 445   0.0000       6.593689       179.4234 
 446   0.0000       6.597084       179.5158 
 447   0.0000       6.613169       179.9535 
 448   0.0000       6.621566       180.1820 
 449   0.0000       6.629843       180.4072 
 450   0.0000       6.643689       180.7840 
 451   0.0000       6.658959       181.1995 
 452   0.0000       6.672096       181.5570 
 453   0.0000       6.687280       181.9701 
 454   0.0000       6.691378       182.0817 
 455   0.0000       6.720633       182.8777 
 456   0.0000       6.723697       182.9611 
 457   0.0000       6.729396       183.1162 
 458   0.0000       6.733353       183.2238 
 459   0.0000       6.757382       183.8777 
 460   0.0000       6.763533       184.0451 
 461   0.0000       6.826329       185.7538 
 462   0.0000       6.834071       185.9645 
 463   0.0000       6.839865       186.1222 
 464   0.0000       6.903963       187.8664 
 465   0.0000       6.914617       188.1563 
 466   0.0000       6.940384       188.8575 
 467   0.0000       6.950373       189.1293 
 468   0.0000       6.961026       189.4191 
 469   0.0000       6.998517       190.4393 
 470   0.0000       7.021126       191.0545 
 471   0.0000       7.030848       191.3191 
 472   0.0000       7.032254       191.3574 
 473   0.0000       7.057212       192.0365 
 474   0.0000       7.076378       192.5580 
 475   0.0000       7.104990       193.3366 
 476   0.0000       7.142599       194.3600 
 477   0.0000       7.170201       195.1111 
 478   0.0000       7.179093       195.3530 
 479   0.0000       7.186705       195.5602 
 480   0.0000       7.247812       197.2230 
 481   0.0000       7.307015       198.8340 
 482   0.0000       7.316732       199.0984 
 483   0.0000       7.338755       199.6977 
 484   0.0000       7.354987       200.1394 
 485   0.0000       7.384887       200.9530 
 486   0.0000       7.392488       201.1598 
 487   0.0000       7.393451       201.1860 
 488   0.0000       7.419019       201.8818 
 489   0.0000       7.431177       202.2126 
 490   0.0000       7.457632       202.9325 
 491   0.0000       7.457749       202.9357 
 492   0.0000       7.468683       203.2332 
 493   0.0000       7.483753       203.6433 
 494   0.0000       7.511102       204.3875 
 495   0.0000       7.521552       204.6718 
 496   0.0000       7.528582       204.8631 
 497   0.0000       7.536084       205.0673 
 498   0.0000       7.568191       205.9410 
 499   0.0000       7.607453       207.0093 
 500   0.0000       7.625261       207.4939 
 501   0.0000       7.627164       207.5457 
 502   0.0000       7.641627       207.9393 
 503   0.0000       7.657745       208.3778 
 504   0.0000       7.674752       208.8406 
 505   0.0000       7.707847       209.7412 
 506   0.0000       7.723990       210.1805 
 507   0.0000       7.737212       210.5402 
 508   0.0000       7.741646       210.6609 
 509   0.0000       7.753676       210.9883 
 510   0.0000       7.776123       211.5991 
 511   0.0000       7.816473       212.6970 
 512   0.0000       7.844961       213.4722 
 513   0.0000       7.879731       214.4184 
 514   0.0000       7.899869       214.9664 
 515   0.0000       7.900603       214.9863 
 516   0.0000       7.920550       215.5291 
 517   0.0000       7.935548       215.9372 
 518   0.0000       7.937798       215.9985 
 519   0.0000       7.965753       216.7592 
 520   0.0000       7.981063       217.1758 
 521   0.0000       7.982959       217.2273 
 522   0.0000       8.043866       218.8847 
 523   0.0000       8.068157       219.5457 
 524   0.0000       8.084801       219.9986 
 525   0.0000       8.106952       220.6014 
 526   0.0000       8.122367       221.0208 
 527   0.0000       8.132103       221.2858 
 528   0.0000       8.150679       221.7913 
 529   0.0000       8.156137       221.9398 
 530   0.0000       8.196843       223.0475 
 531   0.0000       8.215866       223.5651 
 532   0.0000       8.237470       224.1530 
 533   0.0000       8.245590       224.3739 
 534   0.0000       8.258247       224.7183 
 535   0.0000       8.265021       224.9027 
 536   0.0000       8.279568       225.2985 
 537   0.0000       8.292129       225.6403 
 538   0.0000       8.308347       226.0816 
 539   0.0000       8.320835       226.4214 
 540   0.0000       8.331536       226.7126 
 541   0.0000       8.351087       227.2446 
 542   0.0000       8.359299       227.4681 
 543   0.0000       8.364234       227.6024 
 544   0.0000       8.374253       227.8750 
 545   0.0000       8.374557       227.8833 
 546   0.0000       8.393668       228.4033 
 547   0.0000       8.395371       228.4497 
 548   0.0000       8.399797       228.5701 
 549   0.0000       8.407564       228.7815 
 550   0.0000       8.421988       229.1739 
 551   0.0000       8.478328       230.7070 
 552   0.0000       8.484814       230.8835 
 553   0.0000       8.507581       231.5031 
 554   0.0000       8.514199       231.6831 
 555   0.0000       8.514993       231.7047 
 556   0.0000       8.546140       232.5523 
 557   0.0000       8.570254       233.2085 
 558   0.0000       8.604970       234.1531 
 559   0.0000       8.616162       234.4577 
 560   0.0000       8.642104       235.1636 
 561   0.0000       8.656636       235.5590 
 562   0.0000       8.663774       235.7533 
 563   0.0000       8.673571       236.0199 
 564   0.0000       8.720823       237.3057 
 565   0.0000       8.755191       238.2408 
 566   0.0000       8.778379       238.8718 
 567   0.0000       8.812076       239.7888 
 568   0.0000       8.819542       239.9919 
 569   0.0000       8.832486       240.3442 
 570   0.0000       8.868258       241.3176 
 571   0.0000       8.897617       242.1165 
 572   0.0000       8.925950       242.8874 
 573   0.0000       8.928996       242.9703 
 574   0.0000       8.956991       243.7321 
 575   0.0000       8.964420       243.9343 
 576   0.0000       9.032374       245.7834 
 577   0.0000       9.053079       246.3468 
 578   0.0000       9.070466       246.8199 
 579   0.0000       9.134114       248.5519 
 580   0.0000       9.345172       254.2951 
 581   0.0000       9.429887       256.6003 
 582   0.0000       9.457801       257.3598 
 583   0.0000       9.467857       257.6335 
 584   0.0000       9.532630       259.3961 
 585   0.0000       9.627081       261.9662 
 586   0.0000       9.634326       262.1633 
 587   0.0000       9.664817       262.9930 
 588   0.0000       9.664875       262.9946 
 589   0.0000       9.706873       264.1374 
 590   0.0000       9.726547       264.6728 
 591   0.0000       9.774833       265.9867 
 592   0.0000       9.776695       266.0374 
 593   0.0000       9.802252       266.7328 
 594   0.0000       9.823179       267.3023 
 595   0.0000       9.855340       268.1774 
 596   0.0000       9.875154       268.7166 
 597   0.0000       9.891253       269.1547 
 598   0.0000       9.953546       270.8497 
 599   0.0000       9.981854       271.6201 
 600   0.0000      10.006527       272.2914 
 601   0.0000      10.046760       273.3862 
 602   0.0000      10.073166       274.1048 
 603   0.0000      10.106136       275.0019 
 604   0.0000      10.202943       277.6362 
 605   0.0000      10.205966       277.7185 
 606   0.0000      10.240816       278.6668 
 607   0.0000      10.260191       279.1940 
 608   0.0000      10.303469       280.3717 
 609   0.0000      10.374802       282.3127 
 610   0.0000      10.431878       283.8658 
 611   0.0000      10.514499       286.1141 
 612   0.0000      10.658964       290.0452 
 613   0.0000      10.668499       290.3046 
 614   0.0000      10.742534       292.3192 
 615   0.0000      10.900037       296.6051 
 616   0.0000      11.604285       315.7686 
 617   0.0000      11.856017       322.6186 
 618   0.0000      12.070635       328.4587 
 619   0.0000      12.211613       332.2949 
 620   0.0000      12.574514       342.1699 
 621   0.0000      12.678043       344.9871 
 622   0.0000      12.842479       349.4616 
 623   0.0000      13.108850       356.7100 
 624   0.0000      13.215872       359.6222 
 625   0.0000      27.912959       759.5502 
 626   0.0000      28.404721       772.9318 
 627   0.0000      28.497095       775.4454 
 628   0.0000      28.816401       784.1341 
 629   0.0000      28.972295       788.3762 
 630   0.0000      29.065674       790.9172 
 631   0.0000      29.290447       797.0336 
 632   0.0000     146.989398      3999.7849 
 633   0.0000     147.458283      4012.5439 
 634   0.0000     147.539396      4014.7511 
 635   0.0000     147.824720      4022.5151 
 636   0.0000     147.975978      4026.6311 
 637   0.0000     148.119697      4030.5419 
 638   0.0000     148.319879      4035.9891 

                    ********************************
                    * MULLIKEN POPULATION ANALYSIS *
                    ********************************

-----------------------
MULLIKEN ATOMIC CHARGES
-----------------------
   0 C :    0.122186
   1 C :   -0.094047
   2 C :   -0.088911
   3 C :   -0.048178
   4 C :   -0.086102
   5 C :   -0.102031
   6 C :   -0.123641
   7 H :    0.044048
   8 H :    0.054355
   9 H :    0.054324
  10 H :    0.052862
  11 H :    0.057098
  12 H :    0.054684
  13 H :    0.055621
  14 H :    0.047731
Sum of atomic charges:    0.0000000

--------------------------------
MULLIKEN REDUCED ORBITAL CHARGES
--------------------------------
  0 C s       :     3.325427  s :     3.325427
      pz      :     0.901031  p :     2.375124
      px      :     0.709388
      py      :     0.764705
      dz2     :     0.000949  d :     0.153188
      dxz     :     0.033336
      dyz     :     0.023114
      dx2y2   :     0.056725
      dxy     :     0.039064
      f0      :     0.002352  f :     0.022548
      f+1     :     0.000564
      f-1     :     0.000828
      f+2     :     0.001920
      f-2     :     0.003328
      f+3     :     0.011172
      f-3     :     0.002385
      g0      :     0.000056  g :     0.001527
      g+1     :     0.000154
      g-1     :     0.000126
      g+2     :     0.000114
      g-2     :     0.000097
      g+3     :     0.000007
      g-3     :     0.000228
      g+4     :     0.000364
      g-4     :     0.000382
  1 C s       :     3.363720  s :     3.363720
      pz      :     0.957015  p :     2.616494
      px      :     0.843534
      py      :     0.815944
      dz2     :     0.001359  d :     0.097355
      dxz     :     0.011048
      dyz     :     0.025681
      dx2y2   :     0.023460
      dxy     :     0.035807
      f0      :     0.001523  f :     0.015415
      f+1     :     0.000320
      f-1     :     0.000389
      f+2     :     0.002384
      f-2     :     0.001456
      f+3     :     0.007403
      f-3     :     0.001940
      g0      :     0.000049  g :     0.001063
      g+1     :     0.000081
      g-1     :     0.000131
      g+2     :     0.000073
      g-2     :     0.000064
      g+3     :     0.000004
      g-3     :     0.000147
      g+4     :     0.000242
      g-4     :     0.000273
  2 C s       :     3.318218  s :     3.318218
      pz      :     0.933067  p :     2.637367
      px      :     0.860571
      py      :     0.843729
      dz2     :     0.001720  d :     0.116930
      dxz     :     0.013346
      dyz     :     0.025570
      dx2y2   :     0.025536
      dxy     :     0.050757
      f0      :     0.001568  f :     0.015284
      f+1     :     0.000406
      f-1     :     0.000463
      f+2     :     0.002648
      f-2     :     0.001155
      f+3     :     0.007347
      f-3     :     0.001697
      g0      :     0.000047  g :     0.001112
      g+1     :     0.000086
      g-1     :     0.000133
      g+2     :     0.000080
      g-2     :     0.000059
      g+3     :     0.000003
      g-3     :     0.000151
      g+4     :     0.000269
      g-4     :     0.000284
  3 C s       :     3.313477  s :     3.313477
      pz      :     0.948480  p :     2.609623
      px      :     0.827642
      py      :     0.833501
      dz2     :     0.002574  d :     0.108825
      dxz     :     0.031470
      dyz     :     0.006345
      dx2y2   :     0.049193
      dxy     :     0.019244
      f0      :     0.001582  f :     0.015148
      f+1     :     0.000492
      f-1     :     0.000322
      f+2     :     0.000652
      f-2     :     0.003096
      f+3     :     0.007367
      f-3     :     0.001637
      g0      :     0.000047  g :     0.001104
      g+1     :     0.000151
      g-1     :     0.000063
      g+2     :     0.000051
      g-2     :     0.000088
      g+3     :     0.000003
      g-3     :     0.000151
      g+4     :     0.000294
      g-4     :     0.000257
  4 C s       :     3.319274  s :     3.319274
      pz      :     0.934161  p :     2.630988
      px      :     0.861358
      py      :     0.835469
      dz2     :     0.001683  d :     0.119354
      dxz     :     0.012091
      dyz     :     0.027068
      dx2y2   :     0.030915
      dxy     :     0.047597
      f0      :     0.001563  f :     0.015378
      f+1     :     0.000392
      f-1     :     0.000471
      f+2     :     0.002389
      f-2     :     0.001422
      f+3     :     0.007391
      f-3     :     0.001750
      g0      :     0.000047  g :     0.001109
      g+1     :     0.000083
      g-1     :     0.000136
      g+2     :     0.000076
      g-2     :     0.000062
      g+3     :     0.000003
      g-3     :     0.000150
      g+4     :     0.000262
      g-4     :     0.000289
  5 C s       :     3.362271  s :     3.362271
      pz      :     0.958245  p :     2.625229
      px      :     0.840596
      py      :     0.826387
      dz2     :     0.001230  d :     0.097926
      dxz     :     0.012522
      dyz     :     0.024818
      dx2y2   :     0.019544
      dxy     :     0.039812
      f0      :     0.001514  f :     0.015538
      f+1     :     0.000346
      f-1     :     0.000375
      f+2     :     0.002582
      f-2     :     0.001256
      f+3     :     0.007686
      f-3     :     0.001779
      g0      :     0.000049  g :     0.001068
      g+1     :     0.000086
      g-1     :     0.000126
      g+2     :     0.000078
      g-2     :     0.000062
      g+3     :     0.000003
      g-3     :     0.000145
      g+4     :     0.000250
      g-4     :     0.000270
  6 C s       :     3.321633  s :     3.321633
      pz      :     0.950285  p :     2.750104
      px      :     0.961285
      py      :     0.838534
      dz2     :     0.003779  d :     0.044457
      dxz     :     0.005814
      dyz     :     0.017617
      dx2y2   :     0.004876
      dxy     :     0.012371
      f0      :     0.000726  f :     0.006896
      f+1     :     0.001214
      f-1     :     0.000646
      f+2     :     0.001350
      f-2     :    -0.000149
      f+3     :     0.001766
      f-3     :     0.001342
      g0      :     0.000028  g :     0.000552
      g+1     :    -0.000004
      g-1     :     0.000084
      g+2     :     0.000061
      g-2     :     0.000110
      g+3     :     0.000001
      g-3     :     0.000051
      g+4     :     0.000112
      g-4     :     0.000109
  7 H s       :     0.916911  s :     0.916911
      pz      :     0.014438  p :     0.033998
      px      :     0.009879
      py      :     0.009682
      dz2     :     0.000150  d :     0.004721
      dxz     :     0.001922
      dyz     :     0.000283
      dx2y2   :     0.001264
      dxy     :     0.001101
      f0      :     0.000058  f :     0.000321
      f+1     :     0.000011
      f-1     :     0.000007
      f+2     :     0.000057
      f-2     :     0.000043
      f+3     :     0.000113
      f-3     :     0.000032
  8 H s       :     0.905042  s :     0.905042
      pz      :     0.010643  p :     0.035372
      px      :     0.012812
      py      :     0.011917
      dz2     :     0.001646  d :     0.004909
      dxz     :     0.000845
      dyz     :     0.000947
      dx2y2   :     0.000960
      dxy     :     0.000510
      f0      :     0.000110  f :     0.000322
      f+1     :     0.000024
      f-1     :     0.000033
      f+2     :     0.000083
      f-2     :     0.000034
      f+3     :     0.000025
      f-3     :     0.000012
  9 H s       :     0.905067  s :     0.905067
      pz      :     0.010644  p :     0.035378
      px      :     0.012814
      py      :     0.011921
      dz2     :     0.001646  d :     0.004909
      dxz     :     0.000845
      dyz     :     0.000947
      dx2y2   :     0.000960
      dxy     :     0.000510
      f0      :     0.000110  f :     0.000322
      f+1     :     0.000024
      f-1     :     0.000033
      f+2     :     0.000083
      f-2     :     0.000034
      f+3     :     0.000025
      f-3     :     0.000012
 10 H s       :     0.907327  s :     0.907327
      pz      :     0.016863  p :     0.034539
      px      :     0.006666
      py      :     0.011010
      dz2     :     0.000125  d :     0.004966
      dxz     :     0.001712
      dyz     :     0.000542
      dx2y2   :     0.001651
      dxy     :     0.000937
      f0      :     0.000058  f :     0.000306
      f+1     :     0.000011
      f-1     :     0.000008
      f+2     :     0.000027
      f-2     :     0.000058
      f+3     :     0.000121
      f-3     :     0.000022
 11 H s       :     0.903256  s :     0.903256
      pz      :     0.016943  p :     0.034463
      px      :     0.007585
      py      :     0.009935
      dz2     :     0.000146  d :     0.004889
      dxz     :     0.001560
      dyz     :     0.000629
      dx2y2   :     0.001789
      dxy     :     0.000766
      f0      :     0.000057  f :     0.000294
      f+1     :     0.000009
      f-1     :     0.000009
      f+2     :     0.000019
      f-2     :     0.000063
      f+3     :     0.000116
      f-3     :     0.000021
 12 H s       :     0.905420  s :     0.905420
      pz      :     0.017385  p :     0.034665
      px      :     0.011588
      py      :     0.005692
      dz2     :     0.000139  d :     0.004932
      dxz     :     0.000059
      dyz     :     0.002177
      dx2y2   :     0.000383
      dxy     :     0.002174
      f0      :     0.000058  f :     0.000299
      f+1     :     0.000008
      f-1     :     0.000011
      f+2     :     0.000081
      f-2     :     0.000003
      f+3     :     0.000116
      f-3     :     0.000022
 13 H s       :     0.904550  s :     0.904550
      pz      :     0.017011  p :     0.034612
      px      :     0.007309
      py      :     0.010292
      dz2     :     0.000148  d :     0.004921
      dxz     :     0.001680
      dyz     :     0.000524
      dx2y2   :     0.001607
      dxy     :     0.000962
      f0      :     0.000057  f :     0.000296
      f+1     :     0.000010
      f-1     :     0.000009
      f+2     :     0.000027
      f-2     :     0.000055
      f+3     :     0.000116
      f-3     :     0.000022
 14 H s       :     0.911361  s :     0.911361
      pz      :     0.017141  p :     0.035611
      px      :     0.007461
      py      :     0.011009
      dz2     :     0.000135  d :     0.004991
      dxz     :     0.001636
      dyz     :     0.000633
      dx2y2   :     0.001839
      dxy     :     0.000747
      f0      :     0.000059  f :     0.000307
      f+1     :     0.000012
      f-1     :     0.000009
      f+2     :     0.000019
      f-2     :     0.000065
      f+3     :     0.000122
      f-3     :     0.000021


                     *******************************
                     * LOEWDIN POPULATION ANALYSIS *
                     *******************************

----------------------
LOEWDIN ATOMIC CHARGES
----------------------
   0 C :   -0.107819
   1 C :    0.072165
   2 C :    0.057214
   3 C :    0.053441
   4 C :    0.057659
   5 C :    0.067943
   6 C :    0.225274
   7 H :   -0.049951
   8 H :   -0.047384
   9 H :   -0.047384
  10 H :   -0.052489
  11 H :   -0.057376
  12 H :   -0.058868
  13 H :   -0.057468
  14 H :   -0.054956

-------------------------------
LOEWDIN REDUCED ORBITAL CHARGES
-------------------------------
  0 C s       :     2.585076  s :     2.585076
      pz      :     0.755088  p :     2.706723
      px      :     1.013704
      py      :     0.937931
      dz2     :     0.046244  d :     0.649760
      dxz     :     0.095452
      dyz     :     0.095846
      dx2y2   :     0.209765
      dxy     :     0.202452
      f0      :     0.010126  f :     0.152650
      f+1     :     0.008112
      f-1     :     0.008225
      f+2     :     0.017448
      f-2     :     0.021630
      f+3     :     0.068051
      f-3     :     0.019057
      g0      :     0.000367  g :     0.013610
      g+1     :     0.001427
      g-1     :     0.001400
      g+2     :     0.001332
      g-2     :     0.001349
      g+3     :     0.000105
      g-3     :     0.001236
      g+4     :     0.003352
      g-4     :     0.003042
  1 C s       :     2.590113  s :     2.590113
      pz      :     0.780556  p :     2.717693
      px      :     0.949955
      py      :     0.987181
      dz2     :     0.039572  d :     0.497724
      dxz     :     0.035618
      dyz     :     0.076890
      dx2y2   :     0.159552
      dxy     :     0.186092
      f0      :     0.005940  f :     0.111103
      f+1     :     0.006900
      f-1     :     0.007596
      f+2     :     0.016000
      f-2     :     0.010021
      f+3     :     0.046901
      f-3     :     0.017744
      g0      :     0.000365  g :     0.011202
      g+1     :     0.000800
      g-1     :     0.001297
      g+2     :     0.001227
      g-2     :     0.001261
      g+3     :     0.000047
      g-3     :     0.000799
      g+4     :     0.002190
      g-4     :     0.003216
  2 C s       :     2.595837  s :     2.595837
      pz      :     0.771725  p :     2.720937
      px      :     0.961984
      py      :     0.987227
      dz2     :     0.037771  d :     0.504383
      dxz     :     0.041628
      dyz     :     0.079546
      dx2y2   :     0.154508
      dxy     :     0.190930
      f0      :     0.006051  f :     0.110411
      f+1     :     0.006895
      f-1     :     0.007233
      f+2     :     0.018087
      f-2     :     0.008441
      f+3     :     0.046532
      f-3     :     0.017171
      g0      :     0.000359  g :     0.011218
      g+1     :     0.000868
      g-1     :     0.001307
      g+2     :     0.001239
      g-2     :     0.001228
      g+3     :     0.000033
      g-3     :     0.000808
      g+4     :     0.002454
      g-4     :     0.002923
  3 C s       :     2.595769  s :     2.595769
      pz      :     0.780267  p :     2.728771
      px      :     1.001123
      py      :     0.947381
      dz2     :     0.038004  d :     0.500499
      dxz     :     0.095510
      dyz     :     0.020485
      dx2y2   :     0.204676
      dxy     :     0.141824
      f0      :     0.006113  f :     0.110339
      f+1     :     0.007474
      f-1     :     0.006726
      f+2     :     0.005014
      f-2     :     0.020780
      f+3     :     0.047171
      f-3     :     0.017061
      g0      :     0.000359  g :     0.011180
      g+1     :     0.001463
      g-1     :     0.000641
      g+2     :     0.001228
      g-2     :     0.001249
      g+3     :     0.000045
      g-3     :     0.000808
      g+4     :     0.003358
      g-4     :     0.002030
  4 C s       :     2.595862  s :     2.595862
      pz      :     0.772133  p :     2.721384
      px      :     0.960337
      py      :     0.988913
      dz2     :     0.037829  d :     0.503672
      dxz     :     0.037475
      dyz     :     0.083194
      dx2y2   :     0.161671
      dxy     :     0.183503
      f0      :     0.006057  f :     0.110223
      f+1     :     0.006863
      f-1     :     0.007272
      f+2     :     0.016339
      f-2     :     0.010082
      f+3     :     0.046360
      f-3     :     0.017250
      g0      :     0.000359  g :     0.011201
      g+1     :     0.000833
      g-1     :     0.001332
      g+2     :     0.001240
      g-2     :     0.001226
      g+3     :     0.000036
      g-3     :     0.000805
      g+4     :     0.002171
      g-4     :     0.003200
  5 C s       :     2.590489  s :     2.590489
      pz      :     0.781398  p :     2.718817
      px      :     0.952525
      py      :     0.984893
      dz2     :     0.039794  d :     0.500263
      dxz     :     0.039219
      dyz     :     0.074174
      dx2y2   :     0.154830
      dxy     :     0.192245
      f0      :     0.005977  f :     0.111281
      f+1     :     0.006983
      f-1     :     0.007477
      f+2     :     0.017426
      f-2     :     0.008605
      f+3     :     0.047009
      f-3     :     0.017805
      g0      :     0.000365  g :     0.011208
      g+1     :     0.000851
      g-1     :     0.001246
      g+2     :     0.001217
      g-2     :     0.001267
      g+3     :     0.000039
      g-3     :     0.000803
      g+4     :     0.002498
      g-4     :     0.002921
  6 C s       :     2.552289  s :     2.552289
      pz      :     0.940014  p :     2.772077
      px      :     0.936390
      py      :     0.895673
      dz2     :     0.059477  d :     0.372893
      dxz     :     0.052364
      dyz     :     0.087007
      dx2y2   :     0.079752
      dxy     :     0.094293
      f0      :     0.005710  f :     0.073519
      f+1     :     0.009880
      f-1     :     0.009883
      f+2     :     0.009721
      f-2     :     0.007798
      f+3     :     0.017723
      f-3     :     0.012804
      g0      :     0.000150  g :     0.003948
      g+1     :     0.000048
      g-1     :     0.000653
      g+2     :     0.000204
      g-2     :     0.000626
      g+3     :     0.000050
      g-3     :     0.000521
      g+4     :     0.000417
      g-4     :     0.001281
  7 H s       :     0.787915  s :     0.787915
      pz      :     0.053994  p :     0.187923
      px      :     0.081908
      py      :     0.052022
      dz2     :     0.004368  d :     0.065180
      dxz     :     0.022171
      dyz     :     0.002424
      dx2y2   :     0.018490
      dxy     :     0.017727
      f0      :     0.001147  f :     0.008933
      f+1     :     0.000847
      f-1     :     0.000380
      f+2     :     0.001218
      f-2     :     0.000779
      f+3     :     0.002816
      f-3     :     0.001747
  8 H s       :     0.783912  s :     0.783912
      pz      :     0.075356  p :     0.190135
      px      :     0.061668
      py      :     0.053112
      dz2     :     0.021165  d :     0.064562
      dxz     :     0.013789
      dyz     :     0.013489
      dx2y2   :     0.009797
      dxy     :     0.006323
      f0      :     0.002381  f :     0.008775
      f+1     :     0.001386
      f-1     :     0.001102
      f+2     :     0.001782
      f-2     :     0.001374
      f+3     :     0.000518
      f-3     :     0.000232
  9 H s       :     0.783912  s :     0.783912
      pz      :     0.075356  p :     0.190135
      px      :     0.061668
      py      :     0.053112
      dz2     :     0.021165  d :     0.064562
      dxz     :     0.013789
      dyz     :     0.013489
      dx2y2   :     0.009797
      dxy     :     0.006323
      f0      :     0.002381  f :     0.008775
      f+1     :     0.001386
      f-1     :     0.001102
      f+2     :     0.001782
      f-2     :     0.001374
      f+3     :     0.000518
      f-3     :     0.000232
 10 H s       :     0.794032  s :     0.794032
      pz      :     0.053733  p :     0.186199
      px      :     0.079711
      py      :     0.052756
      dz2     :     0.004658  d :     0.063121
      dxz     :     0.015526
      dyz     :     0.004826
      dx2y2   :     0.021037
      dxy     :     0.017074
      f0      :     0.000997  f :     0.009137
      f+1     :     0.000789
      f-1     :     0.000387
      f+2     :     0.000556
      f-2     :     0.001175
      f+3     :     0.003309
      f-3     :     0.001924
 11 H s       :     0.799331  s :     0.799331
      pz      :     0.052949  p :     0.186463
      px      :     0.078116
      py      :     0.055398
      dz2     :     0.004674  d :     0.062478
      dxz     :     0.014291
      dyz     :     0.005532
      dx2y2   :     0.021722
      dxy     :     0.016260
      f0      :     0.000986  f :     0.009104
      f+1     :     0.000760
      f-1     :     0.000429
      f+2     :     0.000374
      f-2     :     0.001301
      f+3     :     0.003318
      f-3     :     0.001935
 12 H s       :     0.800032  s :     0.800032
      pz      :     0.054143  p :     0.187204
      px      :     0.042271
      py      :     0.090790
      dz2     :     0.004657  d :     0.062510
      dxz     :     0.000310
      dyz     :     0.019767
      dx2y2   :     0.014214
      dxy     :     0.023562
      f0      :     0.001003  f :     0.009123
      f+1     :     0.000235
      f-1     :     0.000954
      f+2     :     0.001659
      f-2     :     0.000041
      f+3     :     0.003298
      f-3     :     0.001933
 13 H s       :     0.799319  s :     0.799319
      pz      :     0.053089  p :     0.186558
      px      :     0.080454
      py      :     0.053015
      dz2     :     0.004673  d :     0.062485
      dxz     :     0.015303
      dyz     :     0.004533
      dx2y2   :     0.020765
      dxy     :     0.017211
      f0      :     0.000988  f :     0.009107
      f+1     :     0.000795
      f-1     :     0.000394
      f+2     :     0.000541
      f-2     :     0.001137
      f+3     :     0.003308
      f-3     :     0.001943
 14 H s       :     0.795188  s :     0.795188
      pz      :     0.054532  p :     0.187388
      px      :     0.077415
      py      :     0.055441
      dz2     :     0.004680  d :     0.063236
      dxz     :     0.014637
      dyz     :     0.005608
      dx2y2   :     0.022158
      dxy     :     0.016153
      f0      :     0.001001  f :     0.009144
      f+1     :     0.000756
      f-1     :     0.000424
      f+2     :     0.000390
      f-2     :     0.001328
      f+3     :     0.003320
      f-3     :     0.001924


                      *****************************
                      * MAYER POPULATION ANALYSIS *
                      *****************************

  NA   - Mulliken gross atomic population
  ZA   - Total nuclear charge
  QA   - Mulliken gross atomic charge
  VA   - Mayer's total valence
  BVA  - Mayer's bonded valence
  FA   - Mayer's free valence

  ATOM       NA         ZA         QA         VA         BVA        FA
  0 C      5.8778     6.0000     0.1222     3.5712     3.5712    -0.0000
  1 C      6.0940     6.0000    -0.0940     3.6874     3.6874     0.0000
  2 C      6.0889     6.0000    -0.0889     3.8277     3.8277     0.0000
  3 C      6.0482     6.0000    -0.0482     3.7820     3.7820     0.0000
  4 C      6.0861     6.0000    -0.0861     3.8279     3.8279     0.0000
  5 C      6.1020     6.0000    -0.1020     3.7021     3.7021     0.0000
  6 C      6.1236     6.0000    -0.1236     3.8431     3.8431     0.0000
  7 H      0.9560     1.0000     0.0440     1.0105     1.0105     0.0000
  8 H      0.9456     1.0000     0.0544     0.9982     0.9982     0.0000
  9 H      0.9457     1.0000     0.0543     0.9982     0.9982    -0.0000
 10 H      0.9471     1.0000     0.0529     1.0028     1.0028     0.0000
 11 H      0.9429     1.0000     0.0571     1.0005     1.0005     0.0000
 12 H      0.9453     1.0000     0.0547     1.0000     1.0000     0.0000
 13 H      0.9444     1.0000     0.0556     1.0005     1.0005     0.0000
 14 H      0.9523     1.0000     0.0477     1.0078     1.0078     0.0000

  Mayer bond orders larger than 0.100000
B(  0-C ,  1-C ) :   1.2351 B(  0-C ,  5-C ) :   1.2564 B(  0-C ,  6-C ) :   0.9388 
B(  1-C ,  2-C ) :   1.3455 B(  1-C , 10-H ) :   0.9677 B(  2-C ,  3-C ) :   1.3218 
B(  2-C , 11-H ) :   0.9688 B(  3-C ,  4-C ) :   1.3323 B(  3-C , 12-H ) :   0.9666 
B(  4-C ,  5-C ) :   1.3343 B(  4-C , 13-H ) :   0.9690 B(  5-C , 14-H ) :   0.9688 
B(  6-C ,  7-H ) :   0.9687 B(  6-C ,  8-H ) :   0.9607 B(  6-C ,  9-H ) :   0.9607 


-------
TIMINGS
-------

Total SCF time: 0 days 0 hours 33 min 14 sec 

Total time                  ....    1994.943 sec
Sum of individual times     ....    1982.710 sec  ( 99.4%)

Fock matrix formation       ....    1942.777 sec  ( 97.4%)
  Split-RI-J                ....     118.338 sec  (  6.1% of F)
  Chain of spheres X        ....    1627.497 sec  ( 83.8% of F)
  XC integration            ....     191.681 sec  (  9.9% of F)
    Basis function eval.    ....      35.764 sec  ( 18.7% of XC)
    Density eval.           ....      69.447 sec  ( 36.2% of XC)
    XC-Functional eval.     ....       2.424 sec  (  1.3% of XC)
    XC-Potential eval.      ....      79.156 sec  ( 41.3% of XC)
Diagonalization             ....       2.900 sec  (  0.1%)
Density matrix formation    ....       0.191 sec  (  0.0%)
Population analysis         ....       0.434 sec  (  0.0%)
Initial guess               ....      14.214 sec  (  0.7%)
Orbital Transformation      ....       0.000 sec  (  0.0%)
Orbital Orthonormalization  ....       0.000 sec  (  0.0%)
DIIS solution               ....       1.125 sec  (  0.1%)
SOSCF solution              ....       1.568 sec  (  0.1%)
Grid generation             ....      19.501 sec  (  1.0%)

Maximum memory used throughout the entire SCF-calculation: 663.8 MB


-------------------------------------------------------------------------------
                          DFT DISPERSION CORRECTION                            
                                                                               
                                 DFTD4 V2.5                                    
-------------------------------------------------------------------------------
The B3LYP functional is recognized
Active option DFTDOPT                   ...         5   

Starting D4
-------------------------   ----------------
Dispersion correction           -0.022223946
-------------------------   ----------------


-------------------------   --------------------
FINAL SINGLE POINT ENERGY      -271.526673917780
-------------------------   --------------------


                            ***************************************
                            *     ORCA property calculations      *
                            ***************************************

                                    ---------------------
                                    Active property flags
                                    ---------------------
   (+) Dipole Moment


------------------------------------------------------------------------------
                       ORCA ELECTRIC PROPERTIES CALCULATION
------------------------------------------------------------------------------

Dipole Moment Calculation                       ... on
Quadrupole Moment Calculation                   ... off
Polarizability Calculation                      ... off
GBWName                                         ... fukui_neutral.gbw
Electron density                                ... fukui_neutral.scfp
The origin for moment calculation is the CENTER OF MASS  = (-11.654069,  0.171850 -0.000000)

-------------
DIPOLE MOMENT
-------------
                                X             Y             Z
Electronic contribution:      0.12192      -3.38329       0.00000
Nuclear contribution   :     -0.14262       3.54029       0.00000
                        -----------------------------------------
Total Dipole Moment    :     -0.02071       0.15699       0.00000
                        -----------------------------------------
Magnitude (a.u.)       :      0.15835
Magnitude (Debye)      :      0.40250



--------------------
Rotational spectrum 
--------------------
 
Rotational constants in cm-1:     0.183668     0.083310     0.057937 
Rotational constants in MHz :  5506.217857  2497.567370  1736.898663 

 Dipole components along the rotational axes: 
x,y,z [a.u.] :     0.157583     0.015586     0.000001 
x,y,z [Debye]:     0.400543     0.039617     0.000002 

 

Timings for individual modules:

Sum of individual times         ...     2010.027 sec (=  33.500 min)
GTO integral calculation        ...       11.711 sec (=   0.195 min)   0.6 %
SCF iterations                  ...     1998.316 sec (=  33.305 min)  99.4 %
                             ****ORCA TERMINATED NORMALLY****
TOTAL RUN TIME: 0 days 0 hours 33 minutes 34 seconds 833 msec
