
                                 *****************
                                 * O   R   C   A *
                                 *****************

                                            #,                                       
                                            ###                                      
                                            ####                                     
                                            #####                                    
                                            ######                                   
                                           ########,                                 
                                     ,,################,,,,,                         
                               ,,#################################,,                 
                          ,,##########################################,,             
                       ,#########################################, ''#####,          
                    ,#############################################,,   '####,        
                  ,##################################################,,,,####,       
                ,###########''''           ''''###############################       
              ,#####''   ,,,,##########,,,,          '''####'''          '####       
            ,##' ,,,,###########################,,,                        '##       
           ' ,,###''''                  '''############,,,                           
         ,,##''                                '''############,,,,        ,,,,,,###''
      ,#''                                            '''#######################'''  
     '                                                          ''''####''''         
             ,#######,   #######,   ,#######,      ##                                
            ,#'     '#,  ##    ##  ,#'     '#,    #''#        ######   ,####,        
            ##       ##  ##   ,#'  ##            #'  '#       #        #'  '#        
            ##       ##  #######   ##           ,######,      #####,   #    #        
            '#,     ,#'  ##    ##  '#,     ,#' ,#      #,         ##   #,  ,#        
             '#######'   ##     ##  '#######'  #'      '#     #####' # '####'        



                  #######################################################
                  #                        -***-                        #
                  #          Department of theory and spectroscopy      #
                  #    Directorship and core code : Frank Neese         #
                  #        Max Planck Institute fuer Kohlenforschung    #
                  #                Kaiser Wilhelm Platz 1               #
                  #                 D-45470 Muelheim/Ruhr               #
                  #                      Germany                        #
                  #                                                     #
                  #                  All rights reserved                #
                  #                        -***-                        #
                  #######################################################



                         Program Version 5.0.4 -  RELEASE  -

 With contributions from (in alphabetic order):
   Daniel Aravena         : Magnetic Suceptibility
   Michael Atanasov       : Ab Initio Ligand Field Theory (pilot matlab implementation)
   Alexander A. Auer      : GIAO ZORA, VPT2 properties, NMR spectrum
   Ute Becker             : Parallelization
   Giovanni Bistoni       : ED, misc. LED, open-shell LED, HFLD
   Martin Brehm           : Molecular dynamics
   Dmytro Bykov           : SCF Hessian
   Vijay G. Chilkuri      : MRCI spin determinant printing, contributions to CSF-ICE
   Dipayan Datta          : RHF DLPNO-CCSD density
   Achintya Kumar Dutta   : EOM-CC, STEOM-CC
   Dmitry Ganyushin       : Spin-Orbit,Spin-Spin,Magnetic field MRCI
   Miquel Garcia          : C-PCM and meta-GGA Hessian, CC/C-PCM, Gaussian charge scheme
   Yang Guo               : DLPNO-NEVPT2, F12-NEVPT2, CIM, IAO-localization
   Andreas Hansen         : Spin unrestricted coupled pair/coupled cluster methods
   Benjamin Helmich-Paris : MC-RPA, TRAH-SCF, COSX integrals
   Lee Huntington         : MR-EOM, pCC
   Robert Izsak           : Overlap fitted RIJCOSX, COSX-SCS-MP3, EOM
   Marcus Kettner         : VPT2
   Christian Kollmar      : KDIIS, OOCD, Brueckner-CCSD(T), CCSD density, CASPT2, CASPT2-K
   Simone Kossmann        : Meta GGA functionals, TD-DFT gradient, OOMP2, MP2 Hessian
   Martin Krupicka        : Initial AUTO-CI
   Lucas Lang             : DCDCAS
   Marvin Lechner         : AUTO-CI (C++ implementation), FIC-MRCC
   Dagmar Lenk            : GEPOL surface, SMD
   Dimitrios Liakos       : Extrapolation schemes; Compound Job, initial MDCI parallelization
   Dimitrios Manganas     : Further ROCIS development; embedding schemes
   Dimitrios Pantazis     : SARC Basis sets
   Anastasios Papadopoulos: AUTO-CI, single reference methods and gradients
   Taras Petrenko         : DFT Hessian,TD-DFT gradient, ASA, ECA, R-Raman, ABS, FL, XAS/XES, NRVS
   Peter Pinski           : DLPNO-MP2, DLPNO-MP2 Gradient
   Christoph Reimann      : Effective Core Potentials
   Marius Retegan         : Local ZFS, SOC
   Christoph Riplinger    : Optimizer, TS searches, QM/MM, DLPNO-CCSD(T), (RO)-DLPNO pert. Triples
   Tobias Risthaus        : Range-separated hybrids, TD-DFT gradient, RPA, STAB
   Michael Roemelt        : Original ROCIS implementation
   Masaaki Saitow         : Open-shell DLPNO-CCSD energy and density
   Barbara Sandhoefer     : DKH picture change effects
   Avijit Sen             : IP-ROCIS
   Kantharuban Sivalingam : CASSCF convergence, NEVPT2, FIC-MRCI
   Bernardo de Souza      : ESD, SOC TD-DFT
   Georgi Stoychev        : AutoAux, RI-MP2 NMR, DLPNO-MP2 response
   Willem Van den Heuvel  : Paramagnetic NMR
   Boris Wezisla          : Elementary symmetry handling
   Frank Wennmohs         : Technical directorship


 We gratefully acknowledge several colleagues who have allowed us to
 interface, adapt or use parts of their codes:
   Stefan Grimme, W. Hujo, H. Kruse, P. Pracht,  : VdW corrections, initial TS optimization,
                  C. Bannwarth, S. Ehlert          DFT functionals, gCP, sTDA/sTD-DF
   Ed Valeev, F. Pavosevic, A. Kumar             : LibInt (2-el integral package), F12 methods
   Garnet Chan, S. Sharma, J. Yang, R. Olivares  : DMRG
   Ulf Ekstrom                                   : XCFun DFT Library
   Mihaly Kallay                                 : mrcc  (arbitrary order and MRCC methods)
   Jiri Pittner, Ondrej Demel                    : Mk-CCSD
   Frank Weinhold                                : gennbo (NPA and NBO analysis)
   Christopher J. Cramer and Donald G. Truhlar   : smd solvation model
   Lars Goerigk                                  : TD-DFT with DH, B97 family of functionals
   V. Asgeirsson, H. Jonsson                     : NEB implementation
   FAccTs GmbH                                   : IRC, NEB, NEB-TS, DLPNO-Multilevel, CI-OPT
                                                   MM, QMMM, 2- and 3-layer-ONIOM, Crystal-QMMM,
                                                   LR-CPCM, SF, NACMEs, symmetry and pop. for TD-DFT,
                                                   nearIR, NL-DFT gradient (VV10), updates on ESD,
                                                   ML-optimized integration grids
   S Lehtola, MJT Oliveira, MAL Marques          : LibXC Library
   Liviu Ungur et al                             : ANISO software


 Your calculation uses the libint2 library for the computation of 2-el integrals
 For citations please refer to: http://libint.valeyev.net

 Your ORCA version has been built with support for libXC version: 5.1.0
 For citations please refer to: https://tddft.org/programs/libxc/

 This ORCA versions uses:
   CBLAS   interface :  Fast vector & matrix operations
   LAPACKE interface :  Fast linear algebra routines
   Shared memory     :  Shared parallel matrices


Your calculation utilizes the atom-pairwise dispersion correction
based on tight binding partial charges (D4)
Cite in your paper:
E.Caldeweyher, C.Bannwarth, S.Grimme, J.Chem.Phys., (2017), 147, 034112.
E.Caldeweyher, S.Ehlert, A.Hansen, H.Neugebauer, S.Grimme, J.Chem.Phys., (2018), in progress.
   

================================================================================

----- Orbital basis set information -----
Your calculation utilizes the basis: def2-TZVPD
   F. Weigend and R. Ahlrichs, Phys. Chem. Chem. Phys. 7, 3297 (2005).
   D. Rappoport and F. Furche, J. Chem. Phys. 133 134105 (2010).

----- AuxJ basis set information -----
Your calculation utilizes the auxiliary basis: def2/J
   F. Weigend, Phys. Chem. Chem. Phys. 8, 1057 (2006).

================================================================================
                                        WARNINGS
                       Please study these warnings very carefully!
================================================================================


WARNING: Geometry Optimization
  ===> : Switching off AutoStart
         For restart on a previous wavefunction, please use MOREAD

INFO   : the flag for use of the SHARK integral package has been found!

================================================================================
                                       INPUT FILE
================================================================================
NAME = opt2_1.inp
|  1> !B3LYP DEF2-TZVPD OPT FREQ D4 SOSCF
|  2> 
|  3> %geom maxIter 200 end
|  4> 
|  5> * xyz 1 1
|  6>   C   -4.45053934539113      0.58827911034791      0.11423620928836
|  7>   C   -5.24955109747294     -0.57048506587269      0.30033733166211
|  8>   C   -4.67398697160438     -1.81597725344080      0.22682600488263
|  9>   C   -3.30262594633663     -1.94992333703563     -0.02996193478826
| 10>   C   -2.50781585615769     -0.81037689493674     -0.21449672436271
| 11>   C   -3.06212499290892      0.44517971756718     -0.14639051609466
| 12>   H   -6.30822897734123     -0.45959715798819      0.49842924544807
| 13>   H   -5.28369884908577     -2.69807619318315      0.36822740353259
| 14>   H   -2.85720328026128     -2.93369937513414     -0.08581406991248
| 15>   H   -1.45011055237778     -0.92003068457100     -0.41262819875581
| 16>   H   -2.45254395369169      1.32879455620796     -0.28801470514713
| 17>   N   -5.00532207805471      1.81248375437028      0.18480092399762
| 18>   H   -5.98926570417720      1.93191788309718      0.36440400576649
| 19>   H   -4.45540536679638      2.64545374559489      0.05035355243194
| 20>   N   9.75438459628651      4.22221214564049     -1.70665352340670
| 21>   O   10.44023765115048      5.16094439953045     -1.64057885699285
| 22>   O   8.70804072422079      3.78261064980599     -1.44105614754917
| 23> **                         ****END OF INPUT****
================================================================================

                       *****************************
                       * Geometry Optimization Run *
                       *****************************

Geometry optimization settings:
Update method            Update   .... BFGS
Choice of coordinates    CoordSys .... Z-matrix Internals
Initial Hessian          InHess   .... Almoef's Model

Convergence Tolerances:
Energy Change            TolE     ....  5.0000e-06 Eh
Max. Gradient            TolMAXG  ....  3.0000e-04 Eh/bohr
RMS Gradient             TolRMSG  ....  1.0000e-04 Eh/bohr
Max. Displacement        TolMAXD  ....  4.0000e-03 bohr
RMS Displacement         TolRMSD  ....  2.0000e-03 bohr
Strict Convergence                ....  False
------------------------------------------------------------------------------
                        ORCA OPTIMIZATION COORDINATE SETUP
------------------------------------------------------------------------------

The optimization will be done in new redundant internal coordinates
Making redundant internal coordinates   ...  (new redundants) done
Evaluating the initial hessian          ...  (Almloef) done
Evaluating the coordinates              ...  done
Calculating the B-matrix                .... done
Calculating the G-matrix                .... done
Diagonalizing the G-matrix              .... done
Small eigenvalue found = 2.429e-02
The first mode is                       ....   56
The number of degrees of freedom        ....   45

    -----------------------------------------------------------------
                    Redundant Internal Coordinates


    -----------------------------------------------------------------
         Definition                    Initial Value    Approx d2E/dq
    -----------------------------------------------------------------
      1. B(C   1,C   0)                  1.4198         0.560040   
      2. B(C   2,C   1)                  1.3740         0.662575   
      3. B(C   3,C   2)                  1.4016         0.598707   
      4. B(C   4,C   3)                  1.4015         0.598841   
      5. B(C   5,C   4)                  1.3742         0.662229   
      6. B(C   5,C   0)                  1.4199         0.559816   
      7. B(H   6,C   1)                  1.0827         0.369827   
      8. B(H   7,C   2)                  1.0816         0.371396   
      9. B(H   8,C   3)                  1.0814         0.371715   
     10. B(H   9,C   4)                  1.0817         0.371283   
     11. B(H  10,C   5)                  1.0828         0.369773   
     12. B(N  11,C   0)                  1.3459         0.658018   
     13. B(H  12,N  11)                  1.0073         0.437011   
     14. B(H  13,N  11)                  1.0071         0.437284   
     15. B(O  15,N  14)                  1.1645         1.147729   
     16. B(O  16,H  10)                 11.4852         0.000000   
     17. B(O  16,H   9)                 11.2410         0.000000   
     18. B(O  16,C   4)                 12.1818         0.000000   
     19. B(O  16,N  14)                  1.1656         1.142946   
     20. A(C   1,C   0,C   5)          119.4786         0.418509   
     21. A(C   5,C   0,N  11)          120.2887         0.427943   
     22. A(C   1,C   0,N  11)          120.2327         0.427974   
     23. A(C   0,C   1,H   6)          119.3837         0.348464   
     24. A(C   2,C   1,H   6)          120.8106         0.358527   
     25. A(C   0,C   1,C   2)          119.8056         0.431320   
     26. A(C   3,C   2,H   7)          119.8389         0.352667   
     27. A(C   1,C   2,H   7)          119.7448         0.358785   
     28. A(C   1,C   2,C   3)          120.4163         0.436532   
     29. A(C   4,C   3,H   8)          119.9536         0.352731   
     30. A(C   2,C   3,C   4)          120.0844         0.428667   
     31. A(C   2,C   3,H   8)          119.9620         0.352718   
     32. A(C   5,C   4,H   9)          119.7452         0.358735   
     33. A(C   5,C   4,O  16)           91.8275         0.089043   
     34. A(C   3,C   4,O  16)          147.3456         0.089042   
     35. A(C   3,C   4,C   5)          120.5045         0.436509   
     36. A(C   3,C   4,H   9)          119.7503         0.352662   
     37. A(H   9,C   4,O  16)           28.2940         0.089033   
     38. A(C   0,C   5,H  10)          119.4891         0.348431   
     39. A(C   0,C   5,C   4)          119.7105         0.431249   
     40. A(C   4,C   5,H  10)          120.8003         0.358486   
     41. A(C   4,H   9,O  16)          149.0918         0.089042   
     42. A(C   5,H  10,O  16)          137.2690         0.089035   
     43. A(H  12,N  11,H  13)          117.3287         0.304249   
     44. A(C   0,N  11,H  13)          121.3468         0.362977   
     45. A(C   0,N  11,H  12)          121.3214         0.362938   
     46. A(O  15,N  14,O  16)          145.0678         0.529617   
     47. A(C   4,O  16,H  10)            9.8194         0.089000   
     48. A(H  10,O  16,N  14)          167.3612         0.089051   
     49. A(H   9,O  16,N  14)          171.8234         0.089062   
     50. A(C   4,O  16,N  14)          172.5898         0.089048   
     51. A(H   9,O  16,H  10)           12.3944         0.089000   
     52. D(C   2,C   1,C   0,N  11)   -179.9808         0.021485   
     53. D(C   2,C   1,C   0,C   5)      0.0007         0.021485   
     54. D(H   6,C   1,C   0,N  11)      0.0535         0.021485   
     55. D(H   6,C   1,C   0,C   5)   -179.9650         0.021485   
     56. D(H   7,C   2,C   1,C   0)   -179.9672         0.030651   
     57. D(C   3,C   2,C   1,C   0)      0.0390         0.030651   
     58. D(H   7,C   2,C   1,H   6)     -0.0020         0.030651   
     59. D(C   3,C   2,C   1,H   6)   -179.9958         0.030651   
     60. D(H   8,C   3,C   2,C   1)    179.9721         0.024705   
     61. D(H   8,C   3,C   2,H   7)     -0.0217         0.024705   
     62. D(C   4,C   3,C   2,H   7)    179.9766         0.024705   
     63. D(C   4,C   3,C   2,C   1)     -0.0296         0.024705   
     64. D(H   9,C   4,C   3,C   2)   -179.9843         0.026849   
     65. D(C   5,C   4,C   3,H   8)    179.9771         0.026849   
     66. D(C   5,C   4,C   3,C   2)     -0.0211         0.026849   
     67. D(O  16,C   4,C   3,H   8)     -8.9446         0.026849   
     68. D(O  16,C   4,C   3,C   2)    171.0572         0.026849   
     69. D(H   9,C   4,C   3,H   8)      0.0139         0.026849   
     70. D(H  10,C   5,C   4,O  16)      4.7910         0.033291   
     71. D(H  10,C   5,C   4,C   3)    179.9885         0.033291   
     72. D(C   0,C   5,C   4,O  16)   -175.1369         0.033291   
     73. D(C   0,C   5,C   4,H   9)   -179.9762         0.033291   
     74. D(H  10,C   5,C   0,N  11)      0.0020         0.021467   
     75. D(H  10,C   5,C   0,C   1)   -179.9795         0.021467   
     76. D(C   4,C   5,C   0,N  11)    179.9309         0.021467   
     77. D(H  10,C   5,C   4,H   9)     -0.0483         0.033291   
     78. D(C   0,C   5,C   4,C   3)      0.0606         0.033291   
     79. D(C   4,C   5,C   0,C   1)     -0.0506         0.021467   
     80. D(O  16,H   9,C   4,C   5)     10.2469         0.130879   
     81. D(O  16,H   9,C   4,C   3)   -169.7896         0.130879   
     82. D(O  16,H  10,C   5,C   0)    172.4304         0.116939   
     83. D(O  16,H  10,C   5,C   4)     -7.4977         0.116939   
     84. D(H  13,N  11,C   0,C   5)      0.3678         0.035413   
     85. D(H  13,N  11,C   0,C   1)   -179.6508         0.035413   
     86. D(H  12,N  11,C   0,C   5)    179.7006         0.035413   
     87. D(H  12,N  11,C   0,C   1)     -0.3180         0.035413   
     88. D(H  10,O  16,N  14,O  15)     60.8190         0.148261   
     89. D(H   9,O  16,N  14,O  15)    130.4256         0.148261   
     90. D(C   4,O  16,N  14,O  15)    111.8927         0.148261   
     91. D(C   4,O  16,H  10,C   5)      4.2516         0.001500   
     92. D(N  14,O  16,H  10,C   5)    148.2135         0.001500   
     93. D(H  10,O  16,H   9,C   4)     -8.8483         0.001500   
     94. D(N  14,O  16,H   9,C   4)   -116.0028         0.001500   
     95. D(H  10,O  16,C   4,H   9)    168.8376         0.001500   
     96. D(H  10,O  16,C   4,C   5)     -2.2729         0.001500   
     97. D(H   9,O  16,H  10,C   5)      6.6093         0.001500   
     98. D(H  10,O  16,C   4,C   3)   -174.5902         0.001500   
     99. D(N  14,O  16,C   4,H   9)     82.3622         0.001500   
    100. D(N  14,O  16,C   4,C   5)    -88.7483         0.001500   
    101. D(N  14,O  16,C   4,C   3)     98.9345         0.001500   
    -----------------------------------------------------------------

Number of atoms                         .... 17
Number of degrees of freedom            .... 101

         *************************************************************
         *                GEOMETRY OPTIMIZATION CYCLE   1            *
         *************************************************************
---------------------------------
CARTESIAN COORDINATES (ANGSTROEM)
---------------------------------
  C     -4.450539    0.588279    0.114236
  C     -5.249551   -0.570485    0.300337
  C     -4.673987   -1.815977    0.226826
  C     -3.302626   -1.949923   -0.029962
  C     -2.507816   -0.810377   -0.214497
  C     -3.062125    0.445180   -0.146391
  H     -6.308229   -0.459597    0.498429
  H     -5.283699   -2.698076    0.368227
  H     -2.857203   -2.933699   -0.085814
  H     -1.450111   -0.920031   -0.412628
  H     -2.452544    1.328795   -0.288015
  N     -5.005322    1.812484    0.184801
  H     -5.989266    1.931918    0.364404
  H     -4.455405    2.645454    0.050354
  N      9.754385    4.222212   -1.706654
  O     10.440238    5.160944   -1.640579
  O      8.708041    3.782611   -1.441056

----------------------------
CARTESIAN COORDINATES (A.U.)
----------------------------
  NO LB      ZA    FRAG     MASS         X           Y           Z
   0 C     6.0000    0    12.011   -8.410301    1.111686    0.215875
   1 C     6.0000    0    12.011   -9.920214   -1.078061    0.567555
   2 C     6.0000    0    12.011   -8.832555   -3.431700    0.428639
   3 C     6.0000    0    12.011   -6.241059   -3.684821   -0.056620
   4 C     6.0000    0    12.011   -4.739085   -1.531390   -0.405340
   5 C     6.0000    0    12.011   -5.786578    0.841268   -0.276638
   6 H     1.0000    0     1.008  -11.920825   -0.868513    0.941895
   7 H     1.0000    0     1.008   -9.984744   -5.098625    0.695849
   8 H     1.0000    0     1.008   -5.399332   -5.543888   -0.162165
   9 H     1.0000    0     1.008   -2.740312   -1.738606   -0.779754
  10 H     1.0000    0     1.008   -4.634636    2.511058   -0.544269
  11 N     7.0000    0    14.007   -9.458688    3.425098    0.349223
  12 H     1.0000    0     1.008  -11.318072    3.650796    0.688624
  13 H     1.0000    0     1.008   -8.419496    4.999183    0.095154
  14 N     7.0000    0    14.007   18.433115    7.978825   -3.225108
  15 O     8.0000    0    15.999   19.729190    9.752772   -3.100245
  16 O     8.0000    0    15.999   16.455812    7.148098   -2.723201

--------------------------------
INTERNAL COORDINATES (ANGSTROEM)
--------------------------------
 C      0   0   0     0.000000000000     0.00000000     0.00000000
 C      1   0   0     1.419784428639     0.00000000     0.00000000
 C      2   1   0     1.374019201993   119.80563157     0.00000000
 C      3   2   1     1.401610738006   120.41627308     0.03896283
 C      4   3   2     1.401549949775   120.08444757   359.97035169
 C      5   4   3     1.374161374036   120.50449392     0.00000000
 H      2   1   3     1.082744377840   119.38373536   180.03425313
 H      3   2   1     1.081592098980   119.74480699   180.03276991
 H      4   3   2     1.081358453792   119.96196869   179.97213054
 H      5   4   3     1.081674879236   119.75028674   180.01568486
 H      6   5   4     1.082784206278   120.80034469   179.98851055
 N      1   2   3     1.345897570348   120.23266550   180.01920159
 H     12   1   2     1.007306724624   121.32136309   359.68195204
 H     12   1   2     1.007136282398   121.34675253   180.34919368
 N     10   5   4    12.395881348341   149.42078926   188.85649094
 O     15  10   5     1.164464906685   149.41469491     6.21502048
 O     15  10   5     1.165601535608     7.41032549    65.16080471

---------------------------
INTERNAL COORDINATES (A.U.)
---------------------------
 C      0   0   0     0.000000000000     0.00000000     0.00000000
 C      1   0   0     2.683003739334     0.00000000     0.00000000
 C      2   1   0     2.596519994515   119.80563157     0.00000000
 C      3   2   1     2.648660441195   120.41627308     0.03896283
 C      4   3   2     2.648545568085   120.08444757   359.97035169
 C      5   4   3     2.596788660741   120.50449392     0.00000000
 H      2   1   3     2.046090347161   119.38373536   180.03425313
 H      3   2   1     2.043912855686   119.74480699   180.03276991
 H      4   3   2     2.043471330268   119.96196869   179.97213054
 H      5   4   3     2.044069287699   119.75028674   180.01568486
 H      6   5   4     2.046165612000   120.80034469   179.98851055
 N      1   2   3     2.543377812268   120.23266550   180.01920159
 H     12   1   2     1.903533842397   121.32136309   359.68195204
 H     12   1   2     1.903211753268   121.34675253   180.34919368
 N     10   5   4    23.424820936946   149.42078926   188.85649094
 O     15  10   5     2.200519766197   149.41469491     6.21502048
 O     15  10   5     2.202667683577     7.41032549    65.16080471

---------------------
BASIS SET INFORMATION
---------------------
There are 4 groups of distinct atoms

 Group   1 Type C   : 12s6p3d1f contracted to 6s3p3d1f pattern {621111/411/111/1}
 Group   2 Type H   : 5s2p contracted to 3s2p pattern {311/11}
 Group   3 Type N   : 12s6p3d1f contracted to 6s3p3d1f pattern {621111/411/111/1}
 Group   4 Type O   : 12s7p3d1f contracted to 6s4p3d1f pattern {621111/4111/111/1}

Atom   0C    basis set group =>   1
Atom   1C    basis set group =>   1
Atom   2C    basis set group =>   1
Atom   3C    basis set group =>   1
Atom   4C    basis set group =>   1
Atom   5C    basis set group =>   1
Atom   6H    basis set group =>   2
Atom   7H    basis set group =>   2
Atom   8H    basis set group =>   2
Atom   9H    basis set group =>   2
Atom  10H    basis set group =>   2
Atom  11N    basis set group =>   3
Atom  12H    basis set group =>   2
Atom  13H    basis set group =>   2
Atom  14N    basis set group =>   3
Atom  15O    basis set group =>   4
Atom  16O    basis set group =>   4
---------------------------------
AUXILIARY/J BASIS SET INFORMATION
---------------------------------
There are 4 groups of distinct atoms

 Group   1 Type C   : 12s5p4d2f1g contracted to 6s4p3d1f1g pattern {711111/2111/211/2/1}
 Group   2 Type H   : 5s2p1d contracted to 3s1p1d pattern {311/2/1}
 Group   3 Type N   : 12s5p4d2f1g contracted to 6s4p3d1f1g pattern {711111/2111/211/2/1}
 Group   4 Type O   : 12s5p4d2f1g contracted to 6s4p3d1f1g pattern {711111/2111/211/2/1}

Atom   0C    basis set group =>   1
Atom   1C    basis set group =>   1
Atom   2C    basis set group =>   1
Atom   3C    basis set group =>   1
Atom   4C    basis set group =>   1
Atom   5C    basis set group =>   1
Atom   6H    basis set group =>   2
Atom   7H    basis set group =>   2
Atom   8H    basis set group =>   2
Atom   9H    basis set group =>   2
Atom  10H    basis set group =>   2
Atom  11N    basis set group =>   3
Atom  12H    basis set group =>   2
Atom  13H    basis set group =>   2
Atom  14N    basis set group =>   3
Atom  15O    basis set group =>   4
Atom  16O    basis set group =>   4
------------------------------------------------------------------------------
                           ORCA GTO INTEGRAL CALCULATION
                           -- RI-GTO INTEGRALS CHOSEN --
------------------------------------------------------------------------------
------------------------------------------------------------------------------
                   ___                                                        
                  /   \      - P O W E R E D   B Y -                         
                 /     \                                                     
                 |  |  |   _    _      __       _____    __    __             
                 |  |  |  | |  | |    /  \     |  _  \  |  |  /  |          
                  \  \/   | |  | |   /    \    | | | |  |  | /  /          
                 / \  \   | |__| |  /  /\  \   | |_| |  |  |/  /          
                |  |  |   |  __  | /  /__\  \  |    /   |      \           
                |  |  |   | |  | | |   __   |  |    \   |  |\   \          
                \     /   | |  | | |  |  |  |  | |\  \  |  | \   \       
                 \___/    |_|  |_| |__|  |__|  |_| \__\ |__|  \__/        
                                                                              
                      - O R C A' S   B I G   F R I E N D -                    
                                      &                                       
                       - I N T E G R A L  F E E D E R -                       
                                                                              
 v1 FN, 2020, v2 2021                                                         
------------------------------------------------------------------------------


Reading SHARK input file opt2_1.SHARKINP.tmp ... ok
----------------------
SHARK INTEGRAL PACKAGE
----------------------

Number of atoms                             ...     17
Number of basis functions                   ...    439
Number of shells                            ...    167
Maximum angular momentum                    ...      3
Integral batch strategy                     ... SHARK/LIBINT Hybrid
RI-J (if used) integral strategy            ... SPLIT-RIJ (Revised 2003 algorithm where possible)
Printlevel                                  ...      1
Contraction scheme used                     ... SEGMENTED contraction
Coulomb Range Separation                    ... NOT USED
Exchange Range Separation                   ... NOT USED
Finite Nucleus Model                        ... NOT USED
Auxiliary Coulomb fitting basis             ... AVAILABLE
   # of basis functions in Aux-J            ...    567
   # of shells in Aux-J                     ...    185
   Maximum angular momentum in Aux-J        ...      4
Auxiliary J/K fitting basis                 ... NOT available
Auxiliary Correlation fitting basis         ... NOT available
Auxiliary 'external' fitting basis          ... NOT available
Integral threshold                          ...     2.500000e-11
Primitive cut-off                           ...     2.500000e-12
Primitive pair pre-selection threshold      ...     2.500000e-12

Calculating pre-screening integrals         ... done (  0.3 sec) Dimension = 167
Organizing shell pair data                  ... done (  0.3 sec)
Shell pair information
Total number of shell pairs                 ...     14028
Shell pairs after pre-screening             ...      8718
Total number of primitive shell pairs       ...     37097
Primitive shell pairs kept                  ...     18571
          la=0 lb=0:   2055 shell pairs
          la=1 lb=0:   2383 shell pairs
          la=1 lb=1:    715 shell pairs
          la=2 lb=0:   1477 shell pairs
          la=2 lb=1:    846 shell pairs
          la=2 lb=2:    277 shell pairs
          la=3 lb=0:    480 shell pairs
          la=3 lb=1:    277 shell pairs
          la=3 lb=2:    174 shell pairs
          la=3 lb=3:     34 shell pairs

Calculating one electron integrals          ... done (  0.2 sec)
Calculating RI/J V-Matrix + Cholesky decomp.... done (  0.0 sec)
Calculating Nuclear repulsion               ... done (  0.0 sec) ENN=    380.407204528461 Eh

SHARK setup successfully completed in   1.5 seconds

Maximum memory used throughout the entire GTOINT-calculation: 127.2 MB
-------------------------------------------------------------------------------
                                 ORCA SCF
-------------------------------------------------------------------------------

------------
SCF SETTINGS
------------
Hamiltonian:
 Density Functional     Method          .... DFT(GTOs)
 Exchange Functional    Exchange        .... B88
   X-Alpha parameter    XAlpha          ....  0.666667
   Becke's b parameter  XBeta           ....  0.004200
 Correlation Functional Correlation     .... LYP
 LDA part of GGA corr.  LDAOpt          .... VWN-5
 Gradients option       PostSCFGGA      .... off
 Hybrid DFT is turned on
   Fraction HF Exchange ScalHFX         ....  0.200000
   Scaling of DF-GGA-X  ScalDFX         ....  0.720000
   Scaling of DF-GGA-C  ScalDFC         ....  0.810000
   Scaling of DF-LDA-C  ScalLDAC        ....  1.000000
   Perturbative correction              ....  0.000000
   Density functional embedding theory  .... OFF
   NL short-range parameter             ....  4.800000
 RI-approximation to the Coulomb term is turned on
   Number of AuxJ basis functions       .... 567
   RIJ-COSX (HFX calculated with COS-X)).... on


General Settings:
 Integral files         IntName         .... opt2_1
 Hartree-Fock type      HFTyp           .... RHF
 Total Charge           Charge          ....    1
 Multiplicity           Mult            ....    1
 Number of Electrons    NEL             ....   72
 Basis Dimension        Dim             ....  439
 Nuclear Repulsion      ENuc            ....    380.4072045285 Eh

Convergence Acceleration:
 DIIS                   CNVDIIS         .... on
   Start iteration      DIISMaxIt       ....    12
   Startup error        DIISStart       ....  0.200000
   # of expansion vecs  DIISMaxEq       ....     5
   Bias factor          DIISBfac        ....   1.050
   Max. coefficient     DIISMaxC        ....  10.000
 Trust-Rad. Augm. Hess. CNVTRAH         .... auto
   Auto Start mean grad. ratio tolernc. ....  1.125000
   Auto Start start iteration           ....    20
   Auto Start num. interpolation iter.  ....    10
   Max. Number of Micro iterations      ....    16
   Max. Number of Macro iterations      .... Maxiter - #DIIS iter
   Number of Davidson start vectors     ....     2
   Converg. threshold I  (grad. norm)   ....   1.000e-05
   Converg. threshold II (energy diff.) ....   1.000e-08
   Grad. Scal. Fac. for Micro threshold ....   0.100
   Minimum threshold for Micro iter.    ....   0.010
   NR start threshold (gradient norm)   ....   0.001
   Initial trust radius                 ....   0.400
   Minimum AH scaling param. (alpha)    ....   1.000
   Maximum AH scaling param. (alpha)    .... 1000.000
   Orbital update algorithm             .... Taylor
   White noise on init. David. guess    .... on
   Maximum white noise                  ....   0.010
   Quad. conv. algorithm                .... NR
 SOSCF                  CNVSOSCF        .... on
   Start iteration      SOSCFMaxIt      ....   150
   Startup grad/error   SOSCFStart      ....  0.003300
 Level Shifting         CNVShift        .... on
   Level shift para.    LevelShift      ....    0.2500
   Turn off err/grad.   ShiftErr        ....    0.0010
 Zerner damping         CNVZerner       .... off
 Static damping         CNVDamp         .... on
   Fraction old density DampFac         ....    0.7000
   Max. Damping (<1)    DampMax         ....    0.9800
   Min. Damping (>=0)   DampMin         ....    0.0000
   Turn off err/grad.   DampErr         ....    0.1000
 Fernandez-Rico         CNVRico         .... off

SCF Procedure:
 Maximum # iterations   MaxIter         ....   125
 SCF integral mode      SCFMode         .... Direct
   Integral package                     .... SHARK and LIBINT hybrid scheme
 Reset frequency        DirectResetFreq ....    20
 Integral Threshold     Thresh          ....  2.500e-11 Eh
 Primitive CutOff       TCut            ....  2.500e-12 Eh

Convergence Tolerance:
 Convergence Check Mode ConvCheckMode   .... Total+1el-Energy
 Convergence forced     ConvForced      .... 0
 Energy Change          TolE            ....  1.000e-08 Eh
 1-El. energy change                    ....  1.000e-05 Eh
 Orbital Gradient       TolG            ....  1.000e-05
 Orbital Rotation angle TolX            ....  1.000e-05
 DIIS Error             TolErr          ....  5.000e-07


Diagonalization of the overlap matrix:
Smallest eigenvalue                        ... 6.623e-07
Time for diagonalization                   ...    0.042 sec
Threshold for overlap eigenvalues          ... 1.000e-08
Number of eigenvalues below threshold      ... 0
Time for construction of square roots      ...    0.025 sec
Total time needed                          ...    0.067 sec

Time for model grid setup =    0.684 sec

------------------------------
INITIAL GUESS: MODEL POTENTIAL
------------------------------
Loading Hartree-Fock densities                     ... done
Calculating cut-offs                               ... done
Initializing the effective Hamiltonian             ... done
Setting up the integral package (SHARK)            ... done
Starting the Coulomb interaction                   ... done (   1.2 sec)
Reading the grid                                   ... done
Mapping shells                                     ... done
Starting the XC term evaluation                    ... done (   1.3 sec)
  promolecular density results
     # of electrons  =     72.994835744
     EX              =    -62.471879332
     EC              =     -2.496262184
     EX+EC           =    -64.968141516
Transforming the Hamiltonian                       ... done (   0.0 sec)
Diagonalizing the Hamiltonian                      ... done (   0.0 sec)
Back transforming the eigenvectors                 ... done (   0.0 sec)
Now organizing SCF variables                       ... done
                      ------------------
                      INITIAL GUESS DONE (   3.3 sec)
                      ------------------
-------------------
DFT GRID GENERATION
-------------------

General Integration Accuracy     IntAcc      ... 4.388
Radial Grid Type                 RadialGrid  ... OptM3 with GC (2021)
Angular Grid (max. ang.)         AngularGrid ... 4 (Lebedev-302)
Angular grid pruning method      GridPruning ... 4 (adaptive)
Weight generation scheme         WeightScheme... Becke
Basis function cutoff            BFCut       ... 1.0000e-11
Integration weight cutoff        WCut        ... 1.0000e-14
Angular grids for H and He will be reduced by one unit
Partially contracted basis set               ... off
Rotationally invariant grid construction     ... off

Total number of grid points                  ...    87362
Total number of batches                      ...     1373
Average number of points per batch           ...       63
Average number of grid points per atom       ...     5139
Time for grid setup =    2.568 sec

--------------------
COSX GRID GENERATION
--------------------

GRIDX 1
-------
General Integration Accuracy     IntAcc      ... 3.816
Radial Grid Type                 RadialGrid  ... OptM3 with GC (2021)
Angular Grid (max. ang.)         AngularGrid ... 1 (Lebedev-50)
Angular grid pruning method      GridPruning ... 4 (adaptive)
Weight generation scheme         WeightScheme... Becke
Basis function cutoff            BFCut       ... 1.0000e-11
Integration weight cutoff        WCut        ... 1.0000e-14
Angular grids for H and He will be reduced by one unit
Partially contracted basis set               ... on
Rotationally invariant grid construction     ... off

Total number of grid points                  ...    11010
Total number of batches                      ...      183
Average number of points per batch           ...       60
Average number of grid points per atom       ...      648
UseSFitting                                  ... on

GRIDX 2
-------
General Integration Accuracy     IntAcc      ... 4.020
Radial Grid Type                 RadialGrid  ... OptM3 with GC (2021)
Angular Grid (max. ang.)         AngularGrid ... 2 (Lebedev-110)
Angular grid pruning method      GridPruning ... 4 (adaptive)
Weight generation scheme         WeightScheme... Becke
Basis function cutoff            BFCut       ... 1.0000e-11
Integration weight cutoff        WCut        ... 1.0000e-14
Angular grids for H and He will be reduced by one unit
Partially contracted basis set               ... on
Rotationally invariant grid construction     ... off

Total number of grid points                  ...    27696
Total number of batches                      ...      441
Average number of points per batch           ...       62
Average number of grid points per atom       ...     1629
UseSFitting                                  ... on

GRIDX 3
-------
General Integration Accuracy     IntAcc      ... 4.338
Radial Grid Type                 RadialGrid  ... OptM3 with GC (2021)
Angular Grid (max. ang.)         AngularGrid ... 3 (Lebedev-194)
Angular grid pruning method      GridPruning ... 4 (adaptive)
Weight generation scheme         WeightScheme... Becke
Basis function cutoff            BFCut       ... 1.0000e-11
Integration weight cutoff        WCut        ... 1.0000e-14
Angular grids for H and He will be reduced by one unit
Partially contracted basis set               ... on
Rotationally invariant grid construction     ... off

Total number of grid points                  ...    61210
Total number of batches                      ...      964
Average number of points per batch           ...       63
Average number of grid points per atom       ...     3601
UseSFitting                                  ... on

Time for X-Grid setup             =    2.538 sec

--------------
SCF ITERATIONS
--------------
ITER       Energy         Delta-E        Max-DP      RMS-DP      [F,P]     Damp
               ***  Starting incremental Fock matrix formation  ***
  0   -491.8553066361   0.000000000000 0.16321073  0.00234152  0.2527475 0.7000
  1   -491.9728394592  -0.117532823149 0.08002778  0.00110004  0.1326024 0.7000
                               ***Turning on DIIS***
  2   -492.1319380632  -0.159098603973 0.19423007  0.00232974  0.0364496 0.0000
  3   -492.1584453337  -0.026507270532 0.00456142  0.00008837  0.1286912 0.7000
  4   -492.1697078653  -0.011262531571 0.00466374  0.00009715  0.1142312 0.7000
  5   -492.1802476540  -0.010539788741 0.02005114  0.00036609  0.0999554 0.0000
  6   -492.2101529156  -0.029905261542 0.15799047  0.00322174  0.0517218 0.0000
  7   -491.5893075097   0.620845405882 0.00256598  0.00003925  0.2160773 0.7000
  8   -491.5880130631   0.001294446613 0.00272483  0.00004274  0.2164944 0.7000
  9   -491.5877977656   0.000215297506 0.00290373  0.00004189  0.2162617 0.7000
 10   -491.5902387729  -0.002441007293 0.00497243  0.00007733  0.2149680 0.7000
 11   -491.6016702405  -0.011431467656 0.10827059  0.00193635  0.2123438 0.7000
 12   -491.6737437532  -0.072073512727 0.12578810  0.00298825  0.0889094 0.0000
 13   -491.9551638562  -0.281420102985 0.01104872  0.00019086  0.2689285 0.7000
 14   -492.0090274505  -0.053863594322 0.01137489  0.00020419  0.2380503 0.7000
 15   -492.0573037937  -0.048276343144 0.01347278  0.00019011  0.2082866 0.7000
 16   -492.0946649836  -0.037361189907 0.04898662  0.00106071  0.1821729 0.7000
 17   -492.2625347626  -0.167869779012 0.12722226  0.00247514  0.0975426 0.0000
 18   -491.6835339953   0.579000767290 0.01166418  0.00017288  0.2157336 0.7000
 19   -491.7069471350  -0.023413139689 0.02037580  0.00024159  0.2071609 0.7000
               *** Restarting incremental Fock matrix formation ***
                                   *** Resetting DIIS ***

 WARNING: the maximum gradient error descreased on average only by a factor   1.0
          during the last 20 iterations

                      *** Initiating the TRAH-SCF procedure ***


TRAH GRIDX
----------

General Integration Accuracy     IntAcc      ... 3.067
Radial Grid Type                 RadialGrid  ... OptM3 with GC (2021)
Angular Grid (max. ang.)         AngularGrid ... 1 (Lebedev-50)
Angular grid pruning method      GridPruning ... 4 (adaptive)
Weight generation scheme         WeightScheme... Becke
Basis function cutoff            BFCut       ... 1.0000e-11
Integration weight cutoff        WCut        ... 1.0000e-14
Angular grids for H and He will be reduced by one unit
Partially contracted basis set               ... on
Rotationally invariant grid construction     ... off

Total number of grid points                  ...     5832
Total number of batches                      ...      101
Average number of points per batch           ...       57
Average number of grid points per atom       ...      343


TRAH GRID
---------

General Integration Accuracy     IntAcc      ... 3.467
Radial Grid Type                 RadialGrid  ... OptM3 with GC (2021)
Angular Grid (max. ang.)         AngularGrid ... 1 (Lebedev-50)
Angular grid pruning method      GridPruning ... 4 (adaptive)
Weight generation scheme         WeightScheme... Becke
Basis function cutoff            BFCut       ... 1.0000e-11
Integration weight cutoff        WCut        ... 1.0000e-14
Angular grids for H and He will be reduced by one unit
Partially contracted basis set               ... off
Rotationally invariant grid construction     ... off

Total number of grid points                  ...    12942
Total number of batches                      ...      209
Average number of points per batch           ...       61
Average number of grid points per atom       ...      761

 --------------------------------------------------------------------------------------------
   Iter.        energy            ||Error||_2        Shift      TRadius  Mac/Mic        Rej.
 --------------------------------------------------------------------------------------------
WARNING: 155 diagonal Hessian elements are negative!
    0       -491.787260901978     1.315277e+00                     0.400 (TRAH MAcro)   No
WARNING : negative HOMO - LUMO gap : -0.807745
    0     dE    -7.135238e-02     1.403834e+00    -1.4108e-01      0.107 (TRAH MIcro)
    0     dE    -1.521582e-01     2.356369e-01    -3.4730e-01      0.400 (TRAH MIcro)
    0     dE    -1.562489e-01     1.217831e-01    -3.9387e-01      0.400 (TRAH MIcro)
    0     dE    -1.639340e-01     3.964783e-01    -4.9564e-01      0.400 (TRAH MIcro)
    0     dE    -2.096006e-01     1.443914e+00    -1.5675e+00      0.391 (TRAH MIcro)
    0     dE    -2.224078e-01     4.361102e-01    -3.2991e+00      0.305 (TRAH MIcro)
    0     dE    -1.039621e-01     2.545604e-01    -3.4038e+00      0.140 (TRAH MIcro)
    0     dE    -9.830742e-02     8.947667e-02    -3.4524e+00      0.124 (TRAH MIcro)
    0     dE    -9.821698e-02     1.870067e-02    -3.4632e+00      0.123 (TRAH MIcro)
    0     dE    -9.823027e-02     4.646013e-03    -3.4637e+00      0.123 (TRAH MIcro)
WARNING: 100 diagonal Hessian elements are negative!
    1       -491.884812626284     4.107538e-01                     0.480 (TRAH MAcro)   No
WARNING : negative HOMO - LUMO gap : -0.664078
    1     dE    -1.282889e-02     3.099731e-01    -2.5559e-02      0.062 (TRAH MIcro)
    1     dE    -4.167369e-02     2.782064e-01    -7.1628e-02      0.404 (TRAH MIcro)
    1     dE    -4.893333e-02     8.876656e-02    -9.2048e-02      0.480 (TRAH MIcro)
    1     dE    -4.934571e-02     4.604513e-02    -1.0299e-01      0.480 (TRAH MIcro)
    1     dE    -4.954854e-02     7.815873e-02    -1.1363e-01      0.480 (TRAH MIcro)
    1     dE    -1.283564e-02     1.152803e-01    -4.6177e+00      0.044 (TRAH MIcro)
    1     dE    -1.357802e-02     1.697840e-02    -4.7814e+00      0.045 (TRAH MIcro)
    1     dE    -1.359377e-02     4.187057e-03    -4.7851e+00      0.045 (TRAH MIcro)
WARNING: 85 diagonal Hessian elements are negative!
    2       -491.898370784715     2.147191e-01                     0.576 (TRAH MAcro)   No
WARNING : negative HOMO - LUMO gap : -0.624080
    2     dE    -6.113903e-03     1.898632e-01    -1.2189e-02      0.057 (TRAH MIcro)
    2     dE    -1.892300e-02     1.835106e-01    -3.5315e-02      0.268 (TRAH MIcro)
    2     dE    -2.158100e-02     5.975778e-02    -3.9169e-02      0.319 (TRAH MIcro)
    2     dE    -2.204758e-02     5.566066e-02    -3.9655e-02      0.335 (TRAH MIcro)
    2     dE    -5.532134e-02     1.397936e+00    -6.0593e-01      0.375 (TRAH MIcro)
    2     dE    -9.856689e-03     4.553363e-02    -2.4917e+00      0.065 (TRAH MIcro)
    2     dE    -9.755949e-03     8.341768e-03    -2.5250e+00      0.064 (TRAH MIcro)
WARNING: 77 diagonal Hessian elements are negative!
    3       -491.907971160115     1.546476e-01                     0.691 (TRAH MAcro)   No
WARNING : negative HOMO - LUMO gap : -0.591880
    3     dE    -1.659954e-01     2.928831e+00    -4.7264e-01      0.691 (TRAH MIcro)
    3     dE    -6.265557e-01     6.178133e-01    -2.4613e+00      0.691 (TRAH MIcro)
    3     dE    -6.192359e-01     1.036429e-01    -2.5312e+00      0.678 (TRAH MIcro)
    3     dE    -6.234480e-01     2.518666e-02    -2.5328e+00      0.681 (TRAH MIcro)
    3     dE    -6.240219e-01     5.833618e-03    -2.5329e+00      0.681 (TRAH MIcro)
WARNING: 1 diagonal Hessian elements are negative!
    4       -492.212672994760     8.564533e-01                     0.691 (TRAH MAcro)   No
WARNING : negative HOMO - LUMO gap : -0.012577
    4     dE    -4.026016e-02     1.318920e+00    -7.9780e-02      0.096 (TRAH MIcro)
    4     dE    -9.724512e-02     5.382247e-01    -1.7785e-01      0.306 (TRAH MIcro)
    4     dE    -1.040541e-01     6.863211e-02    -1.8928e-01      0.315 (TRAH MIcro)
    4     dE    -1.042765e-01     3.025739e-02    -1.8953e-01      0.317 (TRAH MIcro)
    4     dE    -1.043441e-01     9.168867e-03    -1.8957e-01      0.318 (TRAH MIcro)
    5       -492.313562871124     8.289936e-02                     0.829 (TRAH MAcro)   No
WARNING : small    HOMO - LUMO gap : 0.008689
    5     dE    -3.468221e-04     1.516487e-01    -6.9359e-04      0.008 (TRAH MIcro)
    5     dE    -4.270545e-04     1.558768e-01    -8.5395e-04      0.014 (TRAH MIcro)
    5     dE    -1.001734e-03     3.033618e-02    -2.0010e-03      0.035 (TRAH MIcro)
    5     dE    -1.036523e-03     1.125178e-02    -2.0703e-03      0.036 (TRAH MIcro)
    5     dE    -1.038940e-03     5.828563e-03    -2.0751e-03      0.037 (TRAH MIcro)
    6       -492.314607216502     6.014925e-03                     0.995 (TRAH MAcro)   No
WARNING : small    HOMO - LUMO gap : 0.007282
    6     dE    -1.108924e-07     3.596442e-03    -2.2182e-07      0.000 (TRAH MIcro)
    6     dE    -2.017328e-07     3.476059e-03    -4.0347e-07      0.000 (TRAH MIcro)
    6     dE    -6.618163e-07     1.744076e-03    -1.3236e-06      0.001 (TRAH MIcro)
    6     dE    -8.274291e-07     8.502617e-04    -1.6549e-06      0.001 (TRAH MIcro)
    6     dE    -8.718505e-07     2.433974e-04    -1.7437e-06      0.001 (TRAH MIcro)
    7       -492.314608088925     2.436306e-04                           (NR   MAcro)
WARNING : small    HOMO - LUMO gap : 0.007211
    7     dE    -2.363467e-09     9.826381e-05                           (NR   MIcro)
    7     dE    -2.857647e-09     8.719189e-05                           (NR   MIcro)
    7     dE    -3.318329e-09     3.861402e-05                           (NR   MIcro)
    7     dE    -3.413898e-09     2.178831e-05                           (NR   MIcro)
    7     dE    -3.447636e-09     8.806597e-06                           (NR   MIcro)
    7     dE    -3.452240e-09     3.009266e-06                           (NR   MIcro)
    7     dE    -3.452599e-09     1.276210e-06                           (NR   MIcro)
    7     dE    -3.452666e-09     3.589680e-07                           (NR   MIcro)
    8       -492.314608092323     5.672008e-07                           (NR   MAcro)
WARNING : small    HOMO - LUMO gap : 0.007211

               *****************************************************
               *                     SUCCESS                       *
               *           SCF CONVERGED AFTER  82 CYCLES          *
               *****************************************************

Old exchange energy                            =    -12.530778086 Eh
New exchange energy                            =    -12.530766389 Eh
Exchange energy change after final integration =      0.000011697 Eh
Total energy after final integration           =   -492.314596396 Eh
Final COS-X integration done in                =    64.450 sec

----------------
TOTAL SCF ENERGY
----------------

Total Energy       :         -492.31459640 Eh          -13396.56124 eV

Components:
Nuclear Repulsion  :          380.40720453 Eh           10351.40629 eV
Electronic Energy  :         -872.72180092 Eh          -23747.96753 eV
One Electron Energy:        -1410.32317326 Eh          -38376.84459 eV
Two Electron Energy:          537.60137234 Eh           14628.87706 eV
Max COSX asymmetry :            0.00000114 Eh               0.00003 eV

Virial components:
Potential Energy   :         -982.60585851 Eh          -26738.06475 eV
Kinetic Energy     :          490.29126212 Eh           13341.50351 eV
Virial Ratio       :            2.00412680


DFT components:
N(Alpha)           :       36.000014092395 electrons
N(Beta)            :       36.000014092395 electrons
N(Total)           :       72.000028184790 electrons
E(X)               :      -50.044484019037 Eh       
E(C)               :       -2.914125735657 Eh       
E(XC)              :      -52.958609754695 Eh       
DFET-embed. en.    :        0.000000000000 Eh       

---------------
SCF CONVERGENCE
---------------

  Last Energy change         ...   -3.3978e-09  Tolerance :   1.0000e-08
  Last Orbital Gradient      ...    5.6720e-07  Tolerance :   1.0000e-05
  Last Orbital Rotation      ...    5.5985e-05

             **** THE GBW FILE WAS UPDATED (opt2_1.gbw) ****
             **** DENSITY opt2_1.scfp WAS UPDATED ****
             **** ENERGY FILE WAS UPDATED (opt2_1.en.tmp) ****
             **** THE GBW FILE WAS UPDATED (opt2_1.gbw) ****
             **** DENSITY opt2_1.scfp WAS UPDATED ****
----------------
ORBITAL ENERGIES
----------------

  NO   OCC          E(Eh)            E(eV) 
   0   2.0000     -19.412907      -528.2521 
   1   2.0000     -19.412643      -528.2449 
   2   2.0000     -14.731349      -400.8604 
   3   2.0000     -14.494368      -394.4118 
   4   2.0000     -10.373636      -282.2810 
   5   2.0000     -10.313127      -280.6345 
   6   2.0000     -10.312845      -280.6268 
   7   2.0000     -10.312464      -280.6164 
   8   2.0000     -10.307660      -280.4857 
   9   2.0000     -10.306996      -280.4676 
  10   2.0000      -1.460395       -39.7394 
  11   2.0000      -1.327959       -36.1356 
  12   2.0000      -1.088023       -29.6066 
  13   2.0000      -0.980355       -26.6768 
  14   2.0000      -0.887430       -24.1482 
  15   2.0000      -0.867067       -23.5941 
  16   2.0000      -0.813360       -22.1327 
  17   2.0000      -0.756242       -20.5784 
  18   2.0000      -0.749831       -20.4039 
  19   2.0000      -0.740483       -20.1496 
  20   2.0000      -0.735770       -20.0213 
  21   2.0000      -0.729450       -19.8493 
  22   2.0000      -0.674194       -18.3458 
  23   2.0000      -0.669436       -18.2163 
  24   2.0000      -0.622600       -16.9418 
  25   2.0000      -0.574301       -15.6275 
  26   2.0000      -0.567363       -15.4387 
  27   2.0000      -0.558917       -15.2089 
  28   2.0000      -0.543735       -14.7958 
  29   2.0000      -0.537439       -14.6245 
  30   2.0000      -0.536640       -14.6027 
  31   2.0000      -0.497146       -13.5280 
  32   2.0000      -0.478140       -13.0108 
  33   2.0000      -0.459023       -12.4906 
  34   2.0000      -0.393519       -10.7082 
  35   2.0000      -0.333157        -9.0657 
  36   0.0000      -0.325945        -8.8694 
  37   0.0000      -0.226201        -6.1552 
  38   0.0000      -0.141638        -3.8542 
  39   0.0000      -0.131855        -3.5879 
  40   0.0000      -0.105638        -2.8746 
  41   0.0000      -0.079575        -2.1654 
  42   0.0000      -0.074391        -2.0243 
  43   0.0000      -0.072141        -1.9631 
  44   0.0000      -0.047993        -1.3059 
  45   0.0000      -0.046373        -1.2619 
  46   0.0000      -0.044660        -1.2152 
  47   0.0000      -0.031331        -0.8526 
  48   0.0000      -0.029331        -0.7981 
  49   0.0000      -0.028137        -0.7657 
  50   0.0000      -0.014834        -0.4036 
  51   0.0000      -0.012096        -0.3292 
  52   0.0000      -0.011221        -0.3053 
  53   0.0000       0.012595         0.3427 
  54   0.0000       0.017493         0.4760 
  55   0.0000       0.021833         0.5941 
  56   0.0000       0.024669         0.6713 
  57   0.0000       0.025786         0.7017 
  58   0.0000       0.026611         0.7241 
  59   0.0000       0.028622         0.7789 
  60   0.0000       0.036836         1.0024 
  61   0.0000       0.043283         1.1778 
  62   0.0000       0.058023         1.5789 
  63   0.0000       0.062202         1.6926 
  64   0.0000       0.072254         1.9661 
  65   0.0000       0.075430         2.0526 
  66   0.0000       0.081762         2.2249 
  67   0.0000       0.092173         2.5082 
  68   0.0000       0.094688         2.5766 
  69   0.0000       0.101687         2.7671 
  70   0.0000       0.106460         2.8969 
  71   0.0000       0.112758         3.0683 
  72   0.0000       0.120265         3.2726 
  73   0.0000       0.120940         3.2909 
  74   0.0000       0.127994         3.4829 
  75   0.0000       0.130120         3.5407 
  76   0.0000       0.134864         3.6698 
  77   0.0000       0.139160         3.7867 
  78   0.0000       0.140164         3.8141 
  79   0.0000       0.141476         3.8498 
  80   0.0000       0.152070         4.1380 
  81   0.0000       0.154543         4.2053 
  82   0.0000       0.158024         4.3000 
  83   0.0000       0.158275         4.3069 
  84   0.0000       0.166890         4.5413 
  85   0.0000       0.168166         4.5760 
  86   0.0000       0.182305         4.9608 
  87   0.0000       0.187565         5.1039 
  88   0.0000       0.194273         5.2865 
  89   0.0000       0.199658         5.4330 
  90   0.0000       0.207964         5.6590 
  91   0.0000       0.215738         5.8705 
  92   0.0000       0.220760         6.0072 
  93   0.0000       0.229938         6.2569 
  94   0.0000       0.232207         6.3187 
  95   0.0000       0.233617         6.3570 
  96   0.0000       0.249899         6.8001 
  97   0.0000       0.250712         6.8222 
  98   0.0000       0.253794         6.9061 
  99   0.0000       0.260132         7.0786 
 100   0.0000       0.261041         7.1033 
 101   0.0000       0.266183         7.2432 
 102   0.0000       0.267247         7.2722 
 103   0.0000       0.268633         7.3099 
 104   0.0000       0.275974         7.5096 
 105   0.0000       0.281324         7.6552 
 106   0.0000       0.281533         7.6609 
 107   0.0000       0.281685         7.6650 
 108   0.0000       0.282595         7.6898 
 109   0.0000       0.285056         7.7568 
 110   0.0000       0.300046         8.1647 
 111   0.0000       0.300396         8.1742 
 112   0.0000       0.304848         8.2953 
 113   0.0000       0.313474         8.5301 
 114   0.0000       0.320730         8.7275 
 115   0.0000       0.323731         8.8092 
 116   0.0000       0.323875         8.8131 
 117   0.0000       0.334508         9.1024 
 118   0.0000       0.341520         9.2932 
 119   0.0000       0.344239         9.3672 
 120   0.0000       0.353506         9.6194 
 121   0.0000       0.357496         9.7279 
 122   0.0000       0.365096         9.9348 
 123   0.0000       0.373427        10.1615 
 124   0.0000       0.382276        10.4023 
 125   0.0000       0.383372        10.4321 
 126   0.0000       0.389633        10.6024 
 127   0.0000       0.390748        10.6328 
 128   0.0000       0.392763        10.6876 
 129   0.0000       0.398579        10.8459 
 130   0.0000       0.416688        11.3387 
 131   0.0000       0.418865        11.3979 
 132   0.0000       0.418947        11.4001 
 133   0.0000       0.423606        11.5269 
 134   0.0000       0.427026        11.6200 
 135   0.0000       0.428624        11.6634 
 136   0.0000       0.438558        11.9338 
 137   0.0000       0.451816        12.2945 
 138   0.0000       0.451994        12.2994 
 139   0.0000       0.452106        12.3024 
 140   0.0000       0.464182        12.6310 
 141   0.0000       0.472433        12.8556 
 142   0.0000       0.476818        12.9749 
 143   0.0000       0.479401        13.0452 
 144   0.0000       0.492387        13.3985 
 145   0.0000       0.512777        13.9534 
 146   0.0000       0.515322        14.0226 
 147   0.0000       0.517374        14.0785 
 148   0.0000       0.519410        14.1339 
 149   0.0000       0.532947        14.5022 
 150   0.0000       0.535194        14.5634 
 151   0.0000       0.538205        14.6453 
 152   0.0000       0.541739        14.7415 
 153   0.0000       0.546725        14.8771 
 154   0.0000       0.550023        14.9669 
 155   0.0000       0.552448        15.0329 
 156   0.0000       0.564358        15.3570 
 157   0.0000       0.571497        15.5512 
 158   0.0000       0.572496        15.5784 
 159   0.0000       0.586810        15.9679 
 160   0.0000       0.595270        16.1981 
 161   0.0000       0.600126        16.3303 
 162   0.0000       0.615879        16.7589 
 163   0.0000       0.622339        16.9347 
 164   0.0000       0.624768        17.0008 
 165   0.0000       0.626638        17.0517 
 166   0.0000       0.631003        17.1705 
 167   0.0000       0.637259        17.3407 
 168   0.0000       0.644794        17.5457 
 169   0.0000       0.657561        17.8931 
 170   0.0000       0.665343        18.1049 
 171   0.0000       0.673187        18.3183 
 172   0.0000       0.678956        18.4753 
 173   0.0000       0.690839        18.7987 
 174   0.0000       0.702412        19.1136 
 175   0.0000       0.715321        19.4649 
 176   0.0000       0.717060        19.5122 
 177   0.0000       0.732600        19.9351 
 178   0.0000       0.738609        20.0986 
 179   0.0000       0.790054        21.4985 
 180   0.0000       0.793574        21.5943 
 181   0.0000       0.799874        21.7657 
 182   0.0000       0.805504        21.9189 
 183   0.0000       0.809914        22.0389 
 184   0.0000       0.829117        22.5614 
 185   0.0000       0.829305        22.5665 
 186   0.0000       0.838591        22.8192 
 187   0.0000       0.847020        23.0486 
 188   0.0000       0.847132        23.0516 
 189   0.0000       0.860526        23.4161 
 190   0.0000       0.865978        23.5645 
 191   0.0000       0.872962        23.7545 
 192   0.0000       0.876179        23.8420 
 193   0.0000       0.883605        24.0441 
 194   0.0000       0.937383        25.5075 
 195   0.0000       0.965109        26.2619 
 196   0.0000       0.977294        26.5935 
 197   0.0000       0.984942        26.8016 
 198   0.0000       0.995372        27.0854 
 199   0.0000       1.020842        27.7785 
 200   0.0000       1.021336        27.7920 
 201   0.0000       1.069601        29.1053 
 202   0.0000       1.100022        29.9331 
 203   0.0000       1.112403        30.2700 
 204   0.0000       1.114336        30.3226 
 205   0.0000       1.118199        30.4277 
 206   0.0000       1.118601        30.4387 
 207   0.0000       1.121189        30.5091 
 208   0.0000       1.129203        30.7272 
 209   0.0000       1.167361        31.7655 
 210   0.0000       1.203630        32.7524 
 211   0.0000       1.204031        32.7633 
 212   0.0000       1.221339        33.2343 
 213   0.0000       1.245053        33.8796 
 214   0.0000       1.250969        34.0406 
 215   0.0000       1.272048        34.6142 
 216   0.0000       1.277724        34.7686 
 217   0.0000       1.340647        36.4809 
 218   0.0000       1.354718        36.8638 
 219   0.0000       1.382792        37.6277 
 220   0.0000       1.386136        37.7187 
 221   0.0000       1.413770        38.4706 
 222   0.0000       1.446054        39.3491 
 223   0.0000       1.462999        39.8102 
 224   0.0000       1.489329        40.5267 
 225   0.0000       1.491065        40.5739 
 226   0.0000       1.495105        40.6839 
 227   0.0000       1.532102        41.6906 
 228   0.0000       1.544306        42.0227 
 229   0.0000       1.550274        42.1851 
 230   0.0000       1.581611        43.0378 
 231   0.0000       1.588510        43.2256 
 232   0.0000       1.592138        43.3243 
 233   0.0000       1.603884        43.6439 
 234   0.0000       1.608010        43.7562 
 235   0.0000       1.620635        44.0997 
 236   0.0000       1.640672        44.6449 
 237   0.0000       1.680271        45.7225 
 238   0.0000       1.689923        45.9851 
 239   0.0000       1.705799        46.4171 
 240   0.0000       1.707483        46.4630 
 241   0.0000       1.720723        46.8233 
 242   0.0000       1.739083        47.3229 
 243   0.0000       1.745489        47.4972 
 244   0.0000       1.748383        47.5759 
 245   0.0000       1.784204        48.5507 
 246   0.0000       1.786098        48.6022 
 247   0.0000       1.803538        49.0768 
 248   0.0000       1.807773        49.1920 
 249   0.0000       1.811771        49.3008 
 250   0.0000       1.829740        49.7897 
 251   0.0000       1.903293        51.7912 
 252   0.0000       1.927669        52.4545 
 253   0.0000       1.929067        52.4926 
 254   0.0000       1.942759        52.8652 
 255   0.0000       1.951744        53.1096 
 256   0.0000       1.962016        53.3892 
 257   0.0000       1.996922        54.3390 
 258   0.0000       2.024731        55.0957 
 259   0.0000       2.031165        55.2708 
 260   0.0000       2.044444        55.6321 
 261   0.0000       2.053705        55.8842 
 262   0.0000       2.071760        56.3754 
 263   0.0000       2.080035        56.6006 
 264   0.0000       2.119051        57.6623 
 265   0.0000       2.127292        57.8866 
 266   0.0000       2.134050        58.0704 
 267   0.0000       2.143110        58.3170 
 268   0.0000       2.161570        58.8193 
 269   0.0000       2.180539        59.3355 
 270   0.0000       2.208707        60.1020 
 271   0.0000       2.253778        61.3284 
 272   0.0000       2.255963        61.3879 
 273   0.0000       2.282524        62.1106 
 274   0.0000       2.302642        62.6581 
 275   0.0000       2.319075        63.1052 
 276   0.0000       2.379608        64.7524 
 277   0.0000       2.381749        64.8107 
 278   0.0000       2.392172        65.0943 
 279   0.0000       2.417050        65.7713 
 280   0.0000       2.483680        67.5844 
 281   0.0000       2.487297        67.6828 
 282   0.0000       2.498871        67.9977 
 283   0.0000       2.510431        68.3123 
 284   0.0000       2.518029        68.5190 
 285   0.0000       2.535840        69.0037 
 286   0.0000       2.571215        69.9663 
 287   0.0000       2.572885        70.0118 
 288   0.0000       2.605906        70.9103 
 289   0.0000       2.645581        71.9899 
 290   0.0000       2.650976        72.1367 
 291   0.0000       2.657368        72.3107 
 292   0.0000       2.666166        72.5501 
 293   0.0000       2.669466        72.6399 
 294   0.0000       2.707977        73.6878 
 295   0.0000       2.727111        74.2085 
 296   0.0000       2.746320        74.7312 
 297   0.0000       2.749833        74.8268 
 298   0.0000       2.768674        75.3394 
 299   0.0000       2.770055        75.3770 
 300   0.0000       2.779751        75.6409 
 301   0.0000       2.798609        76.1540 
 302   0.0000       2.826626        76.9164 
 303   0.0000       2.826823        76.9218 
 304   0.0000       2.854084        77.6636 
 305   0.0000       2.858890        77.7944 
 306   0.0000       2.874984        78.2323 
 307   0.0000       2.928812        79.6970 
 308   0.0000       2.952919        80.3530 
 309   0.0000       2.965589        80.6978 
 310   0.0000       2.988698        81.3266 
 311   0.0000       2.999921        81.6320 
 312   0.0000       3.009973        81.9055 
 313   0.0000       3.010828        81.9288 
 314   0.0000       3.031004        82.4778 
 315   0.0000       3.048745        82.9606 
 316   0.0000       3.089266        84.0632 
 317   0.0000       3.133578        85.2690 
 318   0.0000       3.144922        85.5777 
 319   0.0000       3.167498        86.1920 
 320   0.0000       3.180133        86.5358 
 321   0.0000       3.180157        86.5365 
 322   0.0000       3.183670        86.6321 
 323   0.0000       3.186210        86.7012 
 324   0.0000       3.222747        87.6954 
 325   0.0000       3.223054        87.7037 
 326   0.0000       3.236580        88.0718 
 327   0.0000       3.240092        88.1674 
 328   0.0000       3.257185        88.6325 
 329   0.0000       3.272835        89.0584 
 330   0.0000       3.277332        89.1807 
 331   0.0000       3.299688        89.7891 
 332   0.0000       3.304120        89.9097 
 333   0.0000       3.342660        90.9584 
 334   0.0000       3.358185        91.3809 
 335   0.0000       3.380501        91.9881 
 336   0.0000       3.400233        92.5250 
 337   0.0000       3.403843        92.6233 
 338   0.0000       3.407640        92.7266 
 339   0.0000       3.435267        93.4784 
 340   0.0000       3.500650        95.2575 
 341   0.0000       3.547797        96.5405 
 342   0.0000       3.549309        96.5816 
 343   0.0000       3.553494        96.6955 
 344   0.0000       3.556987        96.7905 
 345   0.0000       3.579451        97.4018 
 346   0.0000       3.613197        98.3201 
 347   0.0000       3.622644        98.5772 
 348   0.0000       3.625494        98.6547 
 349   0.0000       3.674340        99.9839 
 350   0.0000       3.707729       100.8924 
 351   0.0000       3.756123       102.2093 
 352   0.0000       3.760655       102.3326 
 353   0.0000       3.794337       103.2492 
 354   0.0000       3.844016       104.6010 
 355   0.0000       3.876181       105.4762 
 356   0.0000       3.950353       107.4946 
 357   0.0000       3.968651       107.9925 
 358   0.0000       3.982012       108.3561 
 359   0.0000       3.995011       108.7098 
 360   0.0000       3.998466       108.8038 
 361   0.0000       4.032767       109.7372 
 362   0.0000       4.071521       110.7917 
 363   0.0000       4.103895       111.6727 
 364   0.0000       4.117994       112.0563 
 365   0.0000       4.119836       112.1064 
 366   0.0000       4.149363       112.9099 
 367   0.0000       4.155030       113.0641 
 368   0.0000       4.171628       113.5158 
 369   0.0000       4.192320       114.0788 
 370   0.0000       4.193256       114.1043 
 371   0.0000       4.209907       114.5574 
 372   0.0000       4.224556       114.9560 
 373   0.0000       4.253247       115.7367 
 374   0.0000       4.260453       115.9328 
 375   0.0000       4.319611       117.5426 
 376   0.0000       4.327905       117.7683 
 377   0.0000       4.385602       119.3383 
 378   0.0000       4.516646       122.9042 
 379   0.0000       4.524499       123.1179 
 380   0.0000       4.540253       123.5466 
 381   0.0000       4.588496       124.8593 
 382   0.0000       4.632532       126.0576 
 383   0.0000       4.642561       126.3305 
 384   0.0000       4.677365       127.2776 
 385   0.0000       4.703479       127.9882 
 386   0.0000       4.733934       128.8169 
 387   0.0000       4.736823       128.8955 
 388   0.0000       4.781556       130.1127 
 389   0.0000       4.797974       130.5595 
 390   0.0000       4.888830       133.0318 
 391   0.0000       4.888937       133.0347 
 392   0.0000       4.909090       133.5831 
 393   0.0000       4.910630       133.6250 
 394   0.0000       4.928306       134.1060 
 395   0.0000       4.934343       134.2703 
 396   0.0000       4.946967       134.6138 
 397   0.0000       5.042481       137.2129 
 398   0.0000       5.055870       137.5772 
 399   0.0000       5.095694       138.6609 
 400   0.0000       5.167197       140.6066 
 401   0.0000       5.183718       141.0561 
 402   0.0000       5.224815       142.1744 
 403   0.0000       5.242108       142.6450 
 404   0.0000       5.267700       143.3414 
 405   0.0000       5.274731       143.5327 
 406   0.0000       5.394999       146.8054 
 407   0.0000       5.458874       148.5435 
 408   0.0000       5.506431       149.8376 
 409   0.0000       5.521851       150.2572 
 410   0.0000       5.538670       150.7149 
 411   0.0000       5.817806       158.3105 
 412   0.0000       5.971602       162.4956 
 413   0.0000       6.091981       165.7712 
 414   0.0000       6.158455       167.5801 
 415   0.0000       6.172423       167.9602 
 416   0.0000       6.200107       168.7135 
 417   0.0000       6.202869       168.7886 
 418   0.0000       6.227368       169.4553 
 419   0.0000       6.271476       170.6555 
 420   0.0000       6.406830       174.3387 
 421   0.0000       6.682888       181.8506 
 422   0.0000       6.790127       184.7687 
 423   0.0000       6.790740       184.7854 
 424   0.0000       6.912483       188.0982 
 425   0.0000       7.011446       190.7912 
 426   0.0000       7.179003       195.3506 
 427   0.0000       7.508681       204.3216 
 428   0.0000       7.721749       210.1195 
 429   0.0000      22.382546       609.0600 
 430   0.0000      22.595256       614.8482 
 431   0.0000      22.639007       616.0387 
 432   0.0000      22.767117       619.5247 
 433   0.0000      22.866847       622.2386 
 434   0.0000      23.230040       632.1215 
 435   0.0000      32.251668       877.6125 
 436   0.0000      32.325188       879.6131 
 437   0.0000      44.009181      1197.5507 
 438   0.0000      44.061784      1198.9821 

                    ********************************
                    * MULLIKEN POPULATION ANALYSIS *
                    ********************************

-----------------------
MULLIKEN ATOMIC CHARGES
-----------------------
   0 C :    1.225856
   1 C :   -0.459466
   2 C :   -0.455272
   3 C :   -0.362562
   4 C :   -0.444532
   5 C :   -0.461750
   6 H :    0.278905
   7 H :    0.317294
   8 H :    0.343649
   9 H :    0.311839
  10 H :    0.273111
  11 N :   -0.322074
  12 H :    0.196256
  13 H :    0.194575
  14 N :    0.855472
  15 O :   -0.241980
  16 O :   -0.249321
Sum of atomic charges:    1.0000000

--------------------------------
MULLIKEN REDUCED ORBITAL CHARGES
--------------------------------
  0 C s       :     3.045924  s :     3.045924
      pz      :     0.745959  p :     1.679481
      px      :     0.362760
      py      :     0.570762
      dz2     :    -0.006970  d :     0.034930
      dxz     :    -0.022544
      dyz     :     0.026523
      dx2y2   :     0.031229
      dxy     :     0.006692
      f0      :     0.002056  f :     0.013810
      f+1     :     0.000973
      f-1     :     0.001131
      f+2     :     0.001518
      f-2     :     0.001686
      f+3     :     0.002410
      f-3     :     0.004037
  1 C s       :     3.481984  s :     3.481984
      pz      :     1.005729  p :     2.968776
      px      :     1.004019
      py      :     0.959028
      dz2     :     0.009636  d :     0.001473
      dxz     :     0.011581
      dyz     :     0.009530
      dx2y2   :     0.017873
      dxy     :    -0.047148
      f0      :     0.001363  f :     0.007234
      f+1     :     0.000607
      f-1     :     0.000571
      f+2     :     0.000417
      f-2     :     0.000890
      f+3     :     0.001273
      f-3     :     0.002113
  2 C s       :     3.512113  s :     3.512113
      pz      :     0.923442  p :     2.896404
      px      :     0.924545
      py      :     1.048416
      dz2     :     0.004212  d :     0.039422
      dxz     :     0.006267
      dyz     :     0.001637
      dx2y2   :    -0.009353
      dxy     :     0.036659
      f0      :     0.001372  f :     0.007334
      f+1     :     0.000761
      f-1     :     0.000482
      f+2     :     0.000919
      f-2     :     0.000461
      f+3     :     0.001280
      f-3     :     0.002059
  3 C s       :     3.479488  s :     3.479488
      pz      :     0.909857  p :     2.812297
      px      :     0.883107
      py      :     1.019333
      dz2     :     0.006844  d :     0.063709
      dxz     :     0.012999
      dyz     :     0.015943
      dx2y2   :     0.010504
      dxy     :     0.017418
      f0      :     0.001126  f :     0.007067
      f+1     :     0.000737
      f-1     :     0.000573
      f+2     :     0.000671
      f-2     :     0.000611
      f+3     :     0.001349
      f-3     :     0.002001
  4 C s       :     3.506300  s :     3.506300
      pz      :     0.928574  p :     2.893982
      px      :     1.046455
      py      :     0.918953
      dz2     :     0.004101  d :     0.036918
      dxz     :    -0.003156
      dyz     :     0.010251
      dx2y2   :     0.034453
      dxy     :    -0.008730
      f0      :     0.001432  f :     0.007332
      f+1     :     0.000610
      f-1     :     0.000525
      f+2     :     0.000410
      f-2     :     0.001004
      f+3     :     0.001279
      f-3     :     0.002072
  5 C s       :     3.480383  s :     3.480383
      pz      :     1.004084  p :     2.974805
      px      :     0.875767
      py      :     1.094954
      dz2     :     0.008974  d :    -0.000671
      dxz     :     0.008413
      dyz     :     0.013419
      dx2y2   :    -0.049787
      dxy     :     0.018310
      f0      :     0.001314  f :     0.007233
      f+1     :     0.000766
      f-1     :     0.000495
      f+2     :     0.000848
      f-2     :     0.000445
      f+3     :     0.001404
      f-3     :     0.001961
  6 H s       :     0.688245  s :     0.688245
      pz      :     0.012512  p :     0.032849
      px      :     0.000765
      py      :     0.019572
  7 H s       :     0.663512  s :     0.663512
      pz      :     0.007071  p :     0.019194
      px      :     0.004725
      py      :     0.007398
  8 H s       :     0.639282  s :     0.639282
      pz      :     0.010577  p :     0.017069
      px      :     0.004436
      py      :     0.002056
  9 H s       :     0.668427  s :     0.668427
      pz      :     0.007444  p :     0.019734
      px      :     0.003136
      py      :     0.009154
 10 H s       :     0.693364  s :     0.693364
      pz      :     0.013270  p :     0.033525
      px      :     0.014988
      py      :     0.005267
 11 N s       :     3.495530  s :     3.495530
      pz      :     1.567547  p :     3.760442
      px      :     1.134622
      py      :     1.058273
      dz2     :     0.008174  d :     0.062739
      dxz     :     0.007280
      dyz     :     0.020822
      dx2y2   :     0.014359
      dxy     :     0.012104
      f0      :     0.000648  f :     0.003362
      f+1     :     0.000475
      f-1     :     0.000514
      f+2     :     0.000206
      f-2     :     0.000207
      f+3     :     0.000784
      f-3     :     0.000529
 12 H s       :     0.761659  s :     0.761659
[...]
     29       0.008623   0.004874  -0.025141   0.012367  -0.029026  -0.024112
     30       0.401031  -0.251779   0.195199   0.328557   0.293791   0.313213
     31      -0.223372   0.148310   0.068937  -0.266359  -0.209023  -0.092744
     32      -0.063297   0.039138  -0.036340  -0.048841  -0.044662  -0.051894
     33       0.012904  -0.075551   0.059329  -0.031692  -0.010739   0.015607
     34      -0.025813   0.134106   0.032735   0.058444  -0.005629  -0.028770
     35      -0.001424   0.008897  -0.011406   0.003649   0.002055  -0.001781
     36       0.016932  -0.079658   0.045738  -0.030860  -0.005503   0.029828
     37      -0.014969   0.359087  -0.238459   0.200817   0.067280   0.409340
     38      -0.002371   0.002358  -0.000787  -0.001060  -0.001056  -0.018788
     39       0.087342  -0.230127  -0.175727  -0.152547   0.050089  -0.358063
     40      -0.070575   0.239671   0.165845   0.134179  -0.038097   0.191586
     41      -0.013103   0.032520   0.025811   0.022401  -0.007673   0.055971
     42      -0.003409   0.017911  -0.000016   0.004076   0.000025   0.007596
     43       0.004877  -0.025575   0.000057  -0.005858   0.000021  -0.011118
     44       0.002888  -0.015161   0.000025  -0.003462  -0.000002  -0.006517
     45      -0.005812   0.030174  -0.000039   0.004132  -0.000012   0.005849
     46      -0.007603   0.039673  -0.000061   0.006994  -0.000016   0.011755
     47      -0.000389   0.002091  -0.000008   0.000808  -0.000001   0.001760
     48       0.008789  -0.045851   0.000052  -0.007706  -0.000013  -0.012512
     49       0.003338  -0.017287   0.000012  -0.001871  -0.000005  -0.002029
     50      -0.002136   0.011181  -0.000015   0.002224   0.000003   0.003948
                 42         43         44         45         46         47    
      0      -0.040829   0.000031   0.002066   0.001388   0.000953   0.001389
      1       0.075014  -0.000103  -0.001181   0.002103  -0.001490   0.000868
      2       0.004811  -0.000000  -0.000327  -0.000309  -0.000120  -0.000269
      3       0.013107  -0.000012   0.018315  -0.076219   0.024376  -0.021678
      4      -0.037795   0.000149   0.000069   0.002001  -0.001489   0.002958
      5      -0.001079  -0.000006  -0.003198   0.013232  -0.004203   0.003686
      6      -0.022353   0.000114  -0.006252   0.016078   0.015417  -0.028935
      7       0.020591  -0.000101  -0.009619   0.023283   0.030949  -0.052363
      8       0.003242  -0.000026   0.001400  -0.003551  -0.003687   0.006733
      9       0.005280  -0.000021  -0.005488   0.003290   0.026596   0.000116
     10      -0.009831   0.000035   0.010027  -0.006048  -0.048220   0.007768
     11      -0.000619  -0.000006   0.000645  -0.000387  -0.003143  -0.000263
     12      -0.005266  -0.000066   0.030824   0.003753  -0.042684  -0.056174
     13       0.030168  -0.000117   0.001197   0.000517   0.003756   0.002648
     14      -0.000031   0.000012  -0.005482  -0.000678   0.007411   0.009825
     15       0.024632  -0.000089  -0.038544  -0.011068  -0.012965  -0.008065
     16      -0.031443   0.000046  -0.064871  -0.019735  -0.024332  -0.018309
     17      -0.003313   0.000016   0.008790   0.002557   0.003039   0.001992
     18       0.019497  -0.000018  -0.210012   0.878308  -0.271489   0.235963
     19       0.048712  -0.000074   0.004718  -0.022066   0.007848  -0.008469
     20      -0.004965   0.000009   0.036494  -0.152557   0.047120  -0.040904
     21       0.041054  -0.000105   0.069627  -0.175404  -0.197451   0.341695
     22      -0.016628   0.000034   0.118064  -0.294493  -0.342035   0.585248
     23      -0.006614   0.000028  -0.015946   0.040070   0.045447  -0.078426
     24       0.005901  -0.000241   0.065088  -0.038752  -0.309005   0.032649
     25      -0.010887  -0.000080  -0.119060   0.071622   0.566121  -0.070252
     26      -0.000677   0.000011  -0.007660   0.004541   0.036341  -0.003514
     27      -0.007960  -0.000072  -0.372125  -0.047543   0.488800   0.635462
     28      -0.043924  -0.000117   0.008218   0.000402  -0.016560  -0.018478
     29       0.002778   0.000013   0.065450   0.008383  -0.085782  -0.111621
     30      -0.051428  -0.000262   0.442466   0.132576   0.154083   0.106970
     31       0.009527   0.000126   0.748881   0.225459   0.263793   0.186113
     32       0.008723   0.000008  -0.100987  -0.030289  -0.035272  -0.024584
     33       0.059828  -0.000029  -0.000260  -0.000297  -0.000129  -0.000187
     34      -0.109642   0.000009   0.000014  -0.000256   0.000197  -0.000123
     35      -0.006837   0.000011   0.000046   0.000061   0.000017   0.000038
     36       0.085054  -0.000010   0.001350   0.001237  -0.001324   0.000497
     37       0.687951   0.000259   0.003210  -0.003666   0.002204  -0.000415
     38      -0.037986  -0.000005  -0.000334  -0.000102   0.000160  -0.000073
     39      -0.620536  -0.000322  -0.003761   0.001765  -0.001137  -0.000015
     40       0.292203   0.000281   0.002887   0.001031   0.002360   0.000380
     41       0.097873   0.000040   0.000554  -0.000347   0.000115  -0.000011
     42      -0.003281   0.666287   0.000044  -0.000023   0.000098   0.000002
     43       0.004714   0.503750  -0.000063   0.000034  -0.000141  -0.000003
     44       0.002786  -0.078155  -0.000037   0.000020  -0.000083  -0.000002
     45      -0.002360  -0.236068   0.000007  -0.000004   0.000016  -0.000000
     46      -0.004903  -0.308253   0.000047  -0.000026   0.000107   0.000002
     47      -0.000765  -0.015665   0.000013  -0.000007   0.000029   0.000001
     48       0.005236  -0.347139  -0.000046   0.000024  -0.000103  -0.000002
     49       0.000782  -0.132742   0.000007  -0.000004   0.000017   0.000000
     50      -0.001674   0.084079   0.000020  -0.000010   0.000044   0.000001
                 48         49         50    
      0       0.000360   0.000832   0.000772
      1      -0.000774  -0.001519   0.000408
      2      -0.000038  -0.000105  -0.000146
      3       0.012197  -0.000010  -0.000451
      4      -0.002339  -0.000846  -0.000433
      5      -0.002052   0.000029   0.000091
      6       0.023124   0.000088   0.000092
      7       0.036822   0.000248  -0.000004
      8      -0.005220  -0.000023  -0.000016
      9      -0.031722   0.000081  -0.000076
     10       0.057895  -0.000138  -0.000044
     11       0.003734  -0.000010   0.000014
     12      -0.038626  -0.000253   0.000043
     13      -0.000358   0.000048   0.000086
     14       0.006823   0.000044  -0.000011
     15      -0.004046   0.000715  -0.000588
     16      -0.010450  -0.000436  -0.000155
     17       0.001040  -0.000111   0.000109
     18      -0.126258  -0.000045   0.001774
     19       0.005243   0.000812  -0.001012
     20       0.021861  -0.000024  -0.000274
     21      -0.244078  -0.000642  -0.000208
     22      -0.411131  -0.000600   0.000015
     23       0.055800   0.000130   0.000036
     24       0.353269  -0.000457   0.000041
     25      -0.647724   0.000857   0.000029
     26      -0.041531   0.000050  -0.000009
     27       0.423100   0.000850  -0.000096
     28      -0.009198   0.000235  -0.000177
     29      -0.074415  -0.000158   0.000022
     30       0.055997  -0.000656   0.000101
     31       0.098556   0.000466   0.002084
     32      -0.012905   0.000097  -0.000084
     33      -0.000001  -0.026570   0.074355
     34       0.000014   0.047239   0.042021
     35       0.000000   0.002965  -0.014335
     36      -0.000187   0.700486  -0.688235
     37       0.000769  -0.023452   0.032350
     38       0.000009  -0.120418   0.117900
     39      -0.000539  -0.347622  -0.344123
     40       0.000532  -0.603223  -0.615529
     41       0.000078   0.081204   0.081107
     42       0.000066   0.000509   0.000014
     43      -0.000095  -0.000732  -0.000013
     44      -0.000057  -0.000432  -0.000009
     45       0.000011   0.000074  -0.000000
     46       0.000072   0.000541   0.000010
     47       0.000020   0.000154   0.000003
     48      -0.000069  -0.000520  -0.000013
     49       0.000012   0.000098   0.000002
     50       0.000029   0.000225   0.000005


-----------
IR SPECTRUM
-----------

 Mode   freq       eps      Int      T**2         TX        TY        TZ
       cm**-1   L/(mol*cm) km/mol    a.u.
----------------------------------------------------------------------------
  9:      4.90   0.000000    0.00  0.000000  ( 0.000000  0.000000  0.000000)
 10:      6.69   0.000049    0.25  0.002288  ( 0.029794  0.022644 -0.029798)
 11:     12.42   0.000021    0.11  0.000535  (-0.008298  0.010992 -0.018585)
 12:    198.28   0.001257    6.35  0.001979  ( 0.007472  0.001402  0.043832)
 13:    386.98   0.000376    1.90  0.000303  ( 0.014767  0.008647 -0.003230)
 14:    389.00   0.000006    0.03  0.000005  ( 0.000294  0.000151  0.002243)
 15:    423.91   0.033818  170.90  0.024895  (-0.021399 -0.004145 -0.156268)
 16:    489.22   0.000002    0.01  0.000001  (-0.001014 -0.000085  0.000479)
 17:    505.19   0.000013    0.06  0.000008  (-0.001115 -0.000183 -0.002543)
 18:    532.54   0.164838  833.02  0.096594  (-0.292037 -0.100694  0.034186)
 19:    613.37   0.000002    0.01  0.000001  ( 0.000125  0.000865 -0.000288)
 20:    628.19   1.860064  9400.00  0.924019  (-0.904950 -0.307578  0.102372)
 21:    659.15   0.008211   41.49  0.003887  (-0.011623 -0.002244 -0.061214)
 22:    786.65   0.008457   42.74  0.003355  ( 0.009800  0.001751  0.057060)
 23:    814.75   0.000003    0.01  0.000001  (-0.000307 -0.000098 -0.000959)
 24:    834.81   0.004918   24.86  0.001839  ( 0.037382  0.020408 -0.004971)
 25:    922.99   0.000805    4.07  0.000272  ( 0.002823  0.000552  0.016240)
 26:   1000.59   0.000001    0.01  0.000000  (-0.000564 -0.000093  0.000259)
 27:   1004.78   0.020853  105.38  0.006476  ( 0.078649  0.013951 -0.009804)
 28:   1016.23   0.000036    0.18  0.000011  (-0.001028 -0.000185 -0.003166)
 29:   1029.46   0.000058    0.29  0.000018  ( 0.003343  0.002502 -0.000469)
 30:   1029.85   0.002073   10.47  0.000628  ( 0.019756  0.015217 -0.002484)
 31:   1132.46   0.001196    6.05  0.000330  ( 0.015310  0.009255 -0.003103)
 32:   1188.62   0.000018    0.09  0.000005  ( 0.002121  0.000298 -0.000215)
 33:   1207.85   0.095261  481.41  0.024612  (-0.151750 -0.035073  0.018811)
 34:   1323.61   2.293926  11592.56  0.540831  (-0.698601 -0.212721  0.086818)
 35:   1371.14   0.000044    0.22  0.000010  (-0.002512 -0.001865  0.000449)
 36:   1375.69   0.000521    2.63  0.000118  ( 0.007623  0.007656 -0.001233)
 37:   1378.08   0.003859   19.50  0.000874  (-0.013470 -0.026253  0.001769)
 38:   1501.23   0.001077    5.44  0.000224  ( 0.012700  0.007509 -0.002483)
 39:   1523.96   0.038506  194.59  0.007885  ( 0.080342 -0.036552 -0.009692)
 40:   1558.12   0.000513    2.59  0.000103  ( 0.008779  0.004774 -0.001720)
 41:   1643.01   0.090484  457.27  0.017186  ( 0.122444  0.044333 -0.015106)
 42:   1666.66   0.097514  492.80  0.018258  (-0.130675  0.030571  0.015747)
 43:   1934.33   0.072665  367.22  0.011723  ( 0.085620  0.065476 -0.010252)
 44:   3181.77   0.001236    6.25  0.000121  ( 0.010154 -0.004079 -0.001216)
 45:   3183.09   0.000414    2.09  0.000041  (-0.006083  0.001721  0.000782)
 46:   3196.23   0.002998   15.15  0.000293  ( 0.016806  0.002507 -0.002003)
 47:   3202.76   0.000078    0.40  0.000008  (-0.002556 -0.000924  0.000481)
 48:   3212.65   0.001238    6.26  0.000120  ( 0.009762  0.004854 -0.001199)
 49:   3567.04   0.194973  985.31  0.017057  ( 0.129137 -0.011615 -0.015685)
 50:   3681.72   0.011290   57.05  0.000957  (-0.026301 -0.015410  0.005265)

* The epsilon (eps) is given for a Dirac delta lineshape.
** The dipole moment derivative (T) already includes vibrational overlap.

The first frequency considered to be a vibration is 9
The total number of vibrations considered is 42


--------------------------
THERMOCHEMISTRY AT 298.15K
--------------------------

Temperature         ... 298.15 K
Pressure            ... 1.00 atm
Total Mass          ... 139.13 AMU

Throughout the following assumptions are being made:
  (1) The electronic state is orbitally nondegenerate
  (2) There are no thermally accessible electronically excited states
  (3) Hindered rotations indicated by low frequency modes are not
      treated as such but are treated as vibrations and this may
      cause some error
  (4) All equations used are the standard statistical mechanics
      equations for an ideal gas
  (5) All vibrations are strictly harmonic

freq.       4.90  E(vib)   ...       0.59 
freq.       6.69  E(vib)   ...       0.58 
freq.      12.42  E(vib)   ...       0.57 
freq.     198.28  E(vib)   ...       0.35 
freq.     386.98  E(vib)   ...       0.20 
freq.     389.00  E(vib)   ...       0.20 
freq.     423.91  E(vib)   ...       0.18 
freq.     489.22  E(vib)   ...       0.15 
freq.     505.19  E(vib)   ...       0.14 
freq.     532.54  E(vib)   ...       0.13 
freq.     613.37  E(vib)   ...       0.10 
freq.     628.19  E(vib)   ...       0.09 
freq.     659.15  E(vib)   ...       0.08 
freq.     786.65  E(vib)   ...       0.05 
freq.     814.75  E(vib)   ...       0.05 
freq.     834.81  E(vib)   ...       0.04 
freq.     922.99  E(vib)   ...       0.03 
freq.    1000.59  E(vib)   ...       0.02 
freq.    1004.78  E(vib)   ...       0.02 
freq.    1016.23  E(vib)   ...       0.02 
freq.    1029.46  E(vib)   ...       0.02 
freq.    1029.85  E(vib)   ...       0.02 
freq.    1132.46  E(vib)   ...       0.01 
freq.    1188.62  E(vib)   ...       0.01 
freq.    1207.85  E(vib)   ...       0.01 
freq.    1323.61  E(vib)   ...       0.01 
freq.    1371.14  E(vib)   ...       0.01 
freq.    1375.69  E(vib)   ...       0.01 
freq.    1378.08  E(vib)   ...       0.01 
freq.    1501.23  E(vib)   ...       0.00 
freq.    1523.96  E(vib)   ...       0.00 
freq.    1558.12  E(vib)   ...       0.00 
freq.    1643.01  E(vib)   ...       0.00 
freq.    1666.66  E(vib)   ...       0.00 
freq.    1934.33  E(vib)   ...       0.00 
freq.    3181.77  E(vib)   ...       0.00 
freq.    3183.09  E(vib)   ...       0.00 
freq.    3196.23  E(vib)   ...       0.00 
freq.    3202.76  E(vib)   ...       0.00 
freq.    3212.65  E(vib)   ...       0.00 
freq.    3567.04  E(vib)   ...       0.00 
freq.    3681.72  E(vib)   ...       0.00 

------------
INNER ENERGY
------------

The inner energy is: U= E(el) + E(ZPE) + E(vib) + E(rot) + E(trans)
    E(el)   - is the total energy from the electronic structure calculation
              = E(kin-el) + E(nuc-el) + E(el-el) + E(nuc-nuc)
    E(ZPE)  - the the zero temperature vibrational energy from the frequency calculation
    E(vib)  - the the finite temperature correction to E(ZPE) due to population
              of excited vibrational states
    E(rot)  - is the rotational thermal energy
    E(trans)- is the translational thermal energy

Summary of contributions to the inner energy U:
Electronic energy                ...   -492.33552020 Eh
Zero point energy                ...      0.12602813 Eh      79.08 kcal/mol
Thermal vibrational correction   ...      0.00591087 Eh       3.71 kcal/mol
Thermal rotational correction    ...      0.00141627 Eh       0.89 kcal/mol
Thermal translational correction ...      0.00141627 Eh       0.89 kcal/mol
-----------------------------------------------------------------------
Total thermal energy                   -492.20074865 Eh


Summary of corrections to the electronic energy:
(perhaps to be used in another calculation)
Total thermal correction                  0.00874342 Eh       5.49 kcal/mol
Non-thermal (ZPE) correction              0.12602813 Eh      79.08 kcal/mol
-----------------------------------------------------------------------
Total correction                          0.13477155 Eh      84.57 kcal/mol


--------
ENTHALPY
--------

The enthalpy is H = U + kB*T
                kB is Boltzmann's constant
Total free energy                 ...   -492.20074865 Eh 
Thermal Enthalpy correction       ...      0.00094421 Eh       0.59 kcal/mol
-----------------------------------------------------------------------
Total Enthalpy                    ...   -492.19980444 Eh


Note: Only C1 symmetry has been detected, increase convergence thresholds 
      if your molecule has a higher symmetry. Symmetry factor of 1.0 is   
      used for the rotational entropy correction. 
 

Note: Rotational entropy computed according to Herzberg 
Infrared and Raman Spectra, Chapter V,1, Van Nostrand Reinhold, 1945 
Point Group:  C1, Symmetry Number:   1  
Rotational constants in cm-1:     0.088046     0.002160     0.002108 

Vibrational entropy computed according to the QRRHO of S. Grimme
Chem.Eur.J. 2012 18 9955


-------
ENTROPY
-------

The entropy contributions are T*S = T*(S(el)+S(vib)+S(rot)+S(trans))
     S(el)   - electronic entropy
     S(vib)  - vibrational entropy
     S(rot)  - rotational entropy
     S(trans)- translational entropy
The entropies will be listed as multiplied by the temperature to get
units of energy

Electronic entropy                ...      0.00000000 Eh      0.00 kcal/mol
Vibrational entropy               ...      0.01231070 Eh      7.73 kcal/mol
Rotational entropy                ...      0.01646453 Eh     10.33 kcal/mol
Translational entropy             ...      0.01933899 Eh     12.14 kcal/mol
-----------------------------------------------------------------------
Final entropy term                ...      0.04811422 Eh     30.19 kcal/mol

In case the symmetry of your molecule has not been determined correctly
or in case you have a reason to use a different symmetry number we print 
out the resulting rotational entropy values for sn=1,12 :
 --------------------------------------------------------
|  sn= 1 | S(rot)=       0.01646453 Eh     10.33 kcal/mol|
|  sn= 2 | S(rot)=       0.01581007 Eh      9.92 kcal/mol|
|  sn= 3 | S(rot)=       0.01542724 Eh      9.68 kcal/mol|
|  sn= 4 | S(rot)=       0.01515562 Eh      9.51 kcal/mol|
|  sn= 5 | S(rot)=       0.01494493 Eh      9.38 kcal/mol|
|  sn= 6 | S(rot)=       0.01477279 Eh      9.27 kcal/mol|
|  sn= 7 | S(rot)=       0.01462724 Eh      9.18 kcal/mol|
|  sn= 8 | S(rot)=       0.01450116 Eh      9.10 kcal/mol|
|  sn= 9 | S(rot)=       0.01438995 Eh      9.03 kcal/mol|
|  sn=10 | S(rot)=       0.01429047 Eh      8.97 kcal/mol|
|  sn=11 | S(rot)=       0.01420048 Eh      8.91 kcal/mol|
|  sn=12 | S(rot)=       0.01411833 Eh      8.86 kcal/mol|
 --------------------------------------------------------


-------------------
GIBBS FREE ENERGY
-------------------

The Gibbs free energy is G = H - T*S

Total enthalpy                    ...   -492.19980444 Eh 
Total entropy correction          ...     -0.04811422 Eh    -30.19 kcal/mol
-----------------------------------------------------------------------
Final Gibbs free energy         ...   -492.24791866 Eh

For completeness - the Gibbs free energy minus the electronic energy
G-E(el)                           ...      0.08760154 Eh     54.97 kcal/mol


Timings for individual modules:

Sum of individual times         ...    15342.055 sec (= 255.701 min)
GTO integral calculation        ...       23.105 sec (=   0.385 min)   0.2 %
SCF iterations                  ...     8301.723 sec (= 138.362 min)  54.1 %
SCF Gradient evaluation         ...     1560.413 sec (=  26.007 min)  10.2 %
Geometry relaxation             ...        9.032 sec (=   0.151 min)   0.1 %
Analytical frequency calculation...     5447.782 sec (=  90.796 min)  35.5 %
                             ****ORCA TERMINATED NORMALLY****
TOTAL RUN TIME: 0 days 4 hours 15 minutes 50 seconds 29 msec
