
                                 *****************
                                 * O   R   C   A *
                                 *****************

                                            #,                                       
                                            ###                                      
                                            ####                                     
                                            #####                                    
                                            ######                                   
                                           ########,                                 
                                     ,,################,,,,,                         
                               ,,#################################,,                 
                          ,,##########################################,,             
                       ,#########################################, ''#####,          
                    ,#############################################,,   '####,        
                  ,##################################################,,,,####,       
                ,###########''''           ''''###############################       
              ,#####''   ,,,,##########,,,,          '''####'''          '####       
            ,##' ,,,,###########################,,,                        '##       
           ' ,,###''''                  '''############,,,                           
         ,,##''                                '''############,,,,        ,,,,,,###''
      ,#''                                            '''#######################'''  
     '                                                          ''''####''''         
             ,#######,   #######,   ,#######,      ##                                
            ,#'     '#,  ##    ##  ,#'     '#,    #''#        ######   ,####,        
            ##       ##  ##   ,#'  ##            #'  '#       #        #'  '#        
            ##       ##  #######   ##           ,######,      #####,   #    #        
            '#,     ,#'  ##    ##  '#,     ,#' ,#      #,         ##   #,  ,#        
             '#######'   ##     ##  '#######'  #'      '#     #####' # '####'        



                  #######################################################
                  #                        -***-                        #
                  #          Department of theory and spectroscopy      #
                  #    Directorship and core code : Frank Neese         #
                  #        Max Planck Institute fuer Kohlenforschung    #
                  #                Kaiser Wilhelm Platz 1               #
                  #                 D-45470 Muelheim/Ruhr               #
                  #                      Germany                        #
                  #                                                     #
                  #                  All rights reserved                #
                  #                        -***-                        #
                  #######################################################



                         Program Version 5.0.4 -  RELEASE  -

 With contributions from (in alphabetic order):
   Daniel Aravena         : Magnetic Suceptibility
   Michael Atanasov       : Ab Initio Ligand Field Theory (pilot matlab implementation)
   Alexander A. Auer      : GIAO ZORA, VPT2 properties, NMR spectrum
   Ute Becker             : Parallelization
   Giovanni Bistoni       : ED, misc. LED, open-shell LED, HFLD
   Martin Brehm           : Molecular dynamics
   Dmytro Bykov           : SCF Hessian
   Vijay G. Chilkuri      : MRCI spin determinant printing, contributions to CSF-ICE
   Dipayan Datta          : RHF DLPNO-CCSD density
   Achintya Kumar Dutta   : EOM-CC, STEOM-CC
   Dmitry Ganyushin       : Spin-Orbit,Spin-Spin,Magnetic field MRCI
   Miquel Garcia          : C-PCM and meta-GGA Hessian, CC/C-PCM, Gaussian charge scheme
   Yang Guo               : DLPNO-NEVPT2, F12-NEVPT2, CIM, IAO-localization
   Andreas Hansen         : Spin unrestricted coupled pair/coupled cluster methods
   Benjamin Helmich-Paris : MC-RPA, TRAH-SCF, COSX integrals
   Lee Huntington         : MR-EOM, pCC
   Robert Izsak           : Overlap fitted RIJCOSX, COSX-SCS-MP3, EOM
   Marcus Kettner         : VPT2
   Christian Kollmar      : KDIIS, OOCD, Brueckner-CCSD(T), CCSD density, CASPT2, CASPT2-K
   Simone Kossmann        : Meta GGA functionals, TD-DFT gradient, OOMP2, MP2 Hessian
   Martin Krupicka        : Initial AUTO-CI
   Lucas Lang             : DCDCAS
   Marvin Lechner         : AUTO-CI (C++ implementation), FIC-MRCC
   Dagmar Lenk            : GEPOL surface, SMD
   Dimitrios Liakos       : Extrapolation schemes; Compound Job, initial MDCI parallelization
   Dimitrios Manganas     : Further ROCIS development; embedding schemes
   Dimitrios Pantazis     : SARC Basis sets
   Anastasios Papadopoulos: AUTO-CI, single reference methods and gradients
   Taras Petrenko         : DFT Hessian,TD-DFT gradient, ASA, ECA, R-Raman, ABS, FL, XAS/XES, NRVS
   Peter Pinski           : DLPNO-MP2, DLPNO-MP2 Gradient
   Christoph Reimann      : Effective Core Potentials
   Marius Retegan         : Local ZFS, SOC
   Christoph Riplinger    : Optimizer, TS searches, QM/MM, DLPNO-CCSD(T), (RO)-DLPNO pert. Triples
   Tobias Risthaus        : Range-separated hybrids, TD-DFT gradient, RPA, STAB
   Michael Roemelt        : Original ROCIS implementation
   Masaaki Saitow         : Open-shell DLPNO-CCSD energy and density
   Barbara Sandhoefer     : DKH picture change effects
   Avijit Sen             : IP-ROCIS
   Kantharuban Sivalingam : CASSCF convergence, NEVPT2, FIC-MRCI
   Bernardo de Souza      : ESD, SOC TD-DFT
   Georgi Stoychev        : AutoAux, RI-MP2 NMR, DLPNO-MP2 response
   Willem Van den Heuvel  : Paramagnetic NMR
   Boris Wezisla          : Elementary symmetry handling
   Frank Wennmohs         : Technical directorship


 We gratefully acknowledge several colleagues who have allowed us to
 interface, adapt or use parts of their codes:
   Stefan Grimme, W. Hujo, H. Kruse, P. Pracht,  : VdW corrections, initial TS optimization,
                  C. Bannwarth, S. Ehlert          DFT functionals, gCP, sTDA/sTD-DF
   Ed Valeev, F. Pavosevic, A. Kumar             : LibInt (2-el integral package), F12 methods
   Garnet Chan, S. Sharma, J. Yang, R. Olivares  : DMRG
   Ulf Ekstrom                                   : XCFun DFT Library
   Mihaly Kallay                                 : mrcc  (arbitrary order and MRCC methods)
   Jiri Pittner, Ondrej Demel                    : Mk-CCSD
   Frank Weinhold                                : gennbo (NPA and NBO analysis)
   Christopher J. Cramer and Donald G. Truhlar   : smd solvation model
   Lars Goerigk                                  : TD-DFT with DH, B97 family of functionals
   V. Asgeirsson, H. Jonsson                     : NEB implementation
   FAccTs GmbH                                   : IRC, NEB, NEB-TS, DLPNO-Multilevel, CI-OPT
                                                   MM, QMMM, 2- and 3-layer-ONIOM, Crystal-QMMM,
                                                   LR-CPCM, SF, NACMEs, symmetry and pop. for TD-DFT,
                                                   nearIR, NL-DFT gradient (VV10), updates on ESD,
                                                   ML-optimized integration grids
   S Lehtola, MJT Oliveira, MAL Marques          : LibXC Library
   Liviu Ungur et al                             : ANISO software


 Your calculation uses the libint2 library for the computation of 2-el integrals
 For citations please refer to: http://libint.valeyev.net

 Your ORCA version has been built with support for libXC version: 5.1.0
 For citations please refer to: https://tddft.org/programs/libxc/

 This ORCA versions uses:
   CBLAS   interface :  Fast vector & matrix operations
   LAPACKE interface :  Fast linear algebra routines
   Shared memory     :  Shared parallel matrices


Your calculation utilizes the atom-pairwise dispersion correction
with the Becke-Johnson damping scheme (D3BJ)
Cite in your paper:
S.Grimme, S.Ehrlich, L.Goerigk, J Comput Chem, (2011), 32, 1456–1465 
S.Grimme, J.Antony, S.Ehrlich and H.Krieg, J.Chem.Phys., 132, (2010), 154104 
   

================================================================================

----- Orbital basis set information -----
Your calculation utilizes the basis: def2-TZVP
   F. Weigend and R. Ahlrichs, Phys. Chem. Chem. Phys. 7, 3297 (2005).

----- AuxJ basis set information -----
Your calculation utilizes the auxiliary basis: def2/J
   F. Weigend, Phys. Chem. Chem. Phys. 8, 1057 (2006).

================================================================================
                                        WARNINGS
                       Please study these warnings very carefully!
================================================================================


WARNING: Geometry Optimization
  ===> : Switching off AutoStart
         For restart on a previous wavefunction, please use MOREAD

INFO   : the flag for use of the SHARK integral package has been found!

================================================================================
                                       INPUT FILE
================================================================================
NAME = e_c_14.inp
|  1> !B3LYP DEF2-TZVP D3BJ OPT FREQ SOSCF
|  2> 
|  3> %geom
|  4> convergence tight
|  5> maxIter 1000
|  6> end
|  7> 
|  8> * xyz 1 1 
|  9>   C   -5.58920117172344      0.76032024925136      4.35377056151442
| 10>   C   -6.17627399218913      1.50723782185970      3.31167629278556
| 11>   C   -6.19149281404421      1.02506699619361      2.01977083925576
| 12>   C   -5.61588631883498     -0.21899466387013      1.73124143784200
| 13>   C   -5.03947435728520     -0.97745097599623      2.75570308847712
| 14>   C   -5.02962182773804     -0.49281006334661      4.04985796376316
| 15>   C   -5.55028377043875      1.30450761925183      5.74249784986873
| 16>   H   -5.31436526158258      0.53341539856584      6.47371220749810
| 17>   H   -6.50042475837673      1.77165560202254      6.01057790708862
| 18>   H   -4.78475147593653      2.08524372750741      5.82034769430898
| 19>   H   -6.62353207129577      2.46751059729523      3.53613109392918
| 20>   H   -6.67026029675231      1.59135558179473      1.23152902139801
| 21>   H   -5.58555891807941     -0.56655461927293      0.70737742154302
| 22>   H   -4.59913001534369     -1.94085524416557      2.53650706880280
| 23>   H   -4.58471223965891     -1.08040618472230      4.84241504065205
| 24>   N   -10.84740920007235     -2.10473171290756    -25.66181114935455
| 25>   O   -10.53302363700431     -1.92988324899868    -24.57326763950300
| 26>   O   -10.90865312077074     -2.71734024380572    -26.62759987232879
| 27> **                         ****END OF INPUT****
================================================================================

                       *****************************
                       * Geometry Optimization Run *
                       *****************************

Geometry optimization settings:
Update method            Update   .... BFGS
Choice of coordinates    CoordSys .... Z-matrix Internals
Initial Hessian          InHess   .... Almoef's Model

Convergence Tolerances:
Energy Change            TolE     ....  1.0000e-06 Eh
Max. Gradient            TolMAXG  ....  1.0000e-04 Eh/bohr
RMS Gradient             TolRMSG  ....  3.0000e-05 Eh/bohr
Max. Displacement        TolMAXD  ....  1.0000e-03 bohr
RMS Displacement         TolRMSD  ....  6.0000e-04 bohr
Strict Convergence                ....  False
------------------------------------------------------------------------------
                        ORCA OPTIMIZATION COORDINATE SETUP
------------------------------------------------------------------------------

The optimization will be done in new redundant internal coordinates
Making redundant internal coordinates   ...  (new redundants) done
Evaluating the initial hessian          ...  (Almloef) done
Evaluating the coordinates              ...  done
Calculating the B-matrix                .... done
Calculating the G-matrix                .... done
Diagonalizing the G-matrix              .... done
Small eigenvalue found = 1.836e-02
The first mode is                       ....   54
The number of degrees of freedom        ....   48

    -----------------------------------------------------------------
                    Redundant Internal Coordinates


    -----------------------------------------------------------------
         Definition                    Initial Value    Approx d2E/dq
    -----------------------------------------------------------------
      1. B(C   1,C   0)                  1.4101         0.580234   
      2. B(C   2,C   1)                  1.3790         0.650476   
      3. B(C   3,C   2)                  1.4008         0.600476   
      4. B(C   4,C   3)                  1.3989         0.604614   
      5. B(C   5,C   4)                  1.3820         0.643528   
      6. B(C   5,C   0)                  1.4056         0.589907   
      7. B(C   6,C   0)                  1.4921         0.429459   
      8. B(H   7,C   6)                  1.0885         0.362039   
      9. B(H   8,C   6)                  1.0922         0.357225   
     10. B(H   9,C   6)                  1.0962         0.351994   
     11. B(H  10,C   1)                  1.0828         0.369697   
     12. B(H  11,C   2)                  1.0822         0.370524   
     13. B(H  12,C   3)                  1.0817         0.371287   
     14. B(H  13,C   4)                  1.0817         0.371235   
     15. B(H  14,C   5)                  1.0823         0.370440   
     16. B(O  16,H  12)                 25.7963         0.000000   
     17. B(O  16,H  11)                 26.3288         0.000000   
     18. B(O  16,C   3)                 26.8148         0.000000   
     19. B(O  16,N  15)                  1.1464         1.226276   
     20. B(O  17,N  15)                  1.1453         1.231297   
     21. A(C   1,C   0,C   5)          118.5655         0.425121   
     22. A(C   1,C   0,C   6)          120.3644         0.401818   
     23. A(C   5,C   0,C   6)          121.0647         0.402991   
     24. A(C   0,C   1,H  10)          119.2418         0.350531   
     25. A(C   0,C   1,C   2)          120.7775         0.432639   
     26. A(C   2,C   1,H  10)          119.9799         0.357384   
     27. A(C   3,C   2,H  11)          119.7668         0.352702   
     28. A(C   1,C   2,C   3)          119.9302         0.435317   
     29. A(C   1,C   2,H  11)          120.2821         0.357520   
     30. A(H  12,C   3,O  16)           19.2822         0.089000   
     31. A(C   2,C   3,O  16)          100.5660         0.089000   
     32. A(C   4,C   3,H  12)          120.4919         0.353235   
     33. A(C   4,C   3,O  16)          139.4063         0.089000   
     34. A(C   2,C   3,C   4)          119.9981         0.429633   
     35. A(C   2,C   3,H  12)          119.4622         0.352825   
     36. A(C   5,C   4,H  13)          119.9469         0.356984   
     37. A(C   3,C   4,H  13)          120.1461         0.353227   
     38. A(C   3,C   4,C   5)          119.9068         0.435014   
     39. A(C   4,C   5,H  14)          119.8877         0.356854   
     40. A(C   0,C   5,C   4)          120.8155         0.433091   
     41. A(C   0,C   5,H  14)          119.2967         0.351631   
     42. A(H   8,C   6,H   9)          106.5867         0.289438   
     43. A(H   7,C   6,H   9)          107.7859         0.290046   
     44. A(C   0,C   6,H   9)          110.1256         0.330614   
     45. A(H   7,C   6,H   8)          109.0655         0.290719   
     46. A(C   0,C   6,H   8)          111.2086         0.331422   
     47. A(C   0,C   6,H   7)          111.8707         0.332158   
     48. A(C   2,H  11,O  16)          135.1353         0.089000   
     49. A(C   3,H  12,O  16)          159.9245         0.089000   
     50. A(O  16,N  15,O  17)          153.7521         0.543870   
     51. A(H  11,O  16,N  15)          172.4044         0.089000   
     52. A(C   3,O  16,N  15)          172.4991         0.089000   
     53. A(H  11,O  16,H  12)            5.3077         0.089000   
     54. A(H  12,O  16,N  15)          172.3803         0.089000   
     55. D(C   2,C   1,C   0,C   6)    178.6062         0.023131   
     56. D(H  10,C   1,C   0,C   5)    179.1080         0.023131   
     57. D(H  10,C   1,C   0,C   6)     -1.7320         0.023131   
     58. D(C   2,C   1,C   0,C   5)     -0.5538         0.023131   
     59. D(C   3,C   2,C   1,H  10)   -179.8228         0.029463   
     60. D(H  11,C   2,C   1,C   0)    178.1669         0.029463   
     61. D(C   3,C   2,C   1,C   0)     -0.1635         0.029463   
     62. D(H  11,C   2,C   1,H  10)     -1.4924         0.029463   
     63. D(O  16,C   3,C   2,H  11)      0.7521         0.027004   
     64. D(H  12,C   3,C   2,H  11)      4.8637         0.027004   
     65. D(H  12,C   3,C   2,C   1)   -176.7972         0.027004   
     66. D(C   4,C   3,C   2,C   1)      0.7018         0.027004   
     67. D(C   4,C   3,C   2,H  11)   -177.6373         0.027004   
     68. D(O  16,C   3,C   2,C   1)    179.0912         0.027004   
     69. D(C   5,C   4,C   3,C   2)     -0.5091         0.027400   
     70. D(H  13,C   4,C   3,O  16)      2.0993         0.027400   
     71. D(H  13,C   4,C   3,H  12)     -2.8615         0.027400   
     72. D(H  13,C   4,C   3,C   2)    179.6657         0.027400   
     73. D(C   5,C   4,C   3,O  16)   -178.0754         0.027400   
     74. D(C   5,C   4,C   3,H  12)    176.9638         0.027400   
     75. D(H  14,C   5,C   4,H  13)     -0.2517         0.028795   
     76. D(C   0,C   5,C   4,H  13)    179.6023         0.028795   
     77. D(C   0,C   5,C   4,C   3)     -0.2233         0.028795   
     78. D(H  14,C   5,C   0,C   6)      1.4496         0.023947   
     79. D(C   4,C   5,C   0,C   6)   -178.4052         0.023947   
     80. D(H  14,C   5,C   4,C   3)    179.9227         0.028795   
     81. D(C   4,C   5,C   0,C   1)      0.7486         0.023947   
     82. D(H  14,C   5,C   0,C   1)   -179.3966         0.023947   
     83. D(H   8,C   6,C   0,C   1)     42.7992         0.013622   
     84. D(H   7,C   6,C   0,C   5)    -15.8323         0.013622   
     85. D(H   7,C   6,C   0,C   1)    165.0290         0.013622   
     86. D(H   9,C   6,C   0,C   5)    104.0125         0.013622   
     87. D(H   9,C   6,C   0,C   1)    -75.1262         0.013622   
     88. D(H   8,C   6,C   0,C   5)   -138.0622         0.013622   
     89. D(O  16,H  11,C   2,C   3)     -1.0674         0.117520   
     90. D(O  16,H  11,C   2,C   1)   -179.4006         0.117520   
     91. D(O  16,H  12,C   3,C   4)    170.1892         0.130882   
     92. D(O  16,H  12,C   3,C   2)    -12.3245         0.130882   
     93. D(H  12,O  16,N  15,O  17)    -65.7745         0.175361   
     94. D(C   3,O  16,N  15,O  17)    -71.7394         0.175361   
     95. D(H  11,O  16,H  12,C   3)      8.9915         0.001500   
     96. D(N  15,O  16,H  12,C   3)   -101.5577         0.001500   
     97. D(H  12,O  16,H  11,C   2)     -0.9581         0.001500   
     98. D(N  15,O  16,H  11,C   2)    109.1042         0.001500   
     99. D(N  15,O  16,C   3,H  12)     84.3555         0.001500   
    100. D(H  11,O  16,N  15,O  17)   -106.7168         0.175361   
    101. D(N  15,O  16,C   3,C   4)     71.3142         0.001500   
    102. D(N  15,O  16,C   3,C   2)   -106.5419         0.001500   
    -----------------------------------------------------------------

Number of atoms                         .... 18
Number of degrees of freedom            .... 102

         *************************************************************
         *                GEOMETRY OPTIMIZATION CYCLE   1            *
         *************************************************************
---------------------------------
CARTESIAN COORDINATES (ANGSTROEM)
---------------------------------
  C     -5.589201    0.760320    4.353771
  C     -6.176274    1.507238    3.311676
  C     -6.191493    1.025067    2.019771
  C     -5.615886   -0.218995    1.731241
  C     -5.039474   -0.977451    2.755703
  C     -5.029622   -0.492810    4.049858
  C     -5.550284    1.304508    5.742498
  H     -5.314365    0.533415    6.473712
  H     -6.500425    1.771656    6.010578
  H     -4.784751    2.085244    5.820348
  H     -6.623532    2.467511    3.536131
  H     -6.670260    1.591356    1.231529
  H     -5.585559   -0.566555    0.707377
  H     -4.599130   -1.940855    2.536507
  H     -4.584712   -1.080406    4.842415
  N    -10.847409   -2.104732  -25.661811
  O    -10.533024   -1.929883  -24.573268
  O    -10.908653   -2.717340  -26.627600

----------------------------
CARTESIAN COORDINATES (A.U.)
----------------------------
  NO LB      ZA    FRAG     MASS         X           Y           Z
   0 C     6.0000    0    12.011  -10.562060    1.436797    8.227434
   1 C     6.0000    0    12.011  -11.671466    2.848267    6.258161
   2 C     6.0000    0    12.011  -11.700226    1.937096    3.816814
   3 C     6.0000    0    12.011  -10.612487   -0.413840    3.271572
   4 C     6.0000    0    12.011   -9.523226   -1.847115    5.207524
   5 C     6.0000    0    12.011   -9.504608   -0.931276    7.653122
   6 C     6.0000    0    12.011  -10.488516    2.465162   10.851748
   7 H     1.0000    0     1.008  -10.042695    1.008009   12.233543
   8 H     1.0000    0     1.008  -12.284023    3.347944   11.358346
   9 H     1.0000    0     1.008   -9.041870    3.940540   10.998863
  10 H     1.0000    0     1.008  -12.516662    4.662919    6.682319
  11 H     1.0000    0     1.008  -12.604965    3.007226    2.327253
  12 H     1.0000    0     1.008  -10.555177   -1.070633    1.336750
  13 H     1.0000    0     1.008   -8.691096   -3.667685    4.793304
  14 H     1.0000    0     1.008   -8.663851   -2.041672    9.150838
  15 N     7.0000    0    14.007  -20.498633   -3.977367  -48.493795
  16 O     8.0000    0    15.999  -19.904530   -3.646951  -46.436746
  17 O     8.0000    0    15.999  -20.614367   -5.135029  -50.318871

--------------------------------
INTERNAL COORDINATES (ANGSTROEM)
--------------------------------
 C      0   0   0     0.000000000000     0.00000000     0.00000000
 C      1   0   0     1.410142128198     0.00000000     0.00000000
 C      2   1   0     1.379035901825   120.77745486     0.00000000
 C      3   2   1     1.400807433892   119.93019313   359.83650778
 C      4   3   2     1.398938311879   119.99810898     0.70177629
 C      5   4   3     1.381959018126   119.90677282   359.49088154
 C      1   2   3     1.492051587315   120.36437742   178.60615838
 H      7   1   2     1.088538098748   111.87072866   165.02901215
 H      7   1   2     1.092182242964   111.20861771    42.79915761
 H      7   1   2     1.096197593018   110.12564336   284.87378480
 H      2   1   3     1.082840500870   119.24182931   179.66179173
 H      3   2   1     1.082232058341   120.28206991   178.16692339
 H      4   3   2     1.081672407759   119.46221296   183.20282265
 H      5   4   3     1.081710598288   120.14607545   179.66565011
 H      6   5   4     1.082294074430   119.88766352   179.92274414
 N     13   4   3    26.933012513439   159.98685849   346.74971425
 O     16  13   4     1.146445480796     7.29629810    79.31203857
 O     16  13   4     1.145333090143   150.06359119   205.39423861

---------------------------
INTERNAL COORDINATES (A.U.)
---------------------------
 C      0   0   0     0.000000000000     0.00000000     0.00000000
 C      1   0   0     2.664782432199     0.00000000     0.00000000
 C      2   1   0     2.606000183294   120.77745486     0.00000000
 C      3   2   1     2.647142416417   119.93019313   359.83650778
 C      4   3   2     2.643610287702   119.99810898     0.70177629
 C      5   4   3     2.611524072560   119.90677282   359.49088154
 C      1   2   3     2.819568877709   120.36437742   178.60615838
 H      7   1   2     2.057038892974   111.87072866   165.02901215
 H      7   1   2     2.063925327533   111.20861771    42.79915761
 H      7   1   2     2.071513239468   110.12564336   284.87378480
 H      2   1   3     2.046271993363   119.24182931   179.66179173
 H      3   2   1     2.045122203614   120.28206991   178.16692339
 H      4   3   2     2.044064617285   119.46221296   183.20282265
 H      5   4   3     2.044136786924   120.14607545   179.66565011
 H      6   5   4     2.045239397039   119.88766352   179.92274414
 N     13   4   3    50.896017611873   159.98685849   346.74971425
 O     16  13   4     2.166467986176     7.29629810    79.31203857
 O     16  13   4     2.164365872488   150.06359119   205.39423861

---------------------
BASIS SET INFORMATION
---------------------
There are 4 groups of distinct atoms

 Group   1 Type C   : 11s6p2d1f contracted to 5s3p2d1f pattern {62111/411/11/1}
 Group   2 Type H   : 5s1p contracted to 3s1p pattern {311/1}
 Group   3 Type N   : 11s6p2d1f contracted to 5s3p2d1f pattern {62111/411/11/1}
 Group   4 Type O   : 11s6p2d1f contracted to 5s3p2d1f pattern {62111/411/11/1}

Atom   0C    basis set group =>   1
Atom   1C    basis set group =>   1
Atom   2C    basis set group =>   1
Atom   3C    basis set group =>   1
Atom   4C    basis set group =>   1
Atom   5C    basis set group =>   1
Atom   6C    basis set group =>   1
Atom   7H    basis set group =>   2
Atom   8H    basis set group =>   2
Atom   9H    basis set group =>   2
Atom  10H    basis set group =>   2
Atom  11H    basis set group =>   2
Atom  12H    basis set group =>   2
Atom  13H    basis set group =>   2
Atom  14H    basis set group =>   2
Atom  15N    basis set group =>   3
Atom  16O    basis set group =>   4
Atom  17O    basis set group =>   4
---------------------------------
AUXILIARY/J BASIS SET INFORMATION
---------------------------------
There are 4 groups of distinct atoms

 Group   1 Type C   : 12s5p4d2f1g contracted to 6s4p3d1f1g pattern {711111/2111/211/2/1}
 Group   2 Type H   : 5s2p1d contracted to 3s1p1d pattern {311/2/1}
 Group   3 Type N   : 12s5p4d2f1g contracted to 6s4p3d1f1g pattern {711111/2111/211/2/1}
 Group   4 Type O   : 12s5p4d2f1g contracted to 6s4p3d1f1g pattern {711111/2111/211/2/1}

Atom   0C    basis set group =>   1
Atom   1C    basis set group =>   1
Atom   2C    basis set group =>   1
Atom   3C    basis set group =>   1
Atom   4C    basis set group =>   1
Atom   5C    basis set group =>   1
Atom   6C    basis set group =>   1
Atom   7H    basis set group =>   2
Atom   8H    basis set group =>   2
Atom   9H    basis set group =>   2
Atom  10H    basis set group =>   2
Atom  11H    basis set group =>   2
Atom  12H    basis set group =>   2
Atom  13H    basis set group =>   2
Atom  14H    basis set group =>   2
Atom  15N    basis set group =>   3
Atom  16O    basis set group =>   4
Atom  17O    basis set group =>   4
------------------------------------------------------------------------------
                           ORCA GTO INTEGRAL CALCULATION
                           -- RI-GTO INTEGRALS CHOSEN --
------------------------------------------------------------------------------
------------------------------------------------------------------------------
                   ___                                                        
                  /   \      - P O W E R E D   B Y -                         
                 /     \                                                     
                 |  |  |   _    _      __       _____    __    __             
                 |  |  |  | |  | |    /  \     |  _  \  |  |  /  |          
                  \  \/   | |  | |   /    \    | | | |  |  | /  /          
                 / \  \   | |__| |  /  /\  \   | |_| |  |  |/  /          
                |  |  |   |  __  | /  /__\  \  |    /   |      \           
                |  |  |   | |  | | |   __   |  |    \   |  |\   \          
                \     /   | |  | | |  |  |  |  | |\  \  |  | \   \       
                 \___/    |_|  |_| |__|  |__|  |_| \__\ |__|  \__/        
                                                                              
                      - O R C A' S   B I G   F R I E N D -                    
                                      &                                       
                       - I N T E G R A L  F E E D E R -                       
                                                                              
 v1 FN, 2020, v2 2021                                                         
------------------------------------------------------------------------------


Reading SHARK input file e_c_14.SHARKINP.tmp ... ok
----------------------
SHARK INTEGRAL PACKAGE
----------------------

Number of atoms                             ...     18
Number of basis functions                   ...    358
Number of shells                            ...    142
Maximum angular momentum                    ...      3
Integral batch strategy                     ... SHARK/LIBINT Hybrid
RI-J (if used) integral strategy            ... SPLIT-RIJ (Revised 2003 algorithm where possible)
Printlevel                                  ...      1
Contraction scheme used                     ... SEGMENTED contraction
Coulomb Range Separation                    ... NOT USED
Exchange Range Separation                   ... NOT USED
Finite Nucleus Model                        ... NOT USED
Auxiliary Coulomb fitting basis             ... AVAILABLE
   # of basis functions in Aux-J            ...    578
   # of shells in Aux-J                     ...    190
   Maximum angular momentum in Aux-J        ...      4
Auxiliary J/K fitting basis                 ... NOT available
Auxiliary Correlation fitting basis         ... NOT available
Auxiliary 'external' fitting basis          ... NOT available
Integral threshold                          ...     2.500000e-11
Primitive cut-off                           ...     2.500000e-12
Primitive pair pre-selection threshold      ...     2.500000e-12

Calculating pre-screening integrals         ... done (  0.2 sec) Dimension = 142
Organizing shell pair data                  ... done (  0.2 sec)
Shell pair information
Total number of shell pairs                 ...     10153
Shell pairs after pre-screening             ...      6196
Total number of primitive shell pairs       ...     31120
Primitive shell pairs kept                  ...     14677
          la=0 lb=0:   1708 shell pairs
          la=1 lb=0:   1742 shell pairs
          la=1 lb=1:    463 shell pairs
          la=2 lb=0:    885 shell pairs
          la=2 lb=1:    452 shell pairs
          la=2 lb=2:    125 shell pairs
          la=3 lb=0:    442 shell pairs
          la=3 lb=1:    229 shell pairs
          la=3 lb=2:    116 shell pairs
          la=3 lb=3:     34 shell pairs

Calculating one electron integrals          ... done (  0.1 sec)
Calculating RI/J V-Matrix + Cholesky decomp.... done (  0.0 sec)
Calculating Nuclear repulsion               ... done (  0.0 sec) ENN=    356.981897933622 Eh

SHARK setup successfully completed in   1.3 seconds

Maximum memory used throughout the entire GTOINT-calculation: 91.9 MB
-------------------------------------------------------------------------------
                                 ORCA SCF
-------------------------------------------------------------------------------

------------
SCF SETTINGS
------------
Hamiltonian:
 Density Functional     Method          .... DFT(GTOs)
 Exchange Functional    Exchange        .... B88
   X-Alpha parameter    XAlpha          ....  0.666667
   Becke's b parameter  XBeta           ....  0.004200
 Correlation Functional Correlation     .... LYP
 LDA part of GGA corr.  LDAOpt          .... VWN-5
 Gradients option       PostSCFGGA      .... off
 Hybrid DFT is turned on
   Fraction HF Exchange ScalHFX         ....  0.200000
   Scaling of DF-GGA-X  ScalDFX         ....  0.720000
   Scaling of DF-GGA-C  ScalDFC         ....  0.810000
   Scaling of DF-LDA-C  ScalLDAC        ....  1.000000
   Perturbative correction              ....  0.000000
   Density functional embedding theory  .... OFF
   NL short-range parameter             ....  4.800000
 RI-approximation to the Coulomb term is turned on
   Number of AuxJ basis functions       .... 578
   RIJ-COSX (HFX calculated with COS-X)).... on


General Settings:
 Integral files         IntName         .... e_c_14
 Hartree-Fock type      HFTyp           .... RHF
 Total Charge           Charge          ....    1
 Multiplicity           Mult            ....    1
 Number of Electrons    NEL             ....   72
 Basis Dimension        Dim             ....  358
 Nuclear Repulsion      ENuc            ....    356.9818979336 Eh

Convergence Acceleration:
 DIIS                   CNVDIIS         .... on
   Start iteration      DIISMaxIt       ....    12
   Startup error        DIISStart       ....  0.200000
   # of expansion vecs  DIISMaxEq       ....     5
   Bias factor          DIISBfac        ....   1.050
   Max. coefficient     DIISMaxC        ....  10.000
 Trust-Rad. Augm. Hess. CNVTRAH         .... auto
   Auto Start mean grad. ratio tolernc. ....  1.125000
   Auto Start start iteration           ....    20
   Auto Start num. interpolation iter.  ....    10
   Max. Number of Micro iterations      ....    16
   Max. Number of Macro iterations      .... Maxiter - #DIIS iter
   Number of Davidson start vectors     ....     2
   Converg. threshold I  (grad. norm)   ....   1.000e-05
   Converg. threshold II (energy diff.) ....   1.000e-08
   Grad. Scal. Fac. for Micro threshold ....   0.100
   Minimum threshold for Micro iter.    ....   0.010
   NR start threshold (gradient norm)   ....   0.001
   Initial trust radius                 ....   0.400
   Minimum AH scaling param. (alpha)    ....   1.000
   Maximum AH scaling param. (alpha)    .... 1000.000
   Orbital update algorithm             .... Taylor
   White noise on init. David. guess    .... on
   Maximum white noise                  ....   0.010
   Quad. conv. algorithm                .... NR
 SOSCF                  CNVSOSCF        .... on
   Start iteration      SOSCFMaxIt      ....   150
   Startup grad/error   SOSCFStart      ....  0.003300
 Level Shifting         CNVShift        .... on
   Level shift para.    LevelShift      ....    0.2500
   Turn off err/grad.   ShiftErr        ....    0.0010
 Zerner damping         CNVZerner       .... off
 Static damping         CNVDamp         .... on
   Fraction old density DampFac         ....    0.7000
   Max. Damping (<1)    DampMax         ....    0.9800
   Min. Damping (>=0)   DampMin         ....    0.0000
   Turn off err/grad.   DampErr         ....    0.1000
 Fernandez-Rico         CNVRico         .... off

SCF Procedure:
 Maximum # iterations   MaxIter         ....   125
 SCF integral mode      SCFMode         .... Direct
   Integral package                     .... SHARK and LIBINT hybrid scheme
 Reset frequency        DirectResetFreq ....    20
 Integral Threshold     Thresh          ....  2.500e-11 Eh
 Primitive CutOff       TCut            ....  2.500e-12 Eh

Convergence Tolerance:
 Convergence Check Mode ConvCheckMode   .... Total+1el-Energy
 Convergence forced     ConvForced      .... 0
 Energy Change          TolE            ....  1.000e-08 Eh
 1-El. energy change                    ....  1.000e-05 Eh
 Orbital Gradient       TolG            ....  1.000e-05
 Orbital Rotation angle TolX            ....  1.000e-05
 DIIS Error             TolErr          ....  5.000e-07


Diagonalization of the overlap matrix:
Smallest eigenvalue                        ... 9.175e-06
Time for diagonalization                   ...    0.021 sec
Threshold for overlap eigenvalues          ... 1.000e-08
Number of eigenvalues below threshold      ... 0
Time for construction of square roots      ...    0.016 sec
Total time needed                          ...    0.038 sec

Time for model grid setup =    0.380 sec

------------------------------
INITIAL GUESS: MODEL POTENTIAL
------------------------------
Loading Hartree-Fock densities                     ... done
Calculating cut-offs                               ... done
Initializing the effective Hamiltonian             ... done
Setting up the integral package (SHARK)            ... done
Starting the Coulomb interaction                   ... done (   0.7 sec)
Reading the grid                                   ... done
Mapping shells                                     ... done
Starting the XC term evaluation                    ... done (   1.2 sec)
  promolecular density results
     # of electrons  =     72.993950400
     EX              =    -61.330976853
     EC              =     -2.472920386
     EX+EC           =    -63.803897239
Transforming the Hamiltonian                       ... done (   0.0 sec)
Diagonalizing the Hamiltonian                      ... done (   0.0 sec)
Back transforming the eigenvectors                 ... done (   0.0 sec)
Now organizing SCF variables                       ... done
                      ------------------
                      INITIAL GUESS DONE (   2.3 sec)
                      ------------------
-------------------
DFT GRID GENERATION
-------------------

General Integration Accuracy     IntAcc      ... 4.388
Radial Grid Type                 RadialGrid  ... OptM3 with GC (2021)
Angular Grid (max. ang.)         AngularGrid ... 4 (Lebedev-302)
Angular grid pruning method      GridPruning ... 4 (adaptive)
Weight generation scheme         WeightScheme... Becke
Basis function cutoff            BFCut       ... 1.0000e-11
Integration weight cutoff        WCut        ... 1.0000e-14
Angular grids for H and He will be reduced by one unit
Partially contracted basis set               ... off
Rotationally invariant grid construction     ... off

Total number of grid points                  ...    86327
Total number of batches                      ...     1356
Average number of points per batch           ...       63
Average number of grid points per atom       ...     4796
Time for grid setup =    1.540 sec

--------------------
COSX GRID GENERATION
--------------------

GRIDX 1
-------
General Integration Accuracy     IntAcc      ... 3.816
Radial Grid Type                 RadialGrid  ... OptM3 with GC (2021)
Angular Grid (max. ang.)         AngularGrid ... 1 (Lebedev-50)
Angular grid pruning method      GridPruning ... 4 (adaptive)
Weight generation scheme         WeightScheme... Becke
Basis function cutoff            BFCut       ... 1.0000e-11
Integration weight cutoff        WCut        ... 1.0000e-14
Angular grids for H and He will be reduced by one unit
Partially contracted basis set               ... on
Rotationally invariant grid construction     ... off

Total number of grid points                  ...    11032
Total number of batches                      ...      180
Average number of points per batch           ...       61
Average number of grid points per atom       ...      613
UseSFitting                                  ... on

GRIDX 2
-------
General Integration Accuracy     IntAcc      ... 4.020
Radial Grid Type                 RadialGrid  ... OptM3 with GC (2021)
Angular Grid (max. ang.)         AngularGrid ... 2 (Lebedev-110)
Angular grid pruning method      GridPruning ... 4 (adaptive)
Weight generation scheme         WeightScheme... Becke
Basis function cutoff            BFCut       ... 1.0000e-11
Integration weight cutoff        WCut        ... 1.0000e-14
Angular grids for H and He will be reduced by one unit
Partially contracted basis set               ... on
Rotationally invariant grid construction     ... off

Total number of grid points                  ...    24406
Total number of batches                      ...      392
Average number of points per batch           ...       62
Average number of grid points per atom       ...     1356
UseSFitting                                  ... on

GRIDX 3
-------
General Integration Accuracy     IntAcc      ... 4.338
Radial Grid Type                 RadialGrid  ... OptM3 with GC (2021)
Angular Grid (max. ang.)         AngularGrid ... 3 (Lebedev-194)
Angular grid pruning method      GridPruning ... 4 (adaptive)
Weight generation scheme         WeightScheme... Becke
Basis function cutoff            BFCut       ... 1.0000e-11
Integration weight cutoff        WCut        ... 1.0000e-14
Angular grids for H and He will be reduced by one unit
Partially contracted basis set               ... on
Rotationally invariant grid construction     ... off

Total number of grid points                  ...    53780
Total number of batches                      ...      850
Average number of points per batch           ...       63
Average number of grid points per atom       ...     2988
UseSFitting                                  ... on

Time for X-Grid setup             =    2.553 sec

--------------
SCF ITERATIONS
--------------
ITER       Energy         Delta-E        Max-DP      RMS-DP      [F,P]     Damp
               ***  Starting incremental Fock matrix formation  ***
  0   -475.8659395218   0.000000000000 0.15724636  0.00195047  0.1947660 0.7000
  1   -475.8777466423  -0.011807120516 0.04055508  0.00075989  0.1364996 0.7000
                               ***Turning on DIIS***
  2   -476.0672920257  -0.189545383420 0.08753138  0.00163328  0.0347950 0.0000
  3   -476.1185170514  -0.051225025668 0.00451221  0.00012256  0.1328403 0.7000
  4   -476.1321627408  -0.013645689384 0.00475353  0.00014443  0.1164978 0.7000
  5   -476.1446888116  -0.012526070847 0.00566969  0.00016650  0.1007796 0.7000
  6   -476.1559823264  -0.011293514767 0.02467284  0.00068184  0.0848743 0.0000
  7   -476.1857913444  -0.029809018069 0.01591913  0.00039422  0.0277078 0.0000
  8   -476.1890938284  -0.003302483964 0.00668809  0.00015725  0.0068207 0.0000
  9   -476.1892264806  -0.000132652158 0.00248656  0.00005807  0.0043493 0.0000
                      *** Initiating the SOSCF procedure ***
                           *** Shutting down DIIS ***
                      *** Re-Reading the Fockian *** 
                      *** Removing any level shift *** 
ITER      Energy       Delta-E        Grad      Rot      Max-DP    RMS-DP
 10   -476.18926716  -0.0000406834  0.000199  0.000199  0.392010  0.006123
               *** Restarting incremental Fock matrix formation ***
 11   -471.42504202   4.7642251397  0.268006  0.509896  1.906562  0.008259
 12   -472.09621896  -0.6711769392  0.143619  0.133946  4.138348  0.015569
 13   -472.34464999  -0.2484310315  0.095527  0.277106 22.096263  0.083810
 14   -472.53853799  -0.1938879933  0.157285  0.203341  1.650705  0.006507
 15   -472.67363232  -0.1350943317  0.100874  0.113802  4.607524  0.017667
 16   -472.75183729  -0.0782049675  0.057561  0.152494  9.275370  0.035431
 17   -472.86350436  -0.1116670723  0.077706  1.942536 30.012726  0.143552
 18   -466.84252621   6.0209781519  0.499663  0.886521  6.603565  0.034434
 19   -468.82299855  -1.9804723376  0.212020  5.020737 10.551716  0.048082

 WARNING: the maximum gradient error descreased on average only by a factor   0.9
          during the last 20 iterations

                      *** Initiating the TRAH-SCF procedure ***

              ***Rediagonalizing the Fockian in SOSCF/NRSCF***

TRAH GRIDX
----------

General Integration Accuracy     IntAcc      ... 3.067
Radial Grid Type                 RadialGrid  ... OptM3 with GC (2021)
Angular Grid (max. ang.)         AngularGrid ... 1 (Lebedev-50)
Angular grid pruning method      GridPruning ... 4 (adaptive)
Weight generation scheme         WeightScheme... Becke
Basis function cutoff            BFCut       ... 1.0000e-11
Integration weight cutoff        WCut        ... 1.0000e-14
Angular grids for H and He will be reduced by one unit
Partially contracted basis set               ... on
Rotationally invariant grid construction     ... off

Total number of grid points                  ...     5830
Total number of batches                      ...      102
Average number of points per batch           ...       57
Average number of grid points per atom       ...      324


TRAH GRID
---------

General Integration Accuracy     IntAcc      ... 3.467
Radial Grid Type                 RadialGrid  ... OptM3 with GC (2021)
Angular Grid (max. ang.)         AngularGrid ... 1 (Lebedev-50)
Angular grid pruning method      GridPruning ... 4 (adaptive)
Weight generation scheme         WeightScheme... Becke
Basis function cutoff            BFCut       ... 1.0000e-11
Integration weight cutoff        WCut        ... 1.0000e-14
Angular grids for H and He will be reduced by one unit
Partially contracted basis set               ... off
Rotationally invariant grid construction     ... off

Total number of grid points                  ...    12730
Total number of batches                      ...      209
Average number of points per batch           ...       60
Average number of grid points per atom       ...      707

 --------------------------------------------------------------------------------------------
   Iter.        energy            ||Error||_2        Shift      TRadius  Mac/Mic        Rej.
 --------------------------------------------------------------------------------------------
WARNING: 910 diagonal Hessian elements are negative!
    0       -462.303673704615     9.643436e+00                     0.400 (TRAH MAcro)   No
WARNING : negative HOMO - LUMO gap : -2.258872
    0     dE    -2.467294e+00     1.285058e+01    -6.7364e+00      0.400 (TRAH MIcro)
    0     dE    -2.814085e+00     7.950465e+00    -1.3566e+01      0.400 (TRAH MIcro)
    0     dE    -3.084768e+00     1.605496e+00    -1.6302e+01      0.400 (TRAH MIcro)
    0     dE    -3.113343e+00     6.693316e-01    -1.6398e+01      0.400 (TRAH MIcro)
    0     dE    -3.114457e+00     5.541276e-01    -1.6391e+01      0.400 (TRAH MIcro)
    0     dE    -3.117154e+00     1.041705e-01    -1.6330e+01      0.400 (TRAH MIcro)
    0     dE    -3.117348e+00     5.232540e-02    -1.6329e+01      0.400 (TRAH MIcro)
    0     dE    -3.117363e+00     3.977506e-02    -1.6326e+01      0.400 (TRAH MIcro)
    0     dE    -3.117388e+00     2.783794e-02    -1.6326e+01      0.400 (TRAH MIcro)
    0     dE    -3.117389e+00     1.415740e-02    -1.6325e+01      0.400 (TRAH MIcro)
    0     dE    -3.117390e+00     1.902491e-03    -1.6324e+01      0.400 (TRAH MIcro)
WARNING: 843 diagonal Hessian elements are negative!
    1       -465.384268776203     6.262059e+00                     0.480 (TRAH MAcro)   No
WARNING : negative HOMO - LUMO gap : -2.110098
    1     dE    -2.136947e+00     3.927854e+00    -5.5041e+00      0.480 (TRAH MIcro)
    1     dE    -2.368764e+00     2.255615e+00    -8.5786e+00      0.480 (TRAH MIcro)
    1     dE    -2.443271e+00     7.342692e-01    -9.2289e+00      0.480 (TRAH MIcro)
    1     dE    -2.458668e+00     2.799256e-01    -9.3010e+00      0.480 (TRAH MIcro)
    1     dE    -2.459444e+00     1.968127e-01    -9.2988e+00      0.480 (TRAH MIcro)
    1     dE    -2.460226e+00     2.866066e-02    -9.3023e+00      0.480 (TRAH MIcro)
    1     dE    -2.460258e+00     1.509178e-02    -9.3024e+00      0.480 (TRAH MIcro)
    1     dE    -2.460260e+00     9.545114e-03    -9.3020e+00      0.480 (TRAH MIcro)
WARNING: 791 diagonal Hessian elements are negative!
    2       -467.802247787992     4.205904e+00                     0.576 (TRAH MAcro)   No
WARNING : negative HOMO - LUMO gap : -1.972893
    2     dE    -1.807766e+00     2.910284e+00    -3.5957e+00      0.576 (TRAH MIcro)
    2     dE    -2.065396e+00     1.174885e+00    -5.7080e+00      0.576 (TRAH MIcro)
    2     dE    -2.108708e+00     3.922877e-01    -5.9813e+00      0.576 (TRAH MIcro)
    2     dE    -2.117215e+00     2.089687e-01    -5.9935e+00      0.576 (TRAH MIcro)
    2     dE    -2.121240e+00     4.667053e-01    -6.0893e+00      0.576 (TRAH MIcro)
    2     dE    -1.214873e+00     1.748048e-01    -1.1250e+01      0.318 (TRAH MIcro)
    2     dE    -1.215071e+00     1.341346e-01    -1.1253e+01      0.318 (TRAH MIcro)
    2     dE    -1.215250e+00     3.317094e-02    -1.1257e+01      0.318 (TRAH MIcro)
    2     dE    -1.215204e+00     2.493171e-02    -1.1257e+01      0.318 (TRAH MIcro)
    2     dE    -1.215085e+00     7.336258e-03    -1.1257e+01      0.318 (TRAH MIcro)
WARNING: 755 diagonal Hessian elements are negative!
    3       -469.007385559423     3.484645e+00                     0.691 (TRAH MAcro)   No
WARNING : negative HOMO - LUMO gap : -1.886793
    3     dE    -1.909431e+00     2.387034e+00    -2.9520e+00      0.691 (TRAH MIcro)
    3     dE    -2.139210e+00     8.755432e-01    -4.2483e+00      0.691 (TRAH MIcro)
    3     dE    -2.175408e+00     6.358323e-01    -4.4516e+00      0.691 (TRAH MIcro)
    3     dE    -1.878512e+00     1.112849e+00    -6.3820e+00      0.577 (TRAH MIcro)
    3     dE    -1.053777e+00     2.691195e-01    -9.5849e+00      0.324 (TRAH MIcro)
    3     dE    -1.055190e+00     1.468452e-01    -9.6047e+00      0.324 (TRAH MIcro)
    3     dE    -1.055538e+00     5.389259e-02    -9.6097e+00      0.324 (TRAH MIcro)
    3     dE    -1.055534e+00     2.475024e-02    -9.6107e+00      0.324 (TRAH MIcro)
    3     dE    -1.055540e+00     1.427883e-02    -9.6108e+00      0.324 (TRAH MIcro)
    3     dE    -1.055542e+00     4.633589e-03    -9.6109e+00      0.324 (TRAH MIcro)
WARNING: 721 diagonal Hessian elements are negative!
    4       -470.052742020667     3.016529e+00                     0.829 (TRAH MAcro)   No
WARNING : negative HOMO - LUMO gap : -1.828387
    4     dE    -1.913331e+00     1.842412e+00    -2.3678e+00      0.785 (TRAH MIcro)
    4     dE    -2.240876e+00     7.977673e-01    -3.1453e+00      0.829 (TRAH MIcro)
    4     dE    -1.910931e+00     1.746639e+00    -5.6149e+00      0.651 (TRAH MIcro)
    4     dE    -9.270472e-01     2.633950e-01    -8.3575e+00      0.327 (TRAH MIcro)
    4     dE    -9.252443e-01     7.434652e-02    -8.3799e+00      0.326 (TRAH MIcro)
    4     dE    -9.250222e-01     4.999871e-02    -8.3811e+00      0.325 (TRAH MIcro)
    4     dE    -9.251480e-01     1.322911e-02    -8.3818e+00      0.325 (TRAH MIcro)
    4     dE    -9.252006e-01     6.124587e-03    -8.3818e+00      0.325 (TRAH MIcro)
WARNING: 688 diagonal Hessian elements are negative!
    5       -470.966707936447     2.622980e+00                     0.995 (TRAH MAcro)   No
WARNING : negative HOMO - LUMO gap : -1.790672
    5     dE    -1.639021e+00     1.649495e+00    -2.0407e+00      0.779 (TRAH MIcro)
    5     dE    -2.927753e+00     3.610801e+00    -4.1263e+00      0.995 (TRAH MIcro)
    5     dE    -1.153737e+00     1.044070e-01    -7.5214e+00      0.438 (TRAH MIcro)
    5     dE    -1.174110e+00     5.629675e-02    -7.5260e+00      0.444 (TRAH MIcro)
    5     dE    -1.183260e+00     2.849867e-02    -7.5276e+00      0.447 (TRAH MIcro)
    5     dE    -1.187967e+00     2.419154e-02    -7.5285e+00      0.448 (TRAH MIcro)
    5     dE    -1.189198e+00     1.885337e-02    -7.5288e+00      0.448 (TRAH MIcro)
    5     dE    -1.189695e+00     1.186032e-02    -7.5290e+00      0.449 (TRAH MIcro)
    5     dE    -1.189971e+00     7.317232e-03    -7.5290e+00      0.449 (TRAH MIcro)
WARNING: 589 diagonal Hessian elements are negative!
    6       -472.089561817368     2.902723e+00                     1.194 (TRAH MAcro)   No
WARNING : negative HOMO - LUMO gap : -1.569066
    6     dE    -3.321317e+00     3.288573e+00    -3.1014e+00      1.069 (TRAH MIcro)
    6     dE    -5.282121e+00     1.391346e+00    -5.4530e+00      1.194 (TRAH MIcro)
    6     dE    -5.522728e+00     6.371177e-01    -6.1538e+00      1.187 (TRAH MIcro)
    6     dE    -5.603515e+00     3.197671e-01    -6.2258e+00      1.194 (TRAH MIcro)
    6     dE    -5.610590e+00     1.881048e-01    -6.2521e+00      1.194 (TRAH MIcro)
    6     dE    -5.616985e+00     2.431190e-01    -6.2812e+00      1.194 (TRAH MIcro)
    6     dE    -2.839637e+00     2.150600e-01    -6.8727e+00      0.755 (TRAH MIcro)
    6     dE    -2.831194e+00     8.616339e-02    -6.8751e+00      0.753 (TRAH MIcro)
    6     dE    -2.828680e+00     4.727510e-02    -6.8755e+00      0.753 (TRAH MIcro)
    6     dE    -2.827157e+00     1.448914e-02    -6.8756e+00      0.752 (TRAH MIcro)
    6     dE    -2.827088e+00     5.876659e-03    -6.8757e+00      0.752 (TRAH MIcro)
WARNING: 157 diagonal Hessian elements are negative!
    7       -474.145608282459     2.588321e+00                     1.194 (TRAH MAcro)   No
WARNING : negative HOMO - LUMO gap : -0.824615
    7     dE    -1.190945e+00     2.492309e+00    -1.6753e+00      0.649 (TRAH MIcro)
    7     dE    -2.395668e+00     2.396243e+00    -2.1694e+00      1.099 (TRAH MIcro)
    7     dE    -2.531237e+00     5.597621e-01    -3.4457e+00      1.009 (TRAH MIcro)
    7     dE    -3.085461e+00     3.130551e-01    -3.4856e+00      1.148 (TRAH MIcro)
    7     dE    -3.285410e+00     1.083729e-01    -3.5065e+00      1.194 (TRAH MIcro)
    7     dE    -3.286341e+00     3.900073e-02    -3.5104e+00      1.194 (TRAH MIcro)
    7     dE    -3.286434e+00     9.234344e-03    -3.5110e+00      1.194 (TRAH MIcro)
WARNING: 19 diagonal Hessian elements are negative!
    8       -475.567145148056     2.249390e+00                     1.194 (TRAH MAcro)   No
WARNING : negative HOMO - LUMO gap : -0.298568
    8     dE    -3.461518e-01     2.492895e+00    -6.4040e-01      0.285 (TRAH MIcro)
    8     dE    -7.123778e-01     5.737569e-01    -1.0388e+00      0.610 (TRAH MIcro)
    8     dE    -7.232344e-01     9.481709e-02    -1.0531e+00      0.611 (TRAH MIcro)
    8     dE    -7.254910e-01     6.640389e-02    -1.0546e+00      0.613 (TRAH MIcro)
    8     dE    -7.286510e-01     6.009897e-02    -1.0553e+00      0.617 (TRAH MIcro)
    8     dE    -7.359663e-01     7.894211e-02    -1.0560e+00      0.628 (TRAH MIcro)
    8     dE    -8.100517e-01     2.353464e-01    -1.0590e+00      0.728 (TRAH MIcro)
    8     dE    -1.137147e+00     4.734562e-01    -1.1553e+00      1.039 (TRAH MIcro)
    8     dE    -7.096836e-01     9.258184e-02    -1.2458e+00      0.587 (TRAH MIcro)
    8     dE    -7.138634e-01     2.140145e-02    -1.2464e+00      0.592 (TRAH MIcro)
    8     dE    -7.173130e-01     1.812024e-02    -1.2465e+00      0.597 (TRAH MIcro)
    8     dE    -7.268894e-01     2.256965e-02    -1.2466e+00      0.610 (TRAH MIcro)
    8     dE    -7.360616e-01     9.564927e-03    -1.2467e+00      0.622 (TRAH MIcro)
    9       -476.176802308544     4.895704e-01                     1.433 (TRAH MAcro)   No
    9     dE    -2.823436e-02     8.356970e-01    -5.5746e-02      0.114 (TRAH MIcro)
    9     dE    -4.677915e-02     4.001766e-01    -8.9821e-02      0.204 (TRAH MIcro)
    9     dE    -5.293691e-02     2.104754e-01    -1.0036e-01      0.234 (TRAH MIcro)
    9     dE    -5.431202e-02     5.904826e-02    -1.0263e-01      0.242 (TRAH MIcro)
    9     dE    -5.454492e-02     1.869997e-02    -1.0297e-01      0.244 (TRAH MIcro)
    9     dE    -5.457238e-02     6.050686e-03    -1.0299e-01      0.244 (TRAH MIcro)
   10       -476.233723173833     1.033399e-01                     1.720 (TRAH MAcro)   No
WARNING : small    HOMO - LUMO gap : 0.015679
   10     dE    -1.053964e-03     2.353487e-01    -2.1071e-03      0.020 (TRAH MIcro)
   10     dE    -3.001949e-03     1.179342e-01    -5.9677e-03      0.078 (TRAH MIcro)
   10     dE    -5.097109e-03     8.109552e-02    -9.8812e-03      0.178 (TRAH MIcro)
   10     dE    -5.353615e-03     2.713058e-02    -1.0337e-02      0.189 (TRAH MIcro)
   10     dE    -5.395520e-03     9.979379e-03    -1.0392e-02      0.196 (TRAH MIcro)
   11       -476.239378861172     1.035957e-01                     2.064 (TRAH MAcro)   No
   11     dE    -7.202529e-04     1.154799e-01    -1.4402e-03      0.014 (TRAH MIcro)
   11     dE    -1.249922e-03     4.126441e-02    -2.4972e-03      0.032 (TRAH MIcro)
   11     dE    -1.804710e-03     3.415308e-02    -3.5923e-03      0.069 (TRAH MIcro)
   11     dE    -1.899170e-03     1.414498e-02    -3.7730e-03      0.082 (TRAH MIcro)
   11     dE    -1.911304e-03     3.494433e-03    -3.7955e-03      0.084 (TRAH MIcro)
   12       -476.241652760833     2.089660e-02                     2.477 (TRAH MAcro)   No
WARNING : small    HOMO - LUMO gap : 0.006717
   12     dE    -3.141921e-05     4.435693e-02    -6.2838e-05      0.003 (TRAH MIcro)
   12     dE    -6.720270e-05     2.000586e-02    -1.3440e-04      0.008 (TRAH MIcro)
   12     dE    -4.275471e-04     4.038255e-02    -8.4976e-04      0.079 (TRAH MIcro)
   12     dE    -5.658324e-04     6.740780e-03    -1.1186e-03      0.108 (TRAH MIcro)
   12     dE    -5.698419e-04     3.075977e-03    -1.1261e-03      0.110 (TRAH MIcro)
   12     dE    -5.706618e-04     1.305229e-03    -1.1277e-03      0.110 (TRAH MIcro)
   13       -476.242224234030     3.000423e-02                     2.972 (TRAH MAcro)   No
WARNING : small    HOMO - LUMO gap : 0.009761
   13     dE    -5.815458e-05     4.472193e-02    -1.1631e-04      0.004 (TRAH MIcro)
   13     dE    -1.074545e-04     1.436337e-02    -2.1489e-04      0.010 (TRAH MIcro)
   13     dE    -1.299561e-04     6.929190e-03    -2.5985e-04      0.015 (TRAH MIcro)
   13     dE    -1.384606e-04     3.729887e-03    -2.7679e-04      0.022 (TRAH MIcro)
   13     dE    -1.392364e-04     1.289478e-03    -2.7832e-04      0.023 (TRAH MIcro)
   14       -476.242372628563     2.177851e-03                     3.566 (TRAH MAcro)   No
WARNING : small    HOMO - LUMO gap : 0.003927
   14     dE    -1.753503e-07     4.776023e-03    -3.5072e-07      0.000 (TRAH MIcro)
   14     dE    -4.306631e-07     2.736464e-03    -8.6133e-07      0.001 (TRAH MIcro)
   14     dE    -3.517847e-06     5.583718e-03    -7.0353e-06      0.007 (TRAH MIcro)
   14     dE    -5.289616e-06     9.801370e-04    -1.0578e-05      0.012 (TRAH MIcro)
   14     dE    -5.333553e-06     4.824464e-04    -1.0666e-05      0.012 (TRAH MIcro)
   14     dE    -5.342677e-06     1.505026e-04    -1.0684e-05      0.012 (TRAH MIcro)
   15       -476.242378079432     3.938436e-04                           (NR   MAcro)
WARNING : small    HOMO - LUMO gap : 0.003671
   15     dE    -1.521947e-08     2.610848e-04                           (NR   MIcro)
   15     dE    -2.136315e-08     1.154216e-04                           (NR   MIcro)
   15     dE    -2.317286e-08     9.188611e-05                           (NR   MIcro)
   15     dE    -2.382965e-08     4.048690e-05                           (NR   MIcro)
   15     dE    -2.394269e-08     1.790664e-05                           (NR   MIcro)
   15     dE    -2.395988e-08     4.619037e-06                           (NR   MIcro)
   15     dE    -2.396163e-08     1.834311e-06                           (NR   MIcro)
   15     dE    -2.396187e-08     6.363530e-07                           (NR   MIcro)
   16       -476.242378103231     9.947366e-07                           (NR   MAcro)
WARNING : small    HOMO - LUMO gap : 0.003594
   16     dE    -1.819255e-14     9.307828e-07                           (NR   MIcro)
   17       -476.242378103231     9.309414e-07                           (NR   MAcro)
WARNING : small    HOMO - LUMO gap : 0.003594

               *****************************************************
               *                     SUCCESS                       *
               *           SCF CONVERGED AFTER 167 CYCLES          *
               *****************************************************

Old exchange energy                            =    -12.321827818 Eh
New exchange energy                            =    -12.321820545 Eh
Exchange energy change after final integration =      0.000007273 Eh
Total energy after final integration           =   -476.242370831 Eh
Final COS-X integration done in                =    37.271 sec

----------------
TOTAL SCF ENERGY
----------------

Total Energy       :         -476.24237083 Eh          -12959.21374 eV

Components:
Nuclear Repulsion  :          356.98189793 Eh            9713.97129 eV
Electronic Energy  :         -833.22426876 Eh          -22673.18504 eV
One Electron Energy:        -1341.61538925 Eh          -36507.21073 eV
Two Electron Energy:          508.39112049 Eh           13834.02570 eV
Max COSX asymmetry :            0.00000060 Eh               0.00002 eV

Virial components:
Potential Energy   :         -950.57715343 Eh          -25866.51937 eV
Kinetic Energy     :          474.33478259 Eh           12907.30563 eV
Virial Ratio       :            2.00402161


DFT components:
N(Alpha)           :       36.000038902233 electrons
N(Beta)            :       36.000038902233 electrons
N(Total)           :       72.000077804466 electrons
E(X)               :      -49.169458757350 Eh       
E(C)               :       -2.888603541102 Eh       
E(XC)              :      -52.058062298451 Eh       
DFET-embed. en.    :        0.000000000000 Eh       

---------------
SCF CONVERGENCE
---------------

  Last Energy change         ...    7.3896e-13  Tolerance :   1.0000e-08
  Last Orbital Gradient      ...    9.3094e-07  Tolerance :   1.0000e-05
  Last Orbital Rotation      ...    1.3922e-07

             **** THE GBW FILE WAS UPDATED (e_c_14.gbw) ****
             **** DENSITY e_c_14.scfp WAS UPDATED ****
             **** ENERGY FILE WAS UPDATED (e_c_14.en.tmp) ****
             **** THE GBW FILE WAS UPDATED (e_c_14.gbw) ****
             **** DENSITY e_c_14.scfp WAS UPDATED ****
----------------
ORBITAL ENERGIES
----------------

  NO   OCC          E(Eh)            E(eV) 
   0   2.0000     -19.468521      -529.7654 
   1   2.0000     -19.468226      -529.7574 
   2   2.0000     -14.788136      -402.4056 
   3   2.0000     -10.303676      -280.3773 
   4   2.0000     -10.290728      -280.0249 
   5   2.0000     -10.278734      -279.6986 
   6   2.0000     -10.278343      -279.6879 
   7   2.0000     -10.277429      -279.6631 
   8   2.0000     -10.277001      -279.6514 
   9   2.0000     -10.259595      -279.1778 
  10   2.0000      -1.523444       -41.4550 
  11   2.0000      -1.401340       -38.1324 
  12   2.0000      -0.966082       -26.2884 
  13   2.0000      -0.878177       -23.8964 
  14   2.0000      -0.855675       -23.2841 
  15   2.0000      -0.852261       -23.1912 
  16   2.0000      -0.800123       -21.7725 
  17   2.0000      -0.796386       -21.6708 
  18   2.0000      -0.785991       -21.3879 
  19   2.0000      -0.779371       -21.2078 
  20   2.0000      -0.709699       -19.3119 
  21   2.0000      -0.688187       -18.7265 
  22   2.0000      -0.615026       -16.7357 
  23   2.0000      -0.595358       -16.2005 
  24   2.0000      -0.591234       -16.0883 
  25   2.0000      -0.567896       -15.4532 
  26   2.0000      -0.554498       -15.0887 
  27   2.0000      -0.525232       -14.2923 
  28   2.0000      -0.518160       -14.0998 
  29   2.0000      -0.512065       -13.9340 
  30   2.0000      -0.481854       -13.1119 
  31   2.0000      -0.459161       -12.4944 
  32   2.0000      -0.448118       -12.1939 
  33   2.0000      -0.442179       -12.0323 
  34   2.0000      -0.360653        -9.8139 
  35   2.0000      -0.339336        -9.2338 
  36   0.0000      -0.335742        -9.1360 
  37   0.0000      -0.262728        -7.1492 
  38   0.0000      -0.116246        -3.1632 
  39   0.0000      -0.110440        -3.0052 
  40   0.0000      -0.067979        -1.8498 
  41   0.0000      -0.034005        -0.9253 
  42   0.0000      -0.019129        -0.5205 
  43   0.0000      -0.003219        -0.0876 
  44   0.0000       0.013219         0.3597 
  45   0.0000       0.022290         0.6065 
  46   0.0000       0.029204         0.7947 
  47   0.0000       0.038464         1.0467 
  48   0.0000       0.053029         1.4430 
  49   0.0000       0.058613         1.5950 
  50   0.0000       0.074063         2.0153 
  51   0.0000       0.079477         2.1627 
  52   0.0000       0.093233         2.5370 
  53   0.0000       0.098518         2.6808 
  54   0.0000       0.102559         2.7908 
  55   0.0000       0.106291         2.8923 
  56   0.0000       0.128374         3.4932 
  57   0.0000       0.130986         3.5643 
  58   0.0000       0.133601         3.6355 
  59   0.0000       0.142904         3.8886 
  60   0.0000       0.144973         3.9449 
  61   0.0000       0.153020         4.1639 
  62   0.0000       0.165079         4.4920 
  63   0.0000       0.172418         4.6917 
  64   0.0000       0.183019         4.9802 
  65   0.0000       0.197039         5.3617 
  66   0.0000       0.212771         5.7898 
  67   0.0000       0.224300         6.1035 
  68   0.0000       0.229854         6.2547 
  69   0.0000       0.230506         6.2724 
  70   0.0000       0.252444         6.8694 
  71   0.0000       0.257137         6.9971 
  72   0.0000       0.262864         7.1529 
  73   0.0000       0.267081         7.2676 
  74   0.0000       0.274645         7.4735 
  75   0.0000       0.286985         7.8093 
  76   0.0000       0.290260         7.8984 
  77   0.0000       0.312841         8.5128 
  78   0.0000       0.327036         8.8991 
  79   0.0000       0.329796         8.9742 
  80   0.0000       0.335339         9.1250 
  81   0.0000       0.338446         9.2096 
  82   0.0000       0.346838         9.4379 
  83   0.0000       0.360892         9.8204 
  84   0.0000       0.367577        10.0023 
  85   0.0000       0.369843        10.0639 
  86   0.0000       0.371354        10.1051 
  87   0.0000       0.381411        10.3787 
  88   0.0000       0.383621        10.4389 
  89   0.0000       0.404472        11.0063 
  90   0.0000       0.406319        11.0565 
  91   0.0000       0.408364        11.1121 
  92   0.0000       0.427132        11.6229 
  93   0.0000       0.434670        11.8280 
  94   0.0000       0.464297        12.6342 
  95   0.0000       0.477982        13.0065 
  96   0.0000       0.484473        13.1832 
  97   0.0000       0.520418        14.1613 
  98   0.0000       0.543502        14.7894 
  99   0.0000       0.561041        15.2667 
 100   0.0000       0.570550        15.5255 
 101   0.0000       0.577574        15.7166 
 102   0.0000       0.601757        16.3747 
 103   0.0000       0.613259        16.6876 
 104   0.0000       0.614543        16.7226 
 105   0.0000       0.644014        17.5245 
 106   0.0000       0.668170        18.1818 
 107   0.0000       0.681050        18.5323 
 108   0.0000       0.690058        18.7774 
 109   0.0000       0.714942        19.4546 
 110   0.0000       0.718411        19.5490 
 111   0.0000       0.723371        19.6839 
 112   0.0000       0.731308        19.8999 
 113   0.0000       0.739067        20.1110 
 114   0.0000       0.756525        20.5861 
 115   0.0000       0.774508        21.0754 
 116   0.0000       0.799285        21.7496 
 117   0.0000       0.827798        22.5255 
 118   0.0000       0.839006        22.8305 
 119   0.0000       0.866190        23.5702 
 120   0.0000       0.899168        24.4676 
 121   0.0000       0.905180        24.6312 
 122   0.0000       0.920189        25.0396 
 123   0.0000       0.925909        25.1953 
 124   0.0000       0.950071        25.8528 
 125   0.0000       0.975971        26.5575 
 126   0.0000       1.007102        27.4046 
 127   0.0000       1.018375        27.7114 
 128   0.0000       1.030344        28.0371 
 129   0.0000       1.062225        28.9046 
 130   0.0000       1.097186        29.8559 
 131   0.0000       1.099490        29.9187 
 132   0.0000       1.121038        30.5050 
 133   0.0000       1.129808        30.7436 
 134   0.0000       1.138829        30.9891 
 135   0.0000       1.157573        31.4992 
 136   0.0000       1.160801        31.5870 
 137   0.0000       1.191560        32.4240 
 138   0.0000       1.202141        32.7119 
 139   0.0000       1.212688        32.9989 
 140   0.0000       1.215808        33.0838 
 141   0.0000       1.224232        33.3130 
 142   0.0000       1.282273        34.8924 
 143   0.0000       1.303195        35.4617 
 144   0.0000       1.333889        36.2970 
 145   0.0000       1.343485        36.5581 
 146   0.0000       1.361615        37.0514 
 147   0.0000       1.363934        37.1145 
 148   0.0000       1.381348        37.5884 
 149   0.0000       1.404919        38.2298 
 150   0.0000       1.430449        38.9245 
 151   0.0000       1.440859        39.2078 
 152   0.0000       1.441181        39.2165 
 153   0.0000       1.457439        39.6589 
 154   0.0000       1.461540        39.7705 
 155   0.0000       1.470580        40.0165 
 156   0.0000       1.481352        40.3096 
 157   0.0000       1.513681        41.1893 
 158   0.0000       1.515600        41.2416 
 159   0.0000       1.535920        41.7945 
 160   0.0000       1.560574        42.4654 
 161   0.0000       1.568556        42.6826 
 162   0.0000       1.590596        43.2823 
 163   0.0000       1.593215        43.3536 
 164   0.0000       1.611237        43.8440 
 165   0.0000       1.636347        44.5273 
 166   0.0000       1.636955        44.5438 
 167   0.0000       1.639088        44.6019 
 168   0.0000       1.641392        44.6645 
 169   0.0000       1.708010        46.4773 
 170   0.0000       1.744131        47.4602 
 171   0.0000       1.767889        48.1067 
 172   0.0000       1.787691        48.6455 
 173   0.0000       1.804782        49.1106 
 174   0.0000       1.836236        49.9665 
 175   0.0000       1.844010        50.1780 
 176   0.0000       1.862733        50.6876 
 177   0.0000       1.891214        51.4626 
 178   0.0000       1.907080        51.8943 
 179   0.0000       1.913563        52.0707 
 180   0.0000       1.954741        53.1912 
 181   0.0000       1.969562        53.5945 
 182   0.0000       1.971965        53.6599 
 183   0.0000       1.972476        53.6738 
 184   0.0000       1.981843        53.9287 
 185   0.0000       1.989349        54.1329 
 186   0.0000       2.031236        55.2727 
 187   0.0000       2.045868        55.6709 
 188   0.0000       2.055695        55.9383 
 189   0.0000       2.095428        57.0195 
 190   0.0000       2.115222        57.5581 
 191   0.0000       2.133124        58.0452 
 192   0.0000       2.149392        58.4879 
 193   0.0000       2.162093        58.8335 
 194   0.0000       2.188277        59.5460 
 195   0.0000       2.214072        60.2480 
 196   0.0000       2.254948        61.3603 
 197   0.0000       2.266343        61.6703 
 198   0.0000       2.292918        62.3935 
 199   0.0000       2.348944        63.9180 
 200   0.0000       2.381243        64.7969 
 201   0.0000       2.408849        65.5481 
 202   0.0000       2.414417        65.6996 
 203   0.0000       2.416924        65.7678 
 204   0.0000       2.442450        66.4624 
 205   0.0000       2.448428        66.6251 
 206   0.0000       2.453071        66.7514 
 207   0.0000       2.489279        67.7367 
 208   0.0000       2.506350        68.2012 
 209   0.0000       2.525352        68.7183 
 210   0.0000       2.547312        69.3159 
 211   0.0000       2.563522        69.7570 
 212   0.0000       2.572763        70.0084 
 213   0.0000       2.576141        70.1004 
 214   0.0000       2.589206        70.4559 
 215   0.0000       2.597592        70.6841 
 216   0.0000       2.643220        71.9257 
 217   0.0000       2.662167        72.4412 
 218   0.0000       2.666373        72.5557 
 219   0.0000       2.667308        72.5811 
 220   0.0000       2.679767        72.9202 
 221   0.0000       2.687235        73.1234 
 222   0.0000       2.696887        73.3860 
 223   0.0000       2.708572        73.7040 
 224   0.0000       2.716873        73.9299 
 225   0.0000       2.727305        74.2137 
 226   0.0000       2.745501        74.7089 
 227   0.0000       2.746395        74.7332 
 228   0.0000       2.787969        75.8645 
 229   0.0000       2.804793        76.3223 
 230   0.0000       2.834596        77.1333 
 231   0.0000       2.836642        77.1889 
 232   0.0000       2.887347        78.5687 
 233   0.0000       2.890931        78.6662 
 234   0.0000       2.893841        78.7454 
 235   0.0000       2.910802        79.2070 
 236   0.0000       2.922229        79.5179 
 237   0.0000       2.941113        80.0318 
 238   0.0000       2.989479        81.3479 
 239   0.0000       2.997741        81.5727 
 240   0.0000       3.024780        82.3084 
 241   0.0000       3.028388        82.4066 
 242   0.0000       3.040670        82.7408 
 243   0.0000       3.059852        83.2628 
 244   0.0000       3.075705        83.6942 
 245   0.0000       3.089120        84.0592 
 246   0.0000       3.097910        84.2984 
 247   0.0000       3.103488        84.4502 
 248   0.0000       3.126431        85.0745 
 249   0.0000       3.146200        85.6125 
 250   0.0000       3.178786        86.4992 
 251   0.0000       3.197044        86.9960 
 252   0.0000       3.213938        87.4557 
 253   0.0000       3.229690        87.8843 
 254   0.0000       3.241318        88.2007 
 255   0.0000       3.247408        88.3665 
 256   0.0000       3.279933        89.2515 
 257   0.0000       3.289244        89.5049 
 258   0.0000       3.291446        89.5648 
 259   0.0000       3.313566        90.1667 
 260   0.0000       3.359734        91.4230 
 261   0.0000       3.368702        91.6671 
 262   0.0000       3.388582        92.2080 
 263   0.0000       3.393544        92.3430 
 264   0.0000       3.433047        93.4180 
 265   0.0000       3.468643        94.3866 
 266   0.0000       3.485422        94.8432 
 267   0.0000       3.486746        94.8792 
 268   0.0000       3.492195        95.0275 
 269   0.0000       3.522492        95.8519 
 270   0.0000       3.536422        96.2309 
 271   0.0000       3.570016        97.1451 
 272   0.0000       3.581760        97.4646 
 273   0.0000       3.593523        97.7847 
 274   0.0000       3.628561        98.7382 
 275   0.0000       3.661348        99.6303 
 276   0.0000       3.677379       100.0666 
 277   0.0000       3.726737       101.4097 
 278   0.0000       3.754323       102.1603 
 279   0.0000       3.783561       102.9559 
 280   0.0000       3.802371       103.4678 
 281   0.0000       3.843349       104.5828 
 282   0.0000       3.884158       105.6933 
 283   0.0000       3.908917       106.3670 
 284   0.0000       3.957935       107.7009 
 285   0.0000       3.977603       108.2361 
 286   0.0000       3.989176       108.5510 
 287   0.0000       3.999799       108.8401 
 288   0.0000       4.004865       108.9779 
 289   0.0000       4.018307       109.3437 
 290   0.0000       4.019913       109.3874 
 291   0.0000       4.044979       110.0695 
 292   0.0000       4.057560       110.4118 
 293   0.0000       4.080607       111.0390 
 294   0.0000       4.101440       111.6058 
 295   0.0000       4.114214       111.9534 
 296   0.0000       4.141958       112.7084 
 297   0.0000       4.152657       112.9995 
 298   0.0000       4.160415       113.2107 
 299   0.0000       4.195733       114.1717 
 300   0.0000       4.202102       114.3450 
 301   0.0000       4.229758       115.0976 
 302   0.0000       4.279764       116.4583 
 303   0.0000       4.320483       117.5663 
 304   0.0000       4.356091       118.5353 
 305   0.0000       4.366022       118.8055 
 306   0.0000       4.427756       120.4854 
 307   0.0000       4.488749       122.1451 
 308   0.0000       4.558307       124.0378 
 309   0.0000       4.573559       124.4529 
 310   0.0000       4.590473       124.9131 
 311   0.0000       4.609415       125.4286 
 312   0.0000       4.609527       125.4316 
 313   0.0000       4.761458       129.5659 
 314   0.0000       4.771558       129.8407 
 315   0.0000       4.833859       131.5360 
 316   0.0000       4.836793       131.6158 
 317   0.0000       4.839257       131.6829 
 318   0.0000       4.851373       132.0126 
 319   0.0000       4.885183       132.9326 
 320   0.0000       4.888202       133.0147 
 321   0.0000       4.938727       134.3896 
 322   0.0000       5.102012       138.8328 
 323   0.0000       5.115037       139.1872 
 324   0.0000       5.115194       139.1915 
 325   0.0000       5.131019       139.6221 
 326   0.0000       5.247887       142.8023 
 327   0.0000       5.281504       143.7170 
 328   0.0000       5.341965       145.3623 
 329   0.0000       5.495559       149.5418 
 330   0.0000       5.540995       150.7781 
 331   0.0000       5.577737       151.7779 
 332   0.0000       5.902908       160.6263 
 333   0.0000       5.945695       161.7906 
 334   0.0000       5.968912       162.4224 
 335   0.0000       5.998143       163.2178 
 336   0.0000       6.028441       164.0422 
 337   0.0000       6.100452       166.0017 
 338   0.0000       6.271296       170.6506 
 339   0.0000       6.314996       171.8398 
 340   0.0000       6.367921       173.2799 
 341   0.0000       6.627969       180.3562 
 342   0.0000       6.801486       185.0778 
 343   0.0000       6.852152       186.4565 
 344   0.0000       7.116885       193.6603 
 345   0.0000       7.143910       194.3957 
 346   0.0000       7.463881       203.1025 
 347   0.0000       7.711910       209.8517 
 348   0.0000      21.804860       593.3404 
 349   0.0000      22.307482       607.0175 
 350   0.0000      22.467724       611.3778 
 351   0.0000      22.472314       611.5028 
 352   0.0000      22.587983       614.6503 
 353   0.0000      22.666029       616.7740 
 354   0.0000      23.057968       627.4392 
 355   0.0000      32.095520       873.3635 
 356   0.0000      43.732921      1190.0333 
 357   0.0000      43.767454      1190.9730 

                    ********************************
                    * MULLIKEN POPULATION ANALYSIS *
                    ********************************

-----------------------
MULLIKEN ATOMIC CHARGES
-----------------------
   0 C :    0.184045
   1 C :   -0.150514
   2 C :   -0.083183
   3 C :   -0.066982
   4 C :   -0.084242
   5 C :   -0.153686
   6 C :   -0.344508
   7 H :    0.136497
   8 H :    0.144731
   9 H :    0.154581
  10 H :    0.141696
  11 H :    0.143597
[...]
      9       0.004361  -0.087381  -0.006062   0.000001   0.000027  -0.000061
     10       0.017452   0.159569  -0.026760   0.000009   0.000017   0.000072
     11       0.086904  -0.053645  -0.126600   0.000029   0.000124  -0.000013
     12      -0.041942   0.030799   0.023597  -0.000004  -0.000155   0.000066
     13       0.049023  -0.094216   0.039759   0.000002   0.000161   0.000075
     14      -0.117377  -0.106430   0.288224  -0.000046  -0.000238  -0.000070
     15       0.046530  -0.012496   0.040021  -0.000007   0.000251  -0.000567
     16      -0.106881   0.059523  -0.156043   0.000030  -0.000154  -0.000023
     17      -0.039554   0.114855  -0.246807   0.000043  -0.000281  -0.000389
     18       0.005149   0.006056   0.001379  -0.000001   0.032634  -0.075949
     19      -0.006341  -0.011425  -0.009756   0.000002   0.048478  -0.007447
     20      -0.038810  -0.006137  -0.032001   0.000012   0.024632   0.029487
     21      -0.069167   0.003120  -0.020534  -0.000003  -0.035115  -0.078026
     22       0.030903   0.111949   0.003107   0.000007   0.182967   0.224041
     23       0.022695   0.119766  -0.012053   0.000014  -0.167313  -0.222483
     24      -0.032831  -0.046183   0.000139  -0.000016   0.273176   0.771500
     25      -0.111482  -0.111909  -0.027326  -0.000006  -0.108937  -0.384832
     26       0.030942  -0.022911   0.007306  -0.000018  -0.050162  -0.158267
     27       0.051253   0.083609   0.005490   0.000028  -0.634956   0.224019
     28      -0.048319  -0.089144  -0.011807   0.000010  -0.659250   0.259450
     29      -0.039547   0.020908  -0.016403  -0.000017  -0.080291   0.039336
     30       0.060826   0.089234   0.122064  -0.000003  -0.001204  -0.004921
     31       0.006887  -0.081613  -0.123888   0.000002   0.004307   0.007317
     32       0.418572   0.328901   0.383415   0.000014   0.001700   0.002749
     33      -0.121768   0.096958   0.129196  -0.000001   0.000121   0.000253
     34       0.344256  -0.193497  -0.295063   0.000006  -0.000263  -0.000367
     35       0.322942   0.001100  -0.120768   0.000002   0.001195   0.000959
     36      -0.036217   0.315659   0.021300   0.000020   0.000234  -0.000449
     37       0.094813  -0.559608  -0.077657   0.000001   0.000501  -0.000306
     38       0.073072   0.249981  -0.122715   0.000035   0.001048   0.000080
     39       0.071040   0.109986  -0.103402   0.000011  -0.000550   0.000249
     40      -0.001398  -0.148797   0.113589   0.000001   0.000493   0.000664
     41       0.460872   0.242272  -0.319117   0.000073   0.000656   0.000270
     42      -0.108033   0.105564  -0.135386   0.000040   0.001338   0.001599
     43       0.323450  -0.252378   0.323265  -0.000042  -0.001258  -0.003040
     44       0.343905  -0.139073   0.152965  -0.000056   0.002758   0.004711
     45       0.001275  -0.000251   0.012941  -0.108121  -0.000345   0.000011
     46      -0.001830   0.000362  -0.018608  -0.299751   0.000494  -0.000016
     47       0.000530  -0.000099   0.005331  -0.780192  -0.000144   0.000005
     48      -0.000911   0.000175  -0.008387   0.099392   0.000189  -0.000006
     49      -0.000172   0.000027   0.000624   0.056075  -0.000112   0.000004
     50      -0.002770   0.000524  -0.021934   0.362459   0.000336  -0.000011
     51      -0.000206   0.000044  -0.002942  -0.004740   0.000113  -0.000004
     52       0.001774  -0.000344   0.015666   0.206353  -0.000321   0.000010
     53       0.002304  -0.000439   0.017266   0.320555  -0.000210   0.000007
                 48         49         50         51         52         53    
      0      -0.000369  -0.000404   0.000813   0.000146   0.000787   0.000108
      1       0.001142   0.000296  -0.001676  -0.000719  -0.001441  -0.000504
      2       0.000573  -0.001927  -0.000250  -0.001483   0.000455  -0.001071
      3       0.000657   0.030210  -0.010555   0.012936  -0.009130   0.006309
      4      -0.000629  -0.064096   0.022632  -0.027701   0.020208  -0.014017
      5      -0.000131  -0.011995   0.004950  -0.006011   0.006395  -0.004597
      6      -0.000005  -0.014287   0.000351   0.010059  -0.021553   0.017704
      7      -0.000047   0.020378  -0.000913  -0.012906   0.029409  -0.024887
      8      -0.000047  -0.026992  -0.000684   0.023750  -0.045122   0.034699
      9      -0.000101  -0.000790  -0.001100   0.002439   0.001906  -0.002257
     10       0.000179   0.007548   0.008021  -0.022128  -0.004609   0.020023
     11      -0.000101   0.019589   0.019103  -0.056762  -0.002556   0.050979
     12      -0.000049   0.006055   0.017322  -0.006436  -0.022789  -0.020401
     13       0.000062  -0.013050  -0.036828   0.014808   0.049558   0.043600
     14      -0.000039  -0.002599  -0.005793   0.005884   0.011315   0.007635
     15       0.000685  -0.004442  -0.025252  -0.015420  -0.010082  -0.006753
     16      -0.001403   0.006524   0.035793   0.021626   0.013388   0.008820
     17       0.002292  -0.008222  -0.050968  -0.031915  -0.023350  -0.016128
     18      -0.034381   0.000689  -0.000793   0.000014  -0.000351   0.000022
     19       0.070904  -0.000422   0.001867   0.000583   0.000669   0.000316
     20      -0.046112  -0.000111  -0.001314  -0.000635  -0.000422  -0.000183
     21       0.168628  -0.000308   0.004678   0.001785   0.001407   0.000680
     22      -0.639025   0.000620  -0.017118  -0.006922  -0.005160  -0.002574
     23       0.633314   0.001434   0.018950   0.009347   0.005259   0.003721
     24       0.334331  -0.009031   0.007098  -0.001777   0.002882  -0.000230
     25      -0.149135   0.004512  -0.003404   0.000947  -0.001299   0.000204
     26      -0.074977   0.003663  -0.001273   0.001847  -0.000533   0.000730
     27      -0.091881   0.001271  -0.002370  -0.000071  -0.000813  -0.000787
     28      -0.065970   0.000724  -0.001484   0.000133  -0.000298  -0.000740
     29      -0.020149   0.001168  -0.000375   0.000984  -0.000161   0.000267
     30      -0.003891  -0.348637   0.123189  -0.146569   0.104503  -0.069902
     31       0.008044   0.740614  -0.262023   0.311640  -0.222932   0.149159
     32       0.002967   0.143055  -0.051283   0.061167  -0.045836   0.031036
     33       0.000526   0.166673  -0.001894  -0.123695   0.247276  -0.193144
     34      -0.001100  -0.231546   0.003202   0.169912  -0.341911   0.268081
     35       0.001337   0.335371  -0.002140  -0.254669   0.502084  -0.388982
     36       0.000130   0.010131   0.010560  -0.029302  -0.004341   0.025262
     37       0.000133  -0.090213  -0.089853   0.258937   0.021450  -0.222527
     38       0.000936  -0.229963  -0.225890   0.658409   0.041836  -0.565293
     39       0.001685  -0.071866  -0.203233   0.079361   0.261147   0.223984
     40      -0.003102   0.154686   0.436602  -0.172113  -0.562535  -0.481385
     41      -0.000719   0.030194   0.083118  -0.037344  -0.111021  -0.091815
     42      -0.009589   0.048839   0.290910   0.175707   0.117318   0.076897
     43       0.013581  -0.069143  -0.410226  -0.247508  -0.164468  -0.107621
     44      -0.023588   0.099461   0.595415   0.360668   0.243312   0.160320
     45      -0.000129  -0.000062  -0.000029  -0.000096  -0.000001  -0.000149
     46       0.000185   0.000089   0.000041   0.000137   0.000001   0.000213
     47      -0.000054  -0.000026  -0.000013  -0.000041  -0.000002  -0.000062
     48       0.000071   0.000034   0.000016   0.000052   0.000001   0.000081
     49      -0.000043  -0.000020  -0.000009  -0.000032  -0.000000  -0.000049
     50       0.000124   0.000059   0.000028   0.000091   0.000001   0.000142
     51       0.000043   0.000020   0.000010   0.000032   0.000000   0.000049
     52      -0.000120  -0.000057  -0.000027  -0.000089  -0.000001  -0.000137
     53      -0.000077  -0.000037  -0.000017  -0.000056  -0.000000  -0.000087


-----------
IR SPECTRUM
-----------

 Mode   freq       eps      Int      T**2         TX        TY        TZ
       cm**-1   L/(mol*cm) km/mol    a.u.
----------------------------------------------------------------------------
  9:      4.05   0.000000    0.00  0.000000  ( 0.000000  0.000000  0.000000)
 10:      6.83   0.000133    0.67  0.006099  (-0.071498  0.031277  0.003044)
 11:     10.11   0.000102    0.52  0.003157  ( 0.045879  0.026441  0.018781)
 12:     13.84   0.000295    1.49  0.006651  ( 0.069339  0.041086 -0.012444)
 13:    184.98   0.000356    1.80  0.000601  ( 0.021499  0.011699  0.001412)
 14:    347.62   0.002687   13.58  0.002412  (-0.005856 -0.011222 -0.047455)
 15:    385.27   0.000008    0.04  0.000006  ( 0.000279  0.001699  0.001804)
 16:    449.09   0.005977   30.21  0.004153  ( 0.028965  0.015408  0.055471)
 17:    519.90   1.173442  5930.10  0.704340  (-0.144896 -0.079521 -0.822813)
 18:    562.74   3.619668  18292.32  2.007267  ( 0.240935  0.143408  1.388759)
 19:    567.30   3.323015  16793.16  1.827939  ( 0.232193  0.131709  1.325398)
 20:    646.86   0.005645   28.53  0.002723  ( 0.045195  0.023165 -0.011999)
 21:    753.79   0.008892   44.94  0.003681  (-0.053040 -0.024249  0.016729)
 22:    796.24   0.021162  106.95  0.008294  (-0.011958 -0.000405 -0.090282)
 23:    827.91   0.000019    0.10  0.000007  ( 0.001241  0.000877 -0.002197)
 24:    929.30   0.006635   33.53  0.002228  ( 0.004027  0.004053  0.046854)
 25:    990.87   0.003465   17.51  0.001091  ( 0.005241  0.004127  0.032353)
 26:    993.12   0.052636  266.00  0.016540  ( 0.021318  0.015557  0.125869)
 27:   1008.67   0.002714   13.71  0.000840  (-0.009785 -0.005701 -0.026670)
 28:   1016.41   0.090185  455.76  0.027689  (-0.033533 -0.015351 -0.162262)
 29:   1030.60   0.000677    3.42  0.000205  ( 0.007454  0.010578  0.006129)
 30:   1035.21   0.032450  163.99  0.009782  ( 0.030732  0.018441  0.092182)
 31:   1107.18   0.002847   14.39  0.000802  (-0.005200  0.020285  0.019077)
 32:   1171.42   0.007269   36.73  0.001936  ( 0.006929  0.005184  0.043145)
 33:   1211.76   0.492339  2488.08  0.126792  ( 0.062007  0.034216  0.348965)
 34:   1246.35   0.318294  1608.53  0.079695  (-0.047432 -0.033315 -0.276289)
 35:   1324.43   1.058942  5351.46  0.249508  (-0.083881 -0.053457 -0.489504)
 36:   1331.28   6.354535  32113.21  1.489559  ( 0.219676  0.102606  1.196149)
 37:   1371.04   0.001995   10.08  0.000454  ( 0.009290 -0.013144  0.013965)
 38:   1394.17   0.005807   29.35  0.001300  (-0.003481 -0.020485 -0.029464)
 39:   1426.02   0.000205    1.03  0.000045  (-0.000222  0.006336 -0.002143)
 40:   1459.16   0.002494   12.60  0.000533  ( 0.020775 -0.005878  0.008198)
 41:   1480.96   0.020237  102.27  0.004264  ( 0.013959  0.024972  0.058701)
 42:   1506.38   0.033496  169.28  0.006939  ( 0.002099  0.023685  0.079836)
 43:   1521.64   0.002038   10.30  0.000418  ( 0.008661 -0.018332  0.002609)
 44:   1656.48   0.747227  3776.18  0.140770  ( 0.065056  0.035769  0.367775)
 45:   2055.06   0.072415  365.96  0.010996  (-0.013381 -0.037745 -0.096916)
 46:   2999.10   0.110196  556.89  0.011466  (-0.016009 -0.012234 -0.105168)
 47:   3062.01   0.000786    3.97  0.000080  (-0.003791  0.000962  0.008052)
 48:   3125.37   0.024958  126.13  0.002492  (-0.009670  0.000504 -0.048972)
 49:   3181.50   0.005473   27.66  0.000537  (-0.002332 -0.004954 -0.022513)
 50:   3184.78   0.001575    7.96  0.000154  (-0.002600  0.000251 -0.012147)
 51:   3192.94   0.012103   61.16  0.001183  (-0.004923 -0.004610 -0.033726)
 52:   3201.64   0.000462    2.33  0.000045  (-0.003049  0.005035 -0.003219)
 53:   3208.98   0.017265   87.25  0.001679  (-0.008420 -0.001896 -0.040056)

* The epsilon (eps) is given for a Dirac delta lineshape.
** The dipole moment derivative (T) already includes vibrational overlap.

The first frequency considered to be a vibration is 9
The total number of vibrations considered is 45


--------------------------
THERMOCHEMISTRY AT 298.15K
--------------------------

Temperature         ... 298.15 K
Pressure            ... 1.00 atm
Total Mass          ... 138.15 AMU

Throughout the following assumptions are being made:
  (1) The electronic state is orbitally nondegenerate
  (2) There are no thermally accessible electronically excited states
  (3) Hindered rotations indicated by low frequency modes are not
      treated as such but are treated as vibrations and this may
      cause some error
  (4) All equations used are the standard statistical mechanics
      equations for an ideal gas
  (5) All vibrations are strictly harmonic

freq.       4.05  E(vib)   ...       0.59 
freq.       6.83  E(vib)   ...       0.58 
freq.      10.11  E(vib)   ...       0.58 
freq.      13.84  E(vib)   ...       0.57 
freq.     184.98  E(vib)   ...       0.37 
freq.     347.62  E(vib)   ...       0.23 
freq.     385.27  E(vib)   ...       0.20 
freq.     449.09  E(vib)   ...       0.17 
freq.     519.90  E(vib)   ...       0.13 
freq.     562.74  E(vib)   ...       0.11 
freq.     567.30  E(vib)   ...       0.11 
freq.     646.86  E(vib)   ...       0.09 
freq.     753.79  E(vib)   ...       0.06 
freq.     796.24  E(vib)   ...       0.05 
freq.     827.91  E(vib)   ...       0.04 
freq.     929.30  E(vib)   ...       0.03 
freq.     990.87  E(vib)   ...       0.02 
freq.     993.12  E(vib)   ...       0.02 
freq.    1008.67  E(vib)   ...       0.02 
freq.    1016.41  E(vib)   ...       0.02 
freq.    1030.60  E(vib)   ...       0.02 
freq.    1035.21  E(vib)   ...       0.02 
freq.    1107.18  E(vib)   ...       0.02 
freq.    1171.42  E(vib)   ...       0.01 
freq.    1211.76  E(vib)   ...       0.01 
freq.    1246.35  E(vib)   ...       0.01 
freq.    1324.43  E(vib)   ...       0.01 
freq.    1331.28  E(vib)   ...       0.01 
freq.    1371.04  E(vib)   ...       0.01 
freq.    1394.17  E(vib)   ...       0.00 
freq.    1426.02  E(vib)   ...       0.00 
freq.    1459.16  E(vib)   ...       0.00 
freq.    1480.96  E(vib)   ...       0.00 
freq.    1506.38  E(vib)   ...       0.00 
freq.    1521.64  E(vib)   ...       0.00 
freq.    1656.48  E(vib)   ...       0.00 
freq.    2055.06  E(vib)   ...       0.00 
freq.    2999.10  E(vib)   ...       0.00 
freq.    3062.01  E(vib)   ...       0.00 
freq.    3125.37  E(vib)   ...       0.00 
freq.    3181.50  E(vib)   ...       0.00 
freq.    3184.78  E(vib)   ...       0.00 
freq.    3192.94  E(vib)   ...       0.00 
freq.    3201.64  E(vib)   ...       0.00 
freq.    3208.98  E(vib)   ...       0.00 

------------
INNER ENERGY
------------

The inner energy is: U= E(el) + E(ZPE) + E(vib) + E(rot) + E(trans)
    E(el)   - is the total energy from the electronic structure calculation
              = E(kin-el) + E(nuc-el) + E(el-el) + E(nuc-nuc)
    E(ZPE)  - the the zero temperature vibrational energy from the frequency calculation
    E(vib)  - the the finite temperature correction to E(ZPE) due to population
              of excited vibrational states
    E(rot)  - is the rotational thermal energy
    E(trans)- is the translational thermal energy

Summary of contributions to the inner energy U:
Electronic energy                ...   -476.26873883 Eh
Zero point energy                ...      0.13555178 Eh      85.06 kcal/mol
Thermal vibrational correction   ...      0.00658320 Eh       4.13 kcal/mol
Thermal rotational correction    ...      0.00141627 Eh       0.89 kcal/mol
Thermal translational correction ...      0.00141627 Eh       0.89 kcal/mol
-----------------------------------------------------------------------
Total thermal energy                   -476.12377131 Eh


Summary of corrections to the electronic energy:
(perhaps to be used in another calculation)
Total thermal correction                  0.00941574 Eh       5.91 kcal/mol
Non-thermal (ZPE) correction              0.13555178 Eh      85.06 kcal/mol
-----------------------------------------------------------------------
Total correction                          0.14496753 Eh      90.97 kcal/mol


--------
ENTHALPY
--------

The enthalpy is H = U + kB*T
                kB is Boltzmann's constant
Total free energy                 ...   -476.12377131 Eh 
Thermal Enthalpy correction       ...      0.00094421 Eh       0.59 kcal/mol
-----------------------------------------------------------------------
Total Enthalpy                    ...   -476.12282710 Eh


Note: Only C1 symmetry has been detected, increase convergence thresholds 
      if your molecule has a higher symmetry. Symmetry factor of 1.0 is   
      used for the rotational entropy correction. 
 

Note: Rotational entropy computed according to Herzberg 
Infrared and Raman Spectra, Chapter V,1, Van Nostrand Reinhold, 1945 
Point Group:  C1, Symmetry Number:   1  
Rotational constants in cm-1:     0.153835     0.000575     0.000573 

Vibrational entropy computed according to the QRRHO of S. Grimme
Chem.Eur.J. 2012 18 9955


-------
ENTROPY
-------

The entropy contributions are T*S = T*(S(el)+S(vib)+S(rot)+S(trans))
     S(el)   - electronic entropy
     S(vib)  - vibrational entropy
     S(rot)  - rotational entropy
     S(trans)- translational entropy
The entropies will be listed as multiplied by the temperature to get
units of energy

Electronic entropy                ...      0.00000000 Eh      0.00 kcal/mol
Vibrational entropy               ...      0.01446972 Eh      9.08 kcal/mol
Rotational entropy                ...      0.01744076 Eh     10.94 kcal/mol
Translational entropy             ...      0.01932890 Eh     12.13 kcal/mol
-----------------------------------------------------------------------
Final entropy term                ...      0.05123937 Eh     32.15 kcal/mol

In case the symmetry of your molecule has not been determined correctly
or in case you have a reason to use a different symmetry number we print 
out the resulting rotational entropy values for sn=1,12 :
 --------------------------------------------------------
|  sn= 1 | S(rot)=       0.01744076 Eh     10.94 kcal/mol|
|  sn= 2 | S(rot)=       0.01678630 Eh     10.53 kcal/mol|
|  sn= 3 | S(rot)=       0.01640347 Eh     10.29 kcal/mol|
|  sn= 4 | S(rot)=       0.01613184 Eh     10.12 kcal/mol|
|  sn= 5 | S(rot)=       0.01592116 Eh      9.99 kcal/mol|
|  sn= 6 | S(rot)=       0.01574901 Eh      9.88 kcal/mol|
|  sn= 7 | S(rot)=       0.01560346 Eh      9.79 kcal/mol|
|  sn= 8 | S(rot)=       0.01547739 Eh      9.71 kcal/mol|
|  sn= 9 | S(rot)=       0.01536618 Eh      9.64 kcal/mol|
|  sn=10 | S(rot)=       0.01526670 Eh      9.58 kcal/mol|
|  sn=11 | S(rot)=       0.01517671 Eh      9.52 kcal/mol|
|  sn=12 | S(rot)=       0.01509455 Eh      9.47 kcal/mol|
 --------------------------------------------------------


-------------------
GIBBS FREE ENERGY
-------------------

The Gibbs free energy is G = H - T*S

Total enthalpy                    ...   -476.12282710 Eh 
Total entropy correction          ...     -0.05123937 Eh    -32.15 kcal/mol
-----------------------------------------------------------------------
Final Gibbs free energy         ...   -476.17406647 Eh

For completeness - the Gibbs free energy minus the electronic energy
G-E(el)                           ...      0.09467236 Eh     59.41 kcal/mol


Timings for individual modules:

Sum of individual times         ...    67316.620 sec (=1121.944 min)
GTO integral calculation        ...       35.285 sec (=   0.588 min)   0.1 %
SCF iterations                  ...    60295.514 sec (=1004.925 min)  89.6 %
SCF Gradient evaluation         ...     2775.276 sec (=  46.255 min)   4.1 %
Geometry relaxation             ...        5.166 sec (=   0.086 min)   0.0 %
Analytical frequency calculation...     4205.379 sec (=  70.090 min)   6.2 %
                             ****ORCA TERMINATED NORMALLY****
TOTAL RUN TIME: 0 days 18 hours 42 minutes 14 seconds 547 msec
