
                                 *****************
                                 * O   R   C   A *
                                 *****************

                                            #,                                       
                                            ###                                      
                                            ####                                     
                                            #####                                    
                                            ######                                   
                                           ########,                                 
                                     ,,################,,,,,                         
                               ,,#################################,,                 
                          ,,##########################################,,             
                       ,#########################################, ''#####,          
                    ,#############################################,,   '####,        
                  ,##################################################,,,,####,       
                ,###########''''           ''''###############################       
              ,#####''   ,,,,##########,,,,          '''####'''          '####       
            ,##' ,,,,###########################,,,                        '##       
           ' ,,###''''                  '''############,,,                           
         ,,##''                                '''############,,,,        ,,,,,,###''
      ,#''                                            '''#######################'''  
     '                                                          ''''####''''         
             ,#######,   #######,   ,#######,      ##                                
            ,#'     '#,  ##    ##  ,#'     '#,    #''#        ######   ,####,        
            ##       ##  ##   ,#'  ##            #'  '#       #        #'  '#        
            ##       ##  #######   ##           ,######,      #####,   #    #        
            '#,     ,#'  ##    ##  '#,     ,#' ,#      #,         ##   #,  ,#        
             '#######'   ##     ##  '#######'  #'      '#     #####' # '####'        



                  #######################################################
                  #                        -***-                        #
                  #          Department of theory and spectroscopy      #
                  #    Directorship and core code : Frank Neese         #
                  #        Max Planck Institute fuer Kohlenforschung    #
                  #                Kaiser Wilhelm Platz 1               #
                  #                 D-45470 Muelheim/Ruhr               #
                  #                      Germany                        #
                  #                                                     #
                  #                  All rights reserved                #
                  #                        -***-                        #
                  #######################################################



                         Program Version 5.0.4 -  RELEASE  -

 With contributions from (in alphabetic order):
   Daniel Aravena         : Magnetic Suceptibility
   Michael Atanasov       : Ab Initio Ligand Field Theory (pilot matlab implementation)
   Alexander A. Auer      : GIAO ZORA, VPT2 properties, NMR spectrum
   Ute Becker             : Parallelization
   Giovanni Bistoni       : ED, misc. LED, open-shell LED, HFLD
   Martin Brehm           : Molecular dynamics
   Dmytro Bykov           : SCF Hessian
   Vijay G. Chilkuri      : MRCI spin determinant printing, contributions to CSF-ICE
   Dipayan Datta          : RHF DLPNO-CCSD density
   Achintya Kumar Dutta   : EOM-CC, STEOM-CC
   Dmitry Ganyushin       : Spin-Orbit,Spin-Spin,Magnetic field MRCI
   Miquel Garcia          : C-PCM and meta-GGA Hessian, CC/C-PCM, Gaussian charge scheme
   Yang Guo               : DLPNO-NEVPT2, F12-NEVPT2, CIM, IAO-localization
   Andreas Hansen         : Spin unrestricted coupled pair/coupled cluster methods
   Benjamin Helmich-Paris : MC-RPA, TRAH-SCF, COSX integrals
   Lee Huntington         : MR-EOM, pCC
   Robert Izsak           : Overlap fitted RIJCOSX, COSX-SCS-MP3, EOM
   Marcus Kettner         : VPT2
   Christian Kollmar      : KDIIS, OOCD, Brueckner-CCSD(T), CCSD density, CASPT2, CASPT2-K
   Simone Kossmann        : Meta GGA functionals, TD-DFT gradient, OOMP2, MP2 Hessian
   Martin Krupicka        : Initial AUTO-CI
   Lucas Lang             : DCDCAS
   Marvin Lechner         : AUTO-CI (C++ implementation), FIC-MRCC
   Dagmar Lenk            : GEPOL surface, SMD
   Dimitrios Liakos       : Extrapolation schemes; Compound Job, initial MDCI parallelization
   Dimitrios Manganas     : Further ROCIS development; embedding schemes
   Dimitrios Pantazis     : SARC Basis sets
   Anastasios Papadopoulos: AUTO-CI, single reference methods and gradients
   Taras Petrenko         : DFT Hessian,TD-DFT gradient, ASA, ECA, R-Raman, ABS, FL, XAS/XES, NRVS
   Peter Pinski           : DLPNO-MP2, DLPNO-MP2 Gradient
   Christoph Reimann      : Effective Core Potentials
   Marius Retegan         : Local ZFS, SOC
   Christoph Riplinger    : Optimizer, TS searches, QM/MM, DLPNO-CCSD(T), (RO)-DLPNO pert. Triples
   Tobias Risthaus        : Range-separated hybrids, TD-DFT gradient, RPA, STAB
   Michael Roemelt        : Original ROCIS implementation
   Masaaki Saitow         : Open-shell DLPNO-CCSD energy and density
   Barbara Sandhoefer     : DKH picture change effects
   Avijit Sen             : IP-ROCIS
   Kantharuban Sivalingam : CASSCF convergence, NEVPT2, FIC-MRCI
   Bernardo de Souza      : ESD, SOC TD-DFT
   Georgi Stoychev        : AutoAux, RI-MP2 NMR, DLPNO-MP2 response
   Willem Van den Heuvel  : Paramagnetic NMR
   Boris Wezisla          : Elementary symmetry handling
   Frank Wennmohs         : Technical directorship


 We gratefully acknowledge several colleagues who have allowed us to
 interface, adapt or use parts of their codes:
   Stefan Grimme, W. Hujo, H. Kruse, P. Pracht,  : VdW corrections, initial TS optimization,
                  C. Bannwarth, S. Ehlert          DFT functionals, gCP, sTDA/sTD-DF
   Ed Valeev, F. Pavosevic, A. Kumar             : LibInt (2-el integral package), F12 methods
   Garnet Chan, S. Sharma, J. Yang, R. Olivares  : DMRG
   Ulf Ekstrom                                   : XCFun DFT Library
   Mihaly Kallay                                 : mrcc  (arbitrary order and MRCC methods)
   Jiri Pittner, Ondrej Demel                    : Mk-CCSD
   Frank Weinhold                                : gennbo (NPA and NBO analysis)
   Christopher J. Cramer and Donald G. Truhlar   : smd solvation model
   Lars Goerigk                                  : TD-DFT with DH, B97 family of functionals
   V. Asgeirsson, H. Jonsson                     : NEB implementation
   FAccTs GmbH                                   : IRC, NEB, NEB-TS, DLPNO-Multilevel, CI-OPT
                                                   MM, QMMM, 2- and 3-layer-ONIOM, Crystal-QMMM,
                                                   LR-CPCM, SF, NACMEs, symmetry and pop. for TD-DFT,
                                                   nearIR, NL-DFT gradient (VV10), updates on ESD,
                                                   ML-optimized integration grids
   S Lehtola, MJT Oliveira, MAL Marques          : LibXC Library
   Liviu Ungur et al                             : ANISO software


 Your calculation uses the libint2 library for the computation of 2-el integrals
 For citations please refer to: http://libint.valeyev.net

 Your ORCA version has been built with support for libXC version: 5.1.0
 For citations please refer to: https://tddft.org/programs/libxc/

 This ORCA versions uses:
   CBLAS   interface :  Fast vector & matrix operations
   LAPACKE interface :  Fast linear algebra routines
   Shared memory     :  Shared parallel matrices


Your calculation utilizes the atom-pairwise dispersion correction
based on tight binding partial charges (D4)
Cite in your paper:
E.Caldeweyher, C.Bannwarth, S.Grimme, J.Chem.Phys., (2017), 147, 034112.
E.Caldeweyher, S.Ehlert, A.Hansen, H.Neugebauer, S.Grimme, J.Chem.Phys., (2018), in progress.
   

================================================================================

----- Orbital basis set information -----
Your calculation utilizes the basis: def2-TZVP
   F. Weigend and R. Ahlrichs, Phys. Chem. Chem. Phys. 7, 3297 (2005).

----- AuxJ basis set information -----
Your calculation utilizes the auxiliary basis: def2/J
   F. Weigend, Phys. Chem. Chem. Phys. 8, 1057 (2006).

================================================================================
                                        WARNINGS
                       Please study these warnings very carefully!
================================================================================


WARNING: Geometry Optimization
  ===> : Switching off AutoStart
         For restart on a previous wavefunction, please use MOREAD

INFO   : the flag for use of the SHARK integral package has been found!

================================================================================
                                       INPUT FILE
================================================================================
NAME = a_o.inp
|  1> !B3LYP DEF2-TZVP OPT FREQ D4 SOSCF SLOWCONV
|  2> 
|  3> * xyz 1 1
|  4>    C       -3.41158        0.75498       -0.04706
|  5>    C       -4.59891        0.02220       -0.03110
|  6>    C       -4.55882       -1.37093        0.00154
|  7>    C       -3.33276       -2.03370        0.01801
|  8>    C       -2.14610       -1.30273        0.00151
|  9>    C       -2.18476        0.09043       -0.03114
| 10>    H       -5.55927        0.53271       -0.04449
| 11>    H       -5.48475       -1.94054        0.01383
| 12>    H       -3.30205       -3.12027        0.04327
| 13>    H       -1.18947       -1.81913        0.01378
| 14>    H       -1.25477        0.65437       -0.04454
| 15>    N       -3.45014        2.11918       -0.07872
| 16>    H       -4.33362        2.58636        0.09225
| 17>    H       -2.59440        2.63549        0.09211
| 18>    N        6.52996        3.95513       -1.45976
| 19>    O        5.72285        4.85519       -1.47124
| 20>    O        6.18980        2.96195       -0.86013
| 21> **                         ****END OF INPUT****
================================================================================

                       *****************************
                       * Geometry Optimization Run *
                       *****************************

Geometry optimization settings:
Update method            Update   .... BFGS
Choice of coordinates    CoordSys .... Z-matrix Internals
Initial Hessian          InHess   .... Almoef's Model

Convergence Tolerances:
Energy Change            TolE     ....  5.0000e-06 Eh
Max. Gradient            TolMAXG  ....  3.0000e-04 Eh/bohr
RMS Gradient             TolRMSG  ....  1.0000e-04 Eh/bohr
Max. Displacement        TolMAXD  ....  4.0000e-03 bohr
RMS Displacement         TolRMSD  ....  2.0000e-03 bohr
Strict Convergence                ....  False
------------------------------------------------------------------------------
                        ORCA OPTIMIZATION COORDINATE SETUP
------------------------------------------------------------------------------

The optimization will be done in new redundant internal coordinates
Making redundant internal coordinates   ...  (new redundants) done
Evaluating the initial hessian          ...  (Almloef) done
Evaluating the coordinates              ...  done
Calculating the B-matrix                .... done
Calculating the G-matrix                .... done
Diagonalizing the G-matrix              .... done
The first mode is                       ....   40
The number of degrees of freedom        ....   45

    -----------------------------------------------------------------
                    Redundant Internal Coordinates


    -----------------------------------------------------------------
         Definition                    Initial Value    Approx d2E/dq
    -----------------------------------------------------------------
      1. B(C   1,C   0)                  1.3953         0.612659   
      2. B(C   2,C   1)                  1.3941         0.615482   
      3. B(C   3,C   2)                  1.3938         0.616070   
      4. B(C   4,C   3)                  1.3938         0.616076   
      5. B(C   5,C   4)                  1.3941         0.615505   
      6. B(C   5,C   0)                  1.3953         0.612664   
      7. B(H   6,C   1)                  1.0877         0.363156   
      8. B(H   7,C   2)                  1.0872         0.363854   
      9. B(H   8,C   3)                  1.0873         0.363693   
     10. B(H   9,C   4)                  1.0872         0.363850   
     11. B(H  10,C   5)                  1.0877         0.363157   
     12. B(N  11,C   0)                  1.3651         0.613172   
     13. B(H  12,N  11)                  1.0139         0.426528   
     14. B(H  13,N  11)                  1.0139         0.426509   
     15. B(N  14,H  10)                  8.5732         0.000000   
     16. B(O  15,N  14)                  1.2090         0.974532   
     17. B(O  15,H  13)                  8.7492         0.000000   
     18. B(O  15,H  10)                  8.2686         0.000000   
     19. B(O  16,H  13)                  8.8417         0.000000   
     20. B(O  16,H  10)                  7.8366         0.000000   
     21. B(O  16,H   9)                  8.8361         0.000000   
     22. B(O  16,C   5)                  8.8919         0.000000   
     23. B(O  16,N  14)                  1.2090         0.974524   
     24. A(C   1,C   0,N  11)          120.0689         0.429451   
     25. A(C   5,C   0,N  11)          120.0693         0.429452   
     26. A(C   1,C   0,C   5)          119.8619         0.432211   
     27. A(C   0,C   1,H   6)          120.3101         0.352702   
     28. A(C   2,C   1,H   6)          119.6502         0.352977   
     29. A(C   0,C   1,C   2)          120.0396         0.432568   
     30. A(C   3,C   2,H   7)          119.9936         0.353149   
     31. A(C   1,C   2,H   7)          119.9568         0.353092   
     32. A(C   1,C   2,C   3)          120.0495         0.433000   
     33. A(C   4,C   3,H   8)          120.0206         0.353123   
     34. A(C   2,C   3,H   8)          120.0201         0.353122   
     35. A(C   2,C   3,C   4)          119.9592         0.433075   
     36. A(C   5,C   4,H   9)          119.9566         0.353093   
     37. A(C   3,C   4,C   5)          120.0500         0.433003   
     38. A(C   3,C   4,H   9)          119.9934         0.353149   
     39. A(C   0,C   5,H  10)          120.3099         0.352703   
     40. A(C   0,C   5,C   4)          120.0397         0.432571   
     41. A(H  10,C   5,O  16)           13.1339         0.089501   
     42. A(C   4,C   5,O  16)          107.3849         0.089652   
     43. A(C   0,C   5,O  16)          132.3150         0.089652   
     44. A(C   4,C   5,H  10)          119.6504         0.352979   
     45. A(H  12,N  11,H  13)          118.1882         0.301864   
     46. A(C   0,N  11,H  13)          118.7592         0.357116   
     47. A(C   0,N  11,H  12)          118.7614         0.357119   
     48. A(O  15,N  14,O  16)          115.3695         0.498554   
     49. A(C   5,O  16,N  14)          125.2059         0.089712   
     50. D(H   6,C   1,C   0,C   5)   -179.9299         0.025936   
     51. D(H   6,C   1,C   0,N  11)      0.0441         0.025936   
     52. D(C   2,C   1,C   0,N  11)   -179.9854         0.025936   
     53. D(C   2,C   1,C   0,C   5)      0.0406         0.025936   
     54. D(C   3,C   2,C   1,H   6)    179.9581         0.026190   
     55. D(C   3,C   2,C   1,C   0)     -0.0126         0.026190   
     56. D(H   7,C   2,C   1,C   0)   -179.9931         0.026190   
     57. D(H   7,C   2,C   1,H   6)     -0.0224         0.026190   
     58. D(H   8,C   3,C   2,H   7)     -0.0075         0.026243   
     59. D(H   8,C   3,C   2,C   1)   -179.9880         0.026243   
     60. D(C   4,C   3,C   2,H   7)    179.9655         0.026243   
     61. D(C   4,C   3,C   2,C   1)     -0.0150         0.026243   
     62. D(H   9,C   4,C   3,C   2)   -179.9657         0.026244   
     63. D(C   5,C   4,C   3,H   8)    179.9875         0.026244   
     64. D(C   5,C   4,C   3,C   2)      0.0145         0.026244   
     65. D(H   9,C   4,C   3,H   8)      0.0073         0.026244   
     66. D(O  16,C   5,C   4,H   9)      5.1587         0.028460   
     67. D(H  10,C   5,C   4,H   9)      0.0213         0.028460   
     68. D(H  10,C   5,C   4,C   3)   -179.9589         0.028460   
     69. D(C   0,C   5,C   4,H   9)    179.9938         0.028460   
     70. D(C   0,C   5,C   4,C   3)      0.0136         0.028460   
     71. D(O  16,C   5,C   0,N  11)     -6.6868         0.028181   
     72. D(O  16,C   5,C   0,C   1)    173.2872         0.028181   
     73. D(H  10,C   5,C   0,N  11)     -0.0428         0.028181   
     74. D(H  10,C   5,C   0,C   1)    179.9312         0.028181   
     75. D(O  16,C   5,C   4,C   3)   -174.8216         0.028460   
     76. D(C   4,C   5,C   0,N  11)    179.9849         0.028181   
     77. D(C   4,C   5,C   0,C   1)     -0.0411         0.028181   
     78. D(H  13,N  11,C   0,C   1)    168.1841         0.030393   
     79. D(H  12,N  11,C   0,C   5)   -168.1763         0.030393   
     80. D(H  12,N  11,C   0,C   1)     11.8497         0.030393   
     81. D(H  13,N  11,C   0,C   5)    -11.8419         0.030393   
     82. D(C   5,O  16,N  14,O  15)     30.7552         0.119757   
     83. D(N  14,O  16,C   5,H  10)    -53.2234         0.001500   
     84. D(N  14,O  16,C   5,C   4)    146.8042         0.001500   
     85. D(N  14,O  16,C   5,C   0)    -27.1463         0.001500   
    -----------------------------------------------------------------

Number of atoms                         .... 17
Number of degrees of freedom            .... 85

         *************************************************************
         *                GEOMETRY OPTIMIZATION CYCLE   1            *
         *************************************************************
---------------------------------
CARTESIAN COORDINATES (ANGSTROEM)
---------------------------------
  C     -3.411580    0.754980   -0.047060
  C     -4.598910    0.022200   -0.031100
  C     -4.558820   -1.370930    0.001540
  C     -3.332760   -2.033700    0.018010
  C     -2.146100   -1.302730    0.001510
  C     -2.184760    0.090430   -0.031140
  H     -5.559270    0.532710   -0.044490
  H     -5.484750   -1.940540    0.013830
  H     -3.302050   -3.120270    0.043270
  H     -1.189470   -1.819130    0.013780
  H     -1.254770    0.654370   -0.044540
  N     -3.450140    2.119180   -0.078720
  H     -4.333620    2.586360    0.092250
  H     -2.594400    2.635490    0.092110
  N      6.529960    3.955130   -1.459760
  O      5.722850    4.855190   -1.471240
  O      6.189800    2.961950   -0.860130

----------------------------
CARTESIAN COORDINATES (A.U.)
----------------------------
  NO LB      ZA    FRAG     MASS         X           Y           Z
   0 C     6.0000    0    12.011   -6.446952    1.426705   -0.088931
   1 C     6.0000    0    12.011   -8.690680    0.041952   -0.058770
   2 C     6.0000    0    12.011   -8.614921   -2.590682    0.002910
   3 C     6.0000    0    12.011   -6.298004   -3.843136    0.034034
   4 C     6.0000    0    12.011   -4.055541   -2.461803    0.002853
   5 C     6.0000    0    12.011   -4.128598    0.170888   -0.058846
   6 H     1.0000    0     1.008  -10.505498    1.006676   -0.084074
   7 H     1.0000    0     1.008  -10.364675   -3.667089    0.026135
   8 H     1.0000    0     1.008   -6.239970   -5.896456    0.081768
   9 H     1.0000    0     1.008   -2.247773   -3.437658    0.026040
  10 H     1.0000    0     1.008   -2.371172    1.236580   -0.084168
  11 N     7.0000    0    14.007   -6.519820    4.004670   -0.148759
  12 H     1.0000    0     1.008   -8.189355    4.887512    0.174327
  13 H     1.0000    0     1.008   -4.902705    4.980354    0.174063
  14 N     7.0000    0    14.007   12.339836    7.474113   -2.758547
  15 O     8.0000    0    15.999   10.814619    9.174979   -2.780241
  16 O     8.0000    0    15.999   11.697027    5.597274   -1.625410

--------------------------------
INTERNAL COORDINATES (ANGSTROEM)
--------------------------------
 C      0   0   0     0.000000000000     0.00000000     0.00000000
 C      1   0   0     1.395340022683     0.00000000     0.00000000
 C      2   1   0     1.394088868975   120.03962000     0.00000000
 C      3   2   1     1.393828704468   120.04953713     0.00000000
 C      4   3   2     1.393826153615   119.95921681     0.00000000
 C      5   4   3     1.394078693511   120.05002770     0.00000000
 H      2   1   3     1.087699904293   120.31013525   180.02948761
 H      3   2   1     1.087176600696   119.95683749   180.00688140
 H      4   3   2     1.087297354269   120.02013585   180.01199171
 H      5   4   3     1.087180053993   119.99341616   180.03428239
 H      6   5   4     1.087699077732   119.65041710   180.04107809
 N      1   2   3     1.365112035402   120.06888563   180.01461791
 H     12   1   2     1.013915580164   118.76135405    11.84968876
 H     12   1   2     1.013927932646   118.75923584   168.18409492
 N     11   6   5     8.573207416067   167.96520585    48.36294805
 O     15  11   6     1.208993939646    71.45828264   129.71626993
 O     15  11   6     1.208996060746    49.18376220   282.19109115

---------------------------
INTERNAL COORDINATES (A.U.)
---------------------------
 C      0   0   0     0.000000000000     0.00000000     0.00000000
 C      1   0   0     2.636810506570     0.00000000     0.00000000
 C      2   1   0     2.634446168711   120.03962000     0.00000000
 C      3   2   1     2.633954529043   120.04953713     0.00000000
 C      4   3   2     2.633949708628   119.95921681     0.00000000
 C      5   4   3     2.634426939870   120.05002770     0.00000000
 H      2   1   3     2.055454935007   120.31013525   180.02948761
 H      3   2   1     2.054466034522   119.95683749   180.00688140
 H      4   3   2     2.054694225705   120.02013585   180.01199171
 H      5   4   3     2.054472560308   119.99341616   180.03428239
 H      6   5   4     2.055453373033   119.65041710   180.04107809
 N      1   2   3     2.579687889030   120.06888563   180.01461791
 H     12   1   2     1.916022769426   118.76135405    11.84968876
 H     12   1   2     1.916046112234   118.75923584   168.18409492
 N     11   6   5    16.201014105669   167.96520585    48.36294805
 O     15  11   6     2.284667443501    71.45828264   129.71626993
 O     15  11   6     2.284671451800    49.18376220   282.19109115

---------------------
BASIS SET INFORMATION
---------------------
There are 4 groups of distinct atoms

 Group   1 Type C   : 11s6p2d1f contracted to 5s3p2d1f pattern {62111/411/11/1}
 Group   2 Type H   : 5s1p contracted to 3s1p pattern {311/1}
 Group   3 Type N   : 11s6p2d1f contracted to 5s3p2d1f pattern {62111/411/11/1}
 Group   4 Type O   : 11s6p2d1f contracted to 5s3p2d1f pattern {62111/411/11/1}

Atom   0C    basis set group =>   1
Atom   1C    basis set group =>   1
Atom   2C    basis set group =>   1
Atom   3C    basis set group =>   1
Atom   4C    basis set group =>   1
Atom   5C    basis set group =>   1
Atom   6H    basis set group =>   2
Atom   7H    basis set group =>   2
Atom   8H    basis set group =>   2
Atom   9H    basis set group =>   2
Atom  10H    basis set group =>   2
Atom  11N    basis set group =>   3
Atom  12H    basis set group =>   2
Atom  13H    basis set group =>   2
Atom  14N    basis set group =>   3
Atom  15O    basis set group =>   4
Atom  16O    basis set group =>   4
---------------------------------
AUXILIARY/J BASIS SET INFORMATION
---------------------------------
There are 4 groups of distinct atoms

 Group   1 Type C   : 12s5p4d2f1g contracted to 6s4p3d1f1g pattern {711111/2111/211/2/1}
 Group   2 Type H   : 5s2p1d contracted to 3s1p1d pattern {311/2/1}
 Group   3 Type N   : 12s5p4d2f1g contracted to 6s4p3d1f1g pattern {711111/2111/211/2/1}
 Group   4 Type O   : 12s5p4d2f1g contracted to 6s4p3d1f1g pattern {711111/2111/211/2/1}

Atom   0C    basis set group =>   1
Atom   1C    basis set group =>   1
Atom   2C    basis set group =>   1
Atom   3C    basis set group =>   1
Atom   4C    basis set group =>   1
Atom   5C    basis set group =>   1
Atom   6H    basis set group =>   2
Atom   7H    basis set group =>   2
Atom   8H    basis set group =>   2
Atom   9H    basis set group =>   2
Atom  10H    basis set group =>   2
Atom  11N    basis set group =>   3
Atom  12H    basis set group =>   2
Atom  13H    basis set group =>   2
Atom  14N    basis set group =>   3
Atom  15O    basis set group =>   4
Atom  16O    basis set group =>   4
------------------------------------------------------------------------------
                           ORCA GTO INTEGRAL CALCULATION
                           -- RI-GTO INTEGRALS CHOSEN --
------------------------------------------------------------------------------
------------------------------------------------------------------------------
                   ___                                                        
                  /   \      - P O W E R E D   B Y -                         
                 /     \                                                     
                 |  |  |   _    _      __       _____    __    __             
                 |  |  |  | |  | |    /  \     |  _  \  |  |  /  |          
                  \  \/   | |  | |   /    \    | | | |  |  | /  /          
                 / \  \   | |__| |  /  /\  \   | |_| |  |  |/  /          
                |  |  |   |  __  | /  /__\  \  |    /   |      \           
                |  |  |   | |  | | |   __   |  |    \   |  |\   \          
                \     /   | |  | | |  |  |  |  | |\  \  |  | \   \       
                 \___/    |_|  |_| |__|  |__|  |_| \__\ |__|  \__/        
                                                                              
                      - O R C A' S   B I G   F R I E N D -                    
                                      &                                       
                       - I N T E G R A L  F E E D E R -                       
                                                                              
 v1 FN, 2020, v2 2021                                                         
------------------------------------------------------------------------------


Reading SHARK input file a_o.SHARKINP.tmp ... ok
----------------------
SHARK INTEGRAL PACKAGE
----------------------

Number of atoms                             ...     17
Number of basis functions                   ...    352
Number of shells                            ...    138
Maximum angular momentum                    ...      3
Integral batch strategy                     ... SHARK/LIBINT Hybrid
RI-J (if used) integral strategy            ... SPLIT-RIJ (Revised 2003 algorithm where possible)
Printlevel                                  ...      1
Contraction scheme used                     ... SEGMENTED contraction
Coulomb Range Separation                    ... NOT USED
Exchange Range Separation                   ... NOT USED
Finite Nucleus Model                        ... NOT USED
Auxiliary Coulomb fitting basis             ... AVAILABLE
   # of basis functions in Aux-J            ...    567
   # of shells in Aux-J                     ...    185
   Maximum angular momentum in Aux-J        ...      4
Auxiliary J/K fitting basis                 ... NOT available
Auxiliary Correlation fitting basis         ... NOT available
Auxiliary 'external' fitting basis          ... NOT available
Integral threshold                          ...     2.500000e-11
Primitive cut-off                           ...     2.500000e-12
Primitive pair pre-selection threshold      ...     2.500000e-12

Calculating pre-screening integrals         ... done (  0.1 sec) Dimension = 138
Organizing shell pair data                  ... done (  0.1 sec)
Shell pair information
Total number of shell pairs                 ...      9591
Shell pairs after pre-screening             ...      5958
Total number of primitive shell pairs       ...     29644
Primitive shell pairs kept                  ...     14040
          la=0 lb=0:   1593 shell pairs
          la=1 lb=0:   1681 shell pairs
          la=1 lb=1:    460 shell pairs
          la=2 lb=0:    858 shell pairs
          la=2 lb=1:    442 shell pairs
          la=2 lb=2:    125 shell pairs
          la=3 lb=0:    427 shell pairs
          la=3 lb=1:    222 shell pairs
          la=3 lb=2:    116 shell pairs
          la=3 lb=3:     34 shell pairs

Calculating one electron integrals          ... done (  0.1 sec)
Calculating RI/J V-Matrix + Cholesky decomp.... done (  0.0 sec)
Calculating Nuclear repulsion               ... done (  0.0 sec) ENN=    396.237561876285 Eh

SHARK setup successfully completed in   0.7 seconds

Maximum memory used throughout the entire GTOINT-calculation: 90.3 MB
-------------------------------------------------------------------------------
                                 ORCA SCF
-------------------------------------------------------------------------------

------------
SCF SETTINGS
------------
Hamiltonian:
 Density Functional     Method          .... DFT(GTOs)
 Exchange Functional    Exchange        .... B88
   X-Alpha parameter    XAlpha          ....  0.666667
   Becke's b parameter  XBeta           ....  0.004200
 Correlation Functional Correlation     .... LYP
 LDA part of GGA corr.  LDAOpt          .... VWN-5
 Gradients option       PostSCFGGA      .... off
 Hybrid DFT is turned on
   Fraction HF Exchange ScalHFX         ....  0.200000
   Scaling of DF-GGA-X  ScalDFX         ....  0.720000
   Scaling of DF-GGA-C  ScalDFC         ....  0.810000
   Scaling of DF-LDA-C  ScalLDAC        ....  1.000000
   Perturbative correction              ....  0.000000
   Density functional embedding theory  .... OFF
   NL short-range parameter             ....  4.800000
 RI-approximation to the Coulomb term is turned on
   Number of AuxJ basis functions       .... 567
   RIJ-COSX (HFX calculated with COS-X)).... on


General Settings:
 Integral files         IntName         .... a_o
 Hartree-Fock type      HFTyp           .... RHF
 Total Charge           Charge          ....    1
 Multiplicity           Mult            ....    1
 Number of Electrons    NEL             ....   72
 Basis Dimension        Dim             ....  352
 Nuclear Repulsion      ENuc            ....    396.2375618763 Eh

Convergence Acceleration:
 DIIS                   CNVDIIS         .... on
   Start iteration      DIISMaxIt       ....     0
   Startup error        DIISStart       ....  0.200000
   # of expansion vecs  DIISMaxEq       ....     5
   Bias factor          DIISBfac        ....   1.050
   Max. coefficient     DIISMaxC        ....  10.000
 Trust-Rad. Augm. Hess. CNVTRAH         .... auto
   Auto Start mean grad. ratio tolernc. ....  1.125000
   Auto Start start iteration           ....    20
   Auto Start num. interpolation iter.  ....    10
   Max. Number of Micro iterations      ....    16
   Max. Number of Macro iterations      .... Maxiter - #DIIS iter
   Number of Davidson start vectors     ....     2
   Converg. threshold I  (grad. norm)   ....   1.000e-05
   Converg. threshold II (energy diff.) ....   1.000e-08
   Grad. Scal. Fac. for Micro threshold ....   0.100
   Minimum threshold for Micro iter.    ....   0.010
   NR start threshold (gradient norm)   ....   0.001
   Initial trust radius                 ....   0.400
   Minimum AH scaling param. (alpha)    ....   1.000
   Maximum AH scaling param. (alpha)    .... 1000.000
   Orbital update algorithm             .... Taylor
   White noise on init. David. guess    .... on
   Maximum white noise                  ....   0.010
   Quad. conv. algorithm                .... NR
 SOSCF                  CNVSOSCF        .... on
   Start iteration      SOSCFMaxIt      ....   150
   Startup grad/error   SOSCFStart      ....  0.001000
 Level Shifting         CNVShift        .... on
   Level shift para.    LevelShift      ....    0.2500
   Turn off err/grad.   ShiftErr        ....    0.0000
 Zerner damping         CNVZerner       .... off
 Static damping         CNVDamp         .... on
   Fraction old density DampFac         ....    0.8500
   Max. Damping (<1)    DampMax         ....    0.9800
   Min. Damping (>=0)   DampMin         ....    0.0000
   Turn off err/grad.   DampErr         ....    0.0300
 Fernandez-Rico         CNVRico         .... off

SCF Procedure:
 Maximum # iterations   MaxIter         ....   125
 SCF integral mode      SCFMode         .... Direct
   Integral package                     .... SHARK and LIBINT hybrid scheme
 Reset frequency        DirectResetFreq ....    20
 Integral Threshold     Thresh          ....  2.500e-11 Eh
 Primitive CutOff       TCut            ....  2.500e-12 Eh

Convergence Tolerance:
 Convergence Check Mode ConvCheckMode   .... Total+1el-Energy
 Convergence forced     ConvForced      .... 0
 Energy Change          TolE            ....  1.000e-08 Eh
 1-El. energy change                    ....  1.000e-05 Eh
 Orbital Gradient       TolG            ....  1.000e-05
 Orbital Rotation angle TolX            ....  1.000e-05
 DIIS Error             TolErr          ....  5.000e-07


Diagonalization of the overlap matrix:
Smallest eigenvalue                        ... 9.765e-06
Time for diagonalization                   ...    0.024 sec
Threshold for overlap eigenvalues          ... 1.000e-08
Number of eigenvalues below threshold      ... 0
Time for construction of square roots      ...    0.015 sec
Total time needed                          ...    0.039 sec

Time for model grid setup =    1.320 sec

------------------------------
INITIAL GUESS: MODEL POTENTIAL
------------------------------
Loading Hartree-Fock densities                     ... done
Calculating cut-offs                               ... done
Initializing the effective Hamiltonian             ... done
Setting up the integral package (SHARK)            ... done
Starting the Coulomb interaction                   ... done (   5.2 sec)
Reading the grid                                   ... done
Mapping shells                                     ... done
Starting the XC term evaluation                    ... done (   2.4 sec)
  promolecular density results
     # of electrons  =     72.996064129
     EX              =    -62.423712512
     EC              =     -2.493967549
     EX+EC           =    -64.917680062
Transforming the Hamiltonian                       ... done (   0.0 sec)
Diagonalizing the Hamiltonian                      ... done (   0.1 sec)
Back transforming the eigenvectors                 ... done (   0.0 sec)
Now organizing SCF variables                       ... done
                      ------------------
                      INITIAL GUESS DONE (   9.1 sec)
                      ------------------
-------------------
DFT GRID GENERATION
-------------------

General Integration Accuracy     IntAcc      ... 4.388
Radial Grid Type                 RadialGrid  ... OptM3 with GC (2021)
Angular Grid (max. ang.)         AngularGrid ... 4 (Lebedev-302)
Angular grid pruning method      GridPruning ... 4 (adaptive)
Weight generation scheme         WeightScheme... Becke
Basis function cutoff            BFCut       ... 1.0000e-11
Integration weight cutoff        WCut        ... 1.0000e-14
Angular grids for H and He will be reduced by one unit
Partially contracted basis set               ... off
Rotationally invariant grid construction     ... off

Total number of grid points                  ...    83079
Total number of batches                      ...     1304
Average number of points per batch           ...       63
Average number of grid points per atom       ...     4887
Time for grid setup =    3.511 sec

--------------------
COSX GRID GENERATION
--------------------

GRIDX 1
-------
General Integration Accuracy     IntAcc      ... 3.816
Radial Grid Type                 RadialGrid  ... OptM3 with GC (2021)
Angular Grid (max. ang.)         AngularGrid ... 1 (Lebedev-50)
Angular grid pruning method      GridPruning ... 4 (adaptive)
Weight generation scheme         WeightScheme... Becke
Basis function cutoff            BFCut       ... 1.0000e-11
Integration weight cutoff        WCut        ... 1.0000e-14
Angular grids for H and He will be reduced by one unit
Partially contracted basis set               ... on
Rotationally invariant grid construction     ... off

Total number of grid points                  ...    10607
Total number of batches                      ...      172
Average number of points per batch           ...       61
Average number of grid points per atom       ...      624
UseSFitting                                  ... on

GRIDX 2
-------
General Integration Accuracy     IntAcc      ... 4.020
Radial Grid Type                 RadialGrid  ... OptM3 with GC (2021)
Angular Grid (max. ang.)         AngularGrid ... 2 (Lebedev-110)
Angular grid pruning method      GridPruning ... 4 (adaptive)
Weight generation scheme         WeightScheme... Becke
Basis function cutoff            BFCut       ... 1.0000e-11
Integration weight cutoff        WCut        ... 1.0000e-14
Angular grids for H and He will be reduced by one unit
Partially contracted basis set               ... on
Rotationally invariant grid construction     ... off

Total number of grid points                  ...    23608
Total number of batches                      ...      377
Average number of points per batch           ...       62
Average number of grid points per atom       ...     1389
UseSFitting                                  ... on

GRIDX 3
-------
General Integration Accuracy     IntAcc      ... 4.338
Radial Grid Type                 RadialGrid  ... OptM3 with GC (2021)
Angular Grid (max. ang.)         AngularGrid ... 3 (Lebedev-194)
Angular grid pruning method      GridPruning ... 4 (adaptive)
Weight generation scheme         WeightScheme... Becke
Basis function cutoff            BFCut       ... 1.0000e-11
Integration weight cutoff        WCut        ... 1.0000e-14
Angular grids for H and He will be reduced by one unit
Partially contracted basis set               ... on
Rotationally invariant grid construction     ... off

Total number of grid points                  ...    52100
Total number of batches                      ...      821
Average number of points per batch           ...       63
Average number of grid points per atom       ...     3065
UseSFitting                                  ... on

Time for X-Grid setup             =    5.220 sec

--------------
SCF ITERATIONS
--------------
ITER       Energy         Delta-E        Max-DP      RMS-DP      [F,P]     Damp
               ***  Starting incremental Fock matrix formation  ***
  0   -491.7265514301   0.000000000000 0.07621895  0.00089919  0.2655894 0.8500
  1   -491.9882044442  -0.261653014056 0.05055715  0.00077423  0.1643842 0.8500
                               ***Turning on DIIS***
  2   -491.9821833162   0.006021127927 0.04287351  0.00054506  0.1091570 0.8500
  3   -491.9993956010  -0.017212284722 0.01653971  0.00033792  0.0876797 0.8500
  4   -492.0659748083  -0.066579207377 0.01118585  0.00026970  0.0462117 0.8500
  5   -492.1045374198  -0.038562611487 0.01004356  0.00022624  0.0481347 0.8500
  6   -492.1262096907  -0.021672270903 0.00906445  0.00019136  0.0501487 0.8500
  7   -492.1372758058  -0.011066115091 0.01038750  0.00017032  0.0512061 0.8500
  8   -492.1425710377  -0.005295231886 0.00948042  0.00014618  0.0455012 0.8500
  9   -492.1440692490  -0.001498211327 0.00862941  0.00012926  0.0405275 0.8500
 10   -492.1435842452   0.000485003802 0.00840850  0.00012121  0.0378587 0.8500
 11   -492.1421779316   0.001406313672 0.02339236  0.00048622  0.0380965 0.8500
 12   -492.1965452487  -0.054367317148 0.15872112  0.00278877  0.0076440 0.0000
 13   -491.7882461770   0.408299071671 0.00352072  0.00002369  0.1777037 0.8500
 14   -491.7914791969  -0.003233019877 0.00457231  0.00003066  0.1765326 0.8500
 15   -491.7953981465  -0.003918949580 0.00465356  0.00003122  0.1750358 0.8500
 16   -491.7992519228  -0.003853776286 0.00423882  0.00002855  0.1735057 0.8500
 17   -491.8026834953  -0.003431572555 0.05428406  0.00111066  0.1721443 0.8500
 18   -492.0441244978  -0.241441002457 0.02648354  0.00051184  0.0573428 0.8500
 19   -492.0929605581  -0.048836060349 0.15381158  0.00279191  0.0242777 0.0000
               *** Restarting incremental Fock matrix formation ***
                                   *** Resetting DIIS ***

 WARNING: the maximum gradient error descreased on average only by a factor   0.9
          during the last 20 iterations

                      *** Initiating the TRAH-SCF procedure ***


TRAH GRIDX
----------

General Integration Accuracy     IntAcc      ... 3.067
Radial Grid Type                 RadialGrid  ... OptM3 with GC (2021)
Angular Grid (max. ang.)         AngularGrid ... 1 (Lebedev-50)
Angular grid pruning method      GridPruning ... 4 (adaptive)
Weight generation scheme         WeightScheme... Becke
Basis function cutoff            BFCut       ... 1.0000e-11
Integration weight cutoff        WCut        ... 1.0000e-14
Angular grids for H and He will be reduced by one unit
Partially contracted basis set               ... on
Rotationally invariant grid construction     ... off

Total number of grid points                  ...     5609
Total number of batches                      ...       97
Average number of points per batch           ...       57
Average number of grid points per atom       ...      330


TRAH GRID
---------

General Integration Accuracy     IntAcc      ... 3.467
Radial Grid Type                 RadialGrid  ... OptM3 with GC (2021)
Angular Grid (max. ang.)         AngularGrid ... 1 (Lebedev-50)
Angular grid pruning method      GridPruning ... 4 (adaptive)
Weight generation scheme         WeightScheme... Becke
Basis function cutoff            BFCut       ... 1.0000e-11
Integration weight cutoff        WCut        ... 1.0000e-14
Angular grids for H and He will be reduced by one unit
Partially contracted basis set               ... off
Rotationally invariant grid construction     ... off

Total number of grid points                  ...    12322
Total number of batches                      ...      201
Average number of points per batch           ...       61
Average number of grid points per atom       ...      725

 --------------------------------------------------------------------------------------------
   Iter.        energy            ||Error||_2        Shift      TRadius  Mac/Mic        Rej.
 --------------------------------------------------------------------------------------------
WARNING: 29 diagonal Hessian elements are negative!
    0       -491.999257994866     1.331625e+00                     0.400 (TRAH MAcro)   No
WARNING : negative HOMO - LUMO gap : -0.560120
    0     dE    -7.790254e-02     1.579080e+00    -1.5376e-01      0.115 (TRAH MIcro)
    0     dE    -1.145537e-01     2.626387e-01    -2.2045e-01      0.198 (TRAH MIcro)
    0     dE    -1.179104e-01     8.002461e-02    -2.2635e-01      0.205 (TRAH MIcro)
    0     dE    -1.181459e-01     5.581344e-02    -2.2675e-01      0.205 (TRAH MIcro)
    0     dE    -1.182826e-01     4.307070e-02    -2.2696e-01      0.206 (TRAH MIcro)
    0     dE    -9.889133e-02     3.557183e-01    -3.5065e+00      0.122 (TRAH MIcro)
    0     dE    -9.941115e-02     1.738768e-02    -3.5581e+00      0.119 (TRAH MIcro)
    0     dE    -9.942954e-02     3.466102e-03    -3.5585e+00      0.119 (TRAH MIcro)
WARNING: 22 diagonal Hessian elements are negative!
    1       -492.098349810878     4.179717e-01                     0.480 (TRAH MAcro)   No
WARNING : negative HOMO - LUMO gap : -0.424340
    1     dE    -1.271865e-02     2.621631e-01    -2.5344e-02      0.061 (TRAH MIcro)
    1     dE    -1.752839e-02     8.044722e-02    -3.4707e-02      0.100 (TRAH MIcro)
    1     dE    -1.795581e-02     3.454214e-02    -3.5528e-02      0.104 (TRAH MIcro)
    1     dE    -1.799490e-02     2.495075e-02    -3.5601e-02      0.105 (TRAH MIcro)
    1     dE    -1.803820e-02     2.722143e-02    -3.5678e-02      0.106 (TRAH MIcro)
    1     dE    -1.559660e-02     5.497022e-02    -1.8450e+00      0.063 (TRAH MIcro)
    1     dE    -1.566248e-02     8.950093e-03    -1.8614e+00      0.063 (TRAH MIcro)
WARNING: 21 diagonal Hessian elements are negative!
    2       -492.114009753361     1.169555e-01                     0.576 (TRAH MAcro)   No
WARNING : negative HOMO - LUMO gap : -0.374792
    2     dE    -1.581078e-03     1.008380e-01    -3.1598e-03      0.027 (TRAH MIcro)
    2     dE    -2.334739e-03     6.722616e-02    -4.6587e-03      0.048 (TRAH MIcro)
    2     dE    -6.873720e-03     1.344621e+00    -1.2363e-02      0.335 (TRAH MIcro)
    2     dE    -3.207426e-02     3.666754e-01    -1.2594e+00      0.218 (TRAH MIcro)
    2     dE    -2.422883e-01     2.729059e-01    -1.5223e+00      0.561 (TRAH MIcro)
    2     dE    -2.591058e-01     8.199689e-02    -1.5454e+00      0.576 (TRAH MIcro)
    2     dE    -2.594710e-01     2.361013e-02    -1.5476e+00      0.576 (TRAH MIcro)
    2     dE    -2.595007e-01     6.168240e-03    -1.5478e+00      0.576 (TRAH MIcro)
WARNING: 1 diagonal Hessian elements are negative!
    3       -492.232065642131     6.231797e-01                     0.576 (TRAH MAcro)   No
WARNING : negative HOMO - LUMO gap : -0.001473
    3     dE    -1.719662e-02     8.687735e-01    -3.4284e-02      0.056 (TRAH MIcro)
    3     dE    -3.650015e-02     1.660871e-01    -7.0772e-02      0.177 (TRAH MIcro)
    3     dE    -3.814021e-02     5.352429e-02    -7.3644e-02      0.189 (TRAH MIcro)
    3     dE    -3.840624e-02     3.527427e-02    -7.4089e-02      0.192 (TRAH MIcro)
    3     dE    -3.844815e-02     2.573998e-02    -7.4144e-02      0.193 (TRAH MIcro)
    3     dE    -3.848810e-02     7.323739e-03    -7.4179e-02      0.194 (TRAH MIcro)
    4       -492.269489059200     3.251699e-02                     0.691 (TRAH MAcro)   No
WARNING : small    HOMO - LUMO gap : 0.010969
    4     dE    -4.790824e-05     7.546233e-02    -9.5816e-05      0.003 (TRAH MIcro)
    4     dE    -6.487850e-05     5.642432e-02    -1.2975e-04      0.006 (TRAH MIcro)
    4     dE    -1.143573e-04     1.179713e-02    -2.2869e-04      0.010 (TRAH MIcro)
    4     dE    -1.290169e-04     8.143622e-03    -2.5799e-04      0.012 (TRAH MIcro)
    4     dE    -1.308299e-04     2.488894e-03    -2.6161e-04      0.013 (TRAH MIcro)
    5       -492.269621256011     2.544436e-03                     0.829 (TRAH MAcro)   No
WARNING : small    HOMO - LUMO gap : 0.010108
    5     dE    -8.595954e-08     4.445910e-03    -1.7194e-07      0.000 (TRAH MIcro)
    5     dE    -1.683044e-07     3.439642e-03    -3.3661e-07      0.000 (TRAH MIcro)
    5     dE    -3.363929e-07     9.369217e-04    -6.7279e-07      0.000 (TRAH MIcro)
    5     dE    -4.409416e-07     6.875142e-04    -8.8188e-07      0.001 (TRAH MIcro)
    5     dE    -4.734435e-07     2.671802e-04    -9.4689e-07      0.001 (TRAH MIcro)
    5     dE    -4.784567e-07     6.373658e-05    -9.5691e-07      0.001 (TRAH MIcro)
    6       -492.269621737656     6.375952e-05                           (NR   MAcro)
WARNING : small    HOMO - LUMO gap : 0.010092
    6     dE    -1.661780e-10     3.577081e-05                           (NR   MIcro)
    6     dE    -2.283002e-10     2.766154e-05                           (NR   MIcro)
    6     dE    -2.955954e-10     1.173691e-05                           (NR   MIcro)
    6     dE    -3.082161e-10     8.462310e-06                           (NR   MIcro)
    6     dE    -3.128400e-10     5.327504e-06                           (NR   MIcro)
    6     dE    -3.144284e-10     2.300179e-06                           (NR   MIcro)
