
                                 *****************
                                 * O   R   C   A *
                                 *****************

                                            #,                                       
                                            ###                                      
                                            ####                                     
                                            #####                                    
                                            ######                                   
                                           ########,                                 
                                     ,,################,,,,,                         
                               ,,#################################,,                 
                          ,,##########################################,,             
                       ,#########################################, ''#####,          
                    ,#############################################,,   '####,        
                  ,##################################################,,,,####,       
                ,###########''''           ''''###############################       
              ,#####''   ,,,,##########,,,,          '''####'''          '####       
            ,##' ,,,,###########################,,,                        '##       
           ' ,,###''''                  '''############,,,                           
         ,,##''                                '''############,,,,        ,,,,,,###''
      ,#''                                            '''#######################'''  
     '                                                          ''''####''''         
             ,#######,   #######,   ,#######,      ##                                
            ,#'     '#,  ##    ##  ,#'     '#,    #''#        ######   ,####,        
            ##       ##  ##   ,#'  ##            #'  '#       #        #'  '#        
            ##       ##  #######   ##           ,######,      #####,   #    #        
            '#,     ,#'  ##    ##  '#,     ,#' ,#      #,         ##   #,  ,#        
             '#######'   ##     ##  '#######'  #'      '#     #####' # '####'        



                  #######################################################
                  #                        -***-                        #
                  #          Department of theory and spectroscopy      #
                  #    Directorship and core code : Frank Neese         #
                  #        Max Planck Institute fuer Kohlenforschung    #
                  #                Kaiser Wilhelm Platz 1               #
                  #                 D-45470 Muelheim/Ruhr               #
                  #                      Germany                        #
                  #                                                     #
                  #                  All rights reserved                #
                  #                        -***-                        #
                  #######################################################



                         Program Version 5.0.4 -  RELEASE  -

 With contributions from (in alphabetic order):
   Daniel Aravena         : Magnetic Suceptibility
   Michael Atanasov       : Ab Initio Ligand Field Theory (pilot matlab implementation)
   Alexander A. Auer      : GIAO ZORA, VPT2 properties, NMR spectrum
   Ute Becker             : Parallelization
   Giovanni Bistoni       : ED, misc. LED, open-shell LED, HFLD
   Martin Brehm           : Molecular dynamics
   Dmytro Bykov           : SCF Hessian
   Vijay G. Chilkuri      : MRCI spin determinant printing, contributions to CSF-ICE
   Dipayan Datta          : RHF DLPNO-CCSD density
   Achintya Kumar Dutta   : EOM-CC, STEOM-CC
   Dmitry Ganyushin       : Spin-Orbit,Spin-Spin,Magnetic field MRCI
   Miquel Garcia          : C-PCM and meta-GGA Hessian, CC/C-PCM, Gaussian charge scheme
   Yang Guo               : DLPNO-NEVPT2, F12-NEVPT2, CIM, IAO-localization
   Andreas Hansen         : Spin unrestricted coupled pair/coupled cluster methods
   Benjamin Helmich-Paris : MC-RPA, TRAH-SCF, COSX integrals
   Lee Huntington         : MR-EOM, pCC
   Robert Izsak           : Overlap fitted RIJCOSX, COSX-SCS-MP3, EOM
   Marcus Kettner         : VPT2
   Christian Kollmar      : KDIIS, OOCD, Brueckner-CCSD(T), CCSD density, CASPT2, CASPT2-K
   Simone Kossmann        : Meta GGA functionals, TD-DFT gradient, OOMP2, MP2 Hessian
   Martin Krupicka        : Initial AUTO-CI
   Lucas Lang             : DCDCAS
   Marvin Lechner         : AUTO-CI (C++ implementation), FIC-MRCC
   Dagmar Lenk            : GEPOL surface, SMD
   Dimitrios Liakos       : Extrapolation schemes; Compound Job, initial MDCI parallelization
   Dimitrios Manganas     : Further ROCIS development; embedding schemes
   Dimitrios Pantazis     : SARC Basis sets
   Anastasios Papadopoulos: AUTO-CI, single reference methods and gradients
   Taras Petrenko         : DFT Hessian,TD-DFT gradient, ASA, ECA, R-Raman, ABS, FL, XAS/XES, NRVS
   Peter Pinski           : DLPNO-MP2, DLPNO-MP2 Gradient
   Christoph Reimann      : Effective Core Potentials
   Marius Retegan         : Local ZFS, SOC
   Christoph Riplinger    : Optimizer, TS searches, QM/MM, DLPNO-CCSD(T), (RO)-DLPNO pert. Triples
   Tobias Risthaus        : Range-separated hybrids, TD-DFT gradient, RPA, STAB
   Michael Roemelt        : Original ROCIS implementation
   Masaaki Saitow         : Open-shell DLPNO-CCSD energy and density
   Barbara Sandhoefer     : DKH picture change effects
   Avijit Sen             : IP-ROCIS
   Kantharuban Sivalingam : CASSCF convergence, NEVPT2, FIC-MRCI
   Bernardo de Souza      : ESD, SOC TD-DFT
   Georgi Stoychev        : AutoAux, RI-MP2 NMR, DLPNO-MP2 response
   Willem Van den Heuvel  : Paramagnetic NMR
   Boris Wezisla          : Elementary symmetry handling
   Frank Wennmohs         : Technical directorship


 We gratefully acknowledge several colleagues who have allowed us to
 interface, adapt or use parts of their codes:
   Stefan Grimme, W. Hujo, H. Kruse, P. Pracht,  : VdW corrections, initial TS optimization,
                  C. Bannwarth, S. Ehlert          DFT functionals, gCP, sTDA/sTD-DF
   Ed Valeev, F. Pavosevic, A. Kumar             : LibInt (2-el integral package), F12 methods
   Garnet Chan, S. Sharma, J. Yang, R. Olivares  : DMRG
   Ulf Ekstrom                                   : XCFun DFT Library
   Mihaly Kallay                                 : mrcc  (arbitrary order and MRCC methods)
   Jiri Pittner, Ondrej Demel                    : Mk-CCSD
   Frank Weinhold                                : gennbo (NPA and NBO analysis)
   Christopher J. Cramer and Donald G. Truhlar   : smd solvation model
   Lars Goerigk                                  : TD-DFT with DH, B97 family of functionals
   V. Asgeirsson, H. Jonsson                     : NEB implementation
   FAccTs GmbH                                   : IRC, NEB, NEB-TS, DLPNO-Multilevel, CI-OPT
                                                   MM, QMMM, 2- and 3-layer-ONIOM, Crystal-QMMM,
                                                   LR-CPCM, SF, NACMEs, symmetry and pop. for TD-DFT,
                                                   nearIR, NL-DFT gradient (VV10), updates on ESD,
                                                   ML-optimized integration grids
   S Lehtola, MJT Oliveira, MAL Marques          : LibXC Library
   Liviu Ungur et al                             : ANISO software


 Your calculation uses the libint2 library for the computation of 2-el integrals
 For citations please refer to: http://libint.valeyev.net

 Your ORCA version has been built with support for libXC version: 5.1.0
 For citations please refer to: https://tddft.org/programs/libxc/

 This ORCA versions uses:
   CBLAS   interface :  Fast vector & matrix operations
   LAPACKE interface :  Fast linear algebra routines
   Shared memory     :  Shared parallel matrices


================================================================================

----- Orbital basis set information -----
Your calculation utilizes the basis: def2-QZVPP
   F. Weigend and R. Ahlrichs, Phys. Chem. Chem. Phys. 7, 3297 (2005).

----- AuxJ basis set information -----
Your calculation utilizes the auxiliary basis: def2/J
   F. Weigend, Phys. Chem. Chem. Phys. 8, 1057 (2006).

================================================================================
                                        WARNINGS
                       Please study these warnings very carefully!
================================================================================


INFO   : the flag for use of the SHARK integral package has been found!

================================================================================
                                       INPUT FILE
================================================================================
NAME = netural.inp
|  1> !B3LYP DEF2-QZVPP
|  2> 
|  3> %scf
|  4> convergence tight
|  5> end
|  6> 
|  7> * xyz 0 1
|  8>   C   -5.45725684070453      1.95593336212858     -0.00001817707546
|  9>   C   -6.54811022711722      1.08628615246483     -0.00001324749663
| 10>   C   -6.30396401004928     -0.28759056034773     -0.00000139831282
| 11>   C   -4.98984572580346     -0.76859455452417      0.00000695999258
| 12>   C   -3.91114170937565      0.12282314461918     -0.00000121662840
| 13>   C   -4.13915123157836      1.49943411470939     -0.00001304778994
| 14>   H   -7.55740354307554      1.49667400814645     -0.00001684062526
| 15>   H   -7.14404322624445     -0.98601755880687      0.00000397226961
| 16>   H   -4.80509894481999     -1.84567629943337      0.00002057733944
| 17>   H   -2.88642805442052     -0.25584437271434      0.00000437523983
| 18>   H   -3.32449720747170      2.22296833592123     -0.00001644865895
| 19>   N   -5.70656998714359      3.41332965011033     -0.00000742911383
| 20>   O   -6.86822400877657      3.78641654026404      0.00002696429634
| 21>   O   -4.73500528341910      4.15158803746246      0.00002495656351
| 22> **                         ****END OF INPUT****
================================================================================

                       ****************************
                       * Single Point Calculation *
                       ****************************

---------------------------------
CARTESIAN COORDINATES (ANGSTROEM)
---------------------------------
  C     -5.457257    1.955933   -0.000018
  C     -6.548110    1.086286   -0.000013
  C     -6.303964   -0.287591   -0.000001
  C     -4.989846   -0.768595    0.000007
  C     -3.911142    0.122823   -0.000001
  C     -4.139151    1.499434   -0.000013
  H     -7.557404    1.496674   -0.000017
  H     -7.144043   -0.986018    0.000004
  H     -4.805099   -1.845676    0.000021
  H     -2.886428   -0.255844    0.000004
  H     -3.324497    2.222968   -0.000016
  N     -5.706570    3.413330   -0.000007
  O     -6.868224    3.786417    0.000027
  O     -4.735005    4.151588    0.000025

----------------------------
CARTESIAN COORDINATES (A.U.)
----------------------------
  NO LB      ZA    FRAG     MASS         X           Y           Z
   0 C     6.0000    0    12.011  -10.312721    3.696178   -0.000034
   1 C     6.0000    0    12.011  -12.374135    2.052783   -0.000025
   2 C     6.0000    0    12.011  -11.912766   -0.543467   -0.000003
   3 C     6.0000    0    12.011   -9.429442   -1.452433    0.000013
   4 C     6.0000    0    12.011   -7.390987    0.232102   -0.000002
   5 C     6.0000    0    12.011   -7.821862    2.833520   -0.000025
   6 H     1.0000    0     1.008  -14.281423    2.828304   -0.000032
   7 H     1.0000    0     1.008  -13.500285   -1.863303    0.000008
   8 H     1.0000    0     1.008   -9.080321   -3.487823    0.000039
   9 H     1.0000    0     1.008   -5.454559   -0.483476    0.000008
  10 H     1.0000    0     1.008   -6.282389    4.200801   -0.000031
  11 N     7.0000    0    14.007  -10.783854    6.450258   -0.000014
  12 O     8.0000    0    15.999  -12.979062    7.155290    0.000051
  13 O     8.0000    0    15.999   -8.947863    7.845364    0.000047

--------------------------------
INTERNAL COORDINATES (ANGSTROEM)
--------------------------------
 C      0   0   0     0.000000000000     0.00000000     0.00000000
 C      1   0   0     1.395079703798     0.00000000     0.00000000
 C      2   1   0     1.395401231710   118.48584445     0.00000000
 C      3   2   1     1.399382616539   120.18065164     0.00000000
 C      4   3   2     1.399366953115   120.32637122     0.00000000
 C      1   2   3     1.394917187410   122.33504685     0.00000000
 H      2   1   3     1.089537144728   119.31043403   179.99988667
 H      3   2   1     1.092489524750   119.66292133   179.99991929
 H      4   3   2     1.092811263890   119.83699994   179.99973703
 H      5   4   3     1.092440919852   120.14937450   180.00005869
 H      6   1   2     1.089570074970   119.28765415   180.00004977
 N      1   2   3     1.478567206902   118.85497877   180.00103078
 O     12   1   2     1.220095854744   117.51287202     0.00000000
 O     12   1   2     1.220230888426   117.52246431   179.99804165

---------------------------
INTERNAL COORDINATES (A.U.)
---------------------------
 C      0   0   0     0.000000000000     0.00000000     0.00000000
 C      1   0   0     2.636318575170     0.00000000     0.00000000
 C      2   1   0     2.636926174868   118.48584445     0.00000000
 C      3   2   1     2.644449901830   120.18065164     0.00000000
 C      4   3   2     2.644420302247   120.32637122     0.00000000
 C      1   2   3     2.636011463704   122.33504685     0.00000000
 H      2   1   3     2.058926816270   119.31043403   179.99988667
 H      3   2   1     2.064506005955   119.66292133   179.99991929
 H      4   3   2     2.065114004817   119.83699994   179.99973703
 H      5   4   3     2.064414156009   120.14937450   180.00005869
 H      6   1   2     2.058989045409   119.28765415   180.00004977
 N      1   2   3     2.794087091642   118.85497877   180.00103078
 O     12   1   2     2.305647022599   117.51287202     0.00000000
 O     12   1   2     2.305902199276   117.52246431   179.99804165

---------------------
BASIS SET INFORMATION
---------------------
There are 4 groups of distinct atoms

 Group   1 Type C   : 15s8p3d2f1g contracted to 7s4p3d2f1g pattern {8211111/5111/111/11/1}
 Group   2 Type H   : 7s3p2d1f contracted to 4s3p2d1f pattern {4111/111/11/1}
 Group   3 Type N   : 15s8p3d2f1g contracted to 7s4p3d2f1g pattern {8211111/5111/111/11/1}
 Group   4 Type O   : 15s8p3d2f1g contracted to 7s4p3d2f1g pattern {8211111/5111/111/11/1}

Atom   0C    basis set group =>   1
Atom   1C    basis set group =>   1
Atom   2C    basis set group =>   1
Atom   3C    basis set group =>   1
Atom   4C    basis set group =>   1
Atom   5C    basis set group =>   1
Atom   6H    basis set group =>   2
Atom   7H    basis set group =>   2
Atom   8H    basis set group =>   2
Atom   9H    basis set group =>   2
Atom  10H    basis set group =>   2
Atom  11N    basis set group =>   3
Atom  12O    basis set group =>   4
Atom  13O    basis set group =>   4
---------------------------------
AUXILIARY/J BASIS SET INFORMATION
---------------------------------
There are 4 groups of distinct atoms

 Group   1 Type C   : 12s5p4d2f1g contracted to 6s4p3d1f1g pattern {711111/2111/211/2/1}
 Group   2 Type H   : 5s2p1d contracted to 3s1p1d pattern {311/2/1}
 Group   3 Type N   : 12s5p4d2f1g contracted to 6s4p3d1f1g pattern {711111/2111/211/2/1}
 Group   4 Type O   : 12s5p4d2f1g contracted to 6s4p3d1f1g pattern {711111/2111/211/2/1}

Atom   0C    basis set group =>   1
Atom   1C    basis set group =>   1
Atom   2C    basis set group =>   1
Atom   3C    basis set group =>   1
Atom   4C    basis set group =>   1
Atom   5C    basis set group =>   1
Atom   6H    basis set group =>   2
Atom   7H    basis set group =>   2
Atom   8H    basis set group =>   2
Atom   9H    basis set group =>   2
Atom  10H    basis set group =>   2
Atom  11N    basis set group =>   3
Atom  12O    basis set group =>   4
Atom  13O    basis set group =>   4
------------------------------------------------------------------------------
                           ORCA GTO INTEGRAL CALCULATION
                           -- RI-GTO INTEGRALS CHOSEN --
------------------------------------------------------------------------------
------------------------------------------------------------------------------
                   ___                                                        
                  /   \      - P O W E R E D   B Y -                         
                 /     \                                                     
                 |  |  |   _    _      __       _____    __    __             
                 |  |  |  | |  | |    /  \     |  _  \  |  |  /  |          
                  \  \/   | |  | |   /    \    | | | |  |  | /  /          
                 / \  \   | |__| |  /  /\  \   | |_| |  |  |/  /          
                |  |  |   |  __  | /  /__\  \  |    /   |      \           
                |  |  |   | |  | | |   __   |  |    \   |  |\   \          
                \     /   | |  | | |  |  |  |  | |\  \  |  | \   \       
                 \___/    |_|  |_| |__|  |__|  |_| \__\ |__|  \__/        
                                                                              
                      - O R C A' S   B I G   F R I E N D -                    
                                      &                                       
                       - I N T E G R A L  F E E D E R -                       
                                                                              
 v1 FN, 2020, v2 2021                                                         
------------------------------------------------------------------------------


Reading SHARK input file netural.SHARKINP.tmp ... ok
----------------------
SHARK INTEGRAL PACKAGE
----------------------

Number of atoms                             ...     14
Number of basis functions                   ...    663
Number of shells                            ...    203
Maximum angular momentum                    ...      4
Integral batch strategy                     ... SHARK/LIBINT Hybrid
RI-J (if used) integral strategy            ... SPLIT-RIJ (Revised 2003 algorithm where possible)
Printlevel                                  ...      1
Contraction scheme used                     ... SEGMENTED contraction
Coulomb Range Separation                    ... NOT USED
Exchange Range Separation                   ... NOT USED
Finite Nucleus Model                        ... NOT USED
Auxiliary Coulomb fitting basis             ... AVAILABLE
   # of basis functions in Aux-J            ...    496
   # of shells in Aux-J                     ...    160
   Maximum angular momentum in Aux-J        ...      4
Auxiliary J/K fitting basis                 ... NOT available
Auxiliary Correlation fitting basis         ... NOT available
Auxiliary 'external' fitting basis          ... NOT available
Integral threshold                          ...     2.500000e-11
Primitive cut-off                           ...     2.500000e-12
Primitive pair pre-selection threshold      ...     2.500000e-12

Calculating pre-screening integrals         ... done (  4.7 sec) Dimension = 203
Organizing shell pair data                  ... done (  3.8 sec)
Shell pair information
Total number of shell pairs                 ...     20706
Shell pairs after pre-screening             ...     17254
Total number of primitive shell pairs       ...     53682
Primitive shell pairs kept                  ...     33711
          la=0 lb=0:   2619 shell pairs
          la=1 lb=0:   3636 shell pairs
          la=1 lb=1:   1222 shell pairs
          la=2 lb=0:   2465 shell pairs
          la=2 lb=1:   1690 shell pairs
          la=2 lb=2:    597 shell pairs
          la=3 lb=0:   1515 shell pairs
          la=3 lb=1:   1031 shell pairs
          la=3 lb=2:    718 shell pairs
          la=3 lb=3:    230 shell pairs
          la=4 lb=0:    618 shell pairs
          la=4 lb=1:    414 shell pairs
          la=4 lb=2:    280 shell pairs
          la=4 lb=3:    180 shell pairs
          la=4 lb=4:     39 shell pairs

Calculating one electron integrals          ... done (  1.5 sec)
Calculating RI/J V-Matrix + Cholesky decomp.... done (  0.2 sec)
Calculating Nuclear repulsion               ... done (  0.0 sec) ENN=    411.906933328615 Eh

SHARK setup successfully completed in  17.1 seconds

Maximum memory used throughout the entire GTOINT-calculation: 621.7 MB
-------------------------------------------------------------------------------
                                 ORCA SCF
-------------------------------------------------------------------------------

------------
SCF SETTINGS
------------
Hamiltonian:
 Density Functional     Method          .... DFT(GTOs)
 Exchange Functional    Exchange        .... B88
   X-Alpha parameter    XAlpha          ....  0.666667
   Becke's b parameter  XBeta           ....  0.004200
 Correlation Functional Correlation     .... LYP
 LDA part of GGA corr.  LDAOpt          .... VWN-5
 Gradients option       PostSCFGGA      .... off
 Hybrid DFT is turned on
   Fraction HF Exchange ScalHFX         ....  0.200000
   Scaling of DF-GGA-X  ScalDFX         ....  0.720000
   Scaling of DF-GGA-C  ScalDFC         ....  0.810000
   Scaling of DF-LDA-C  ScalLDAC        ....  1.000000
   Perturbative correction              ....  0.000000
   Density functional embedding theory  .... OFF
   NL short-range parameter             ....  4.800000
 RI-approximation to the Coulomb term is turned on
   Number of AuxJ basis functions       .... 496
   RIJ-COSX (HFX calculated with COS-X)).... on


General Settings:
 Integral files         IntName         .... netural
 Hartree-Fock type      HFTyp           .... RHF
 Total Charge           Charge          ....    0
 Multiplicity           Mult            ....    1
 Number of Electrons    NEL             ....   64
 Basis Dimension        Dim             ....  663
 Nuclear Repulsion      ENuc            ....    411.9069333286 Eh

Convergence Acceleration:
 DIIS                   CNVDIIS         .... on
   Start iteration      DIISMaxIt       ....    12
   Startup error        DIISStart       ....  0.200000
   # of expansion vecs  DIISMaxEq       ....     5
   Bias factor          DIISBfac        ....   1.050
   Max. coefficient     DIISMaxC        ....  10.000
 Trust-Rad. Augm. Hess. CNVTRAH         .... auto
   Auto Start mean grad. ratio tolernc. ....  1.125000
   Auto Start start iteration           ....    20
   Auto Start num. interpolation iter.  ....    10
   Max. Number of Micro iterations      ....    16
   Max. Number of Macro iterations      .... Maxiter - #DIIS iter
   Number of Davidson start vectors     ....     2
   Converg. threshold I  (grad. norm)   ....   1.000e-05
   Converg. threshold II (energy diff.) ....   1.000e-08
   Grad. Scal. Fac. for Micro threshold ....   0.100
   Minimum threshold for Micro iter.    ....   0.010
   NR start threshold (gradient norm)   ....   0.001
   Initial trust radius                 ....   0.400
   Minimum AH scaling param. (alpha)    ....   1.000
   Maximum AH scaling param. (alpha)    .... 1000.000
   Orbital update algorithm             .... Taylor
   White noise on init. David. guess    .... on
   Maximum white noise                  ....   0.010
   Quad. conv. algorithm                .... NR
 SOSCF                  CNVSOSCF        .... on
   Start iteration      SOSCFMaxIt      ....   150
   Startup grad/error   SOSCFStart      ....  0.003300
 Level Shifting         CNVShift        .... on
   Level shift para.    LevelShift      ....    0.2500
   Turn off err/grad.   ShiftErr        ....    0.0010
 Zerner damping         CNVZerner       .... off
 Static damping         CNVDamp         .... on
   Fraction old density DampFac         ....    0.7000
   Max. Damping (<1)    DampMax         ....    0.9800
   Min. Damping (>=0)   DampMin         ....    0.0000
   Turn off err/grad.   DampErr         ....    0.1000
 Fernandez-Rico         CNVRico         .... off

SCF Procedure:
 Maximum # iterations   MaxIter         ....   125
 SCF integral mode      SCFMode         .... Direct
   Integral package                     .... SHARK and LIBINT hybrid scheme
 Reset frequency        DirectResetFreq ....    20
 Integral Threshold     Thresh          ....  2.500e-11 Eh
 Primitive CutOff       TCut            ....  2.500e-12 Eh

Convergence Tolerance:
 Convergence Check Mode ConvCheckMode   .... Total+1el-Energy
 Convergence forced     ConvForced      .... 0
 Energy Change          TolE            ....  1.000e-08 Eh
 1-El. energy change                    ....  1.000e-05 Eh
 Orbital Gradient       TolG            ....  1.000e-05
 Orbital Rotation angle TolX            ....  1.000e-05
 DIIS Error             TolErr          ....  5.000e-07


Diagonalization of the overlap matrix:
Smallest eigenvalue                        ... 6.686e-06
Time for diagonalization                   ...    0.708 sec
Threshold for overlap eigenvalues          ... 1.000e-08
Number of eigenvalues below threshold      ... 0
Time for construction of square roots      ...    0.456 sec
Total time needed                          ...    1.168 sec

Time for model grid setup =    3.630 sec

------------------------------
INITIAL GUESS: MODEL POTENTIAL
------------------------------
Loading Hartree-Fock densities                     ... done
Calculating cut-offs                               ... done
Initializing the effective Hamiltonian             ... done
Setting up the integral package (SHARK)            ... done
Starting the Coulomb interaction                   ... done (   9.4 sec)
Reading the grid                                   ... done
Mapping shells                                     ... done
Starting the XC term evaluation                    ... done (  11.0 sec)
  promolecular density results
     # of electrons  =     63.996915917
     EX              =    -55.276896412
     EC              =     -2.209849109
     EX+EC           =    -57.486745521
Transforming the Hamiltonian                       ... done (   0.2 sec)
Diagonalizing the Hamiltonian                      ... done (   0.5 sec)
Back transforming the eigenvectors                 ... done (   0.1 sec)
Now organizing SCF variables                       ... done
                      ------------------
                      INITIAL GUESS DONE (  25.2 sec)
                      ------------------
-------------------
DFT GRID GENERATION
-------------------

General Integration Accuracy     IntAcc      ... 4.388
Radial Grid Type                 RadialGrid  ... OptM3 with GC (2021)
Angular Grid (max. ang.)         AngularGrid ... 4 (Lebedev-302)
Angular grid pruning method      GridPruning ... 4 (adaptive)
Weight generation scheme         WeightScheme... Becke
Basis function cutoff            BFCut       ... 1.0000e-11
Integration weight cutoff        WCut        ... 1.0000e-14
Angular grids for H and He will be reduced by one unit
Partially contracted basis set               ... off
Rotationally invariant grid construction     ... off

Total number of grid points                  ...    72884
Total number of batches                      ...     1146
Average number of points per batch           ...       63
Average number of grid points per atom       ...     5206
Time for grid setup =    8.811 sec

--------------------
COSX GRID GENERATION
--------------------

GRIDX 1
-------
General Integration Accuracy     IntAcc      ... 3.816
Radial Grid Type                 RadialGrid  ... OptM3 with GC (2021)
Angular Grid (max. ang.)         AngularGrid ... 1 (Lebedev-50)
Angular grid pruning method      GridPruning ... 4 (adaptive)
Weight generation scheme         WeightScheme... Becke
Basis function cutoff            BFCut       ... 1.0000e-11
Integration weight cutoff        WCut        ... 1.0000e-14
Angular grids for H and He will be reduced by one unit
Partially contracted basis set               ... on
Rotationally invariant grid construction     ... off

Total number of grid points                  ...     9298
Total number of batches                      ...      154
Average number of points per batch           ...       60
Average number of grid points per atom       ...      664
UseSFitting                                  ... on

GRIDX 2
-------
General Integration Accuracy     IntAcc      ... 4.020
Radial Grid Type                 RadialGrid  ... OptM3 with GC (2021)
Angular Grid (max. ang.)         AngularGrid ... 2 (Lebedev-110)
Angular grid pruning method      GridPruning ... 4 (adaptive)
Weight generation scheme         WeightScheme... Becke
Basis function cutoff            BFCut       ... 1.0000e-11
Integration weight cutoff        WCut        ... 1.0000e-14
Angular grids for H and He will be reduced by one unit
Partially contracted basis set               ... on
Rotationally invariant grid construction     ... off

Total number of grid points                  ...    23048
Total number of batches                      ...      369
Average number of points per batch           ...       62
Average number of grid points per atom       ...     1646
UseSFitting                                  ... on

GRIDX 3
-------
General Integration Accuracy     IntAcc      ... 4.338
Radial Grid Type                 RadialGrid  ... OptM3 with GC (2021)
Angular Grid (max. ang.)         AngularGrid ... 3 (Lebedev-194)
Angular grid pruning method      GridPruning ... 4 (adaptive)
Weight generation scheme         WeightScheme... Becke
Basis function cutoff            BFCut       ... 1.0000e-11
Integration weight cutoff        WCut        ... 1.0000e-14
Angular grids for H and He will be reduced by one unit
Partially contracted basis set               ... on
Rotationally invariant grid construction     ... off

Total number of grid points                  ...    49698
Total number of batches                      ...      784
Average number of points per batch           ...       63
Average number of grid points per atom       ...     3550
UseSFitting                                  ... on

Time for X-Grid setup             =   20.731 sec

--------------
SCF ITERATIONS
--------------
ITER       Energy         Delta-E        Max-DP      RMS-DP      [F,P]     Damp
               ***  Starting incremental Fock matrix formation  ***
  0   -436.4543401686   0.000000000000 0.04260477  0.00034025  0.2331918 0.7000
  1   -436.5804406964  -0.126100527807 0.02497104  0.00023164  0.0909549 0.7000
                               ***Turning on DIIS***
  2   -436.6233871619  -0.042946465532 0.03779796  0.00039166  0.0362079 0.0000
  3   -436.7028397636  -0.079452601665 0.01755107  0.00015759  0.0400705 0.0000
  4   -436.7146462155  -0.011806451937 0.00712430  0.00006312  0.0221172 0.0000
  5   -436.7159774576  -0.001331242065 0.00262283  0.00002733  0.0039301 0.0000
                      *** Initiating the SOSCF procedure ***
                           *** Shutting down DIIS ***
                      *** Re-Reading the Fockian *** 
                      *** Removing any level shift *** 
ITER      Energy       Delta-E        Grad      Rot      Max-DP    RMS-DP
  6   -436.71604241  -0.0000649499  0.000484  0.000484  0.000682  0.000009
               *** Restarting incremental Fock matrix formation ***
  7   -436.71604565  -0.0000032431  0.000148  0.000548  0.000617  0.000009
  8   -436.71604511   0.0000005383  0.000313  0.000539  0.000127  0.000002
  9   -436.71604639  -0.0000012768  0.000044  0.000067  0.000095  0.000001
 10   -436.71604637   0.0000000203  0.000061  0.000044  0.000034  0.000000
 11   -436.71604641  -0.0000000414  0.000012  0.000036  0.000060  0.000000
 12   -436.71604641  -0.0000000008  0.000023  0.000035  0.000020  0.000000
 13   -436.71604642  -0.0000000050  0.000009  0.000020  0.000031  0.000000
 14   -436.71604641   0.0000000060  0.000012  0.000010  0.000027  0.000000
                  ***Gradient check signals convergence***
              ***Rediagonalizing the Fockian in SOSCF/NRSCF***

               *****************************************************
               *                     SUCCESS                       *
               *           SCF CONVERGED AFTER  15 CYCLES          *
               *****************************************************

Old exchange energy                            =    -11.153645768 Eh
New exchange energy                            =    -11.153644556 Eh
Exchange energy change after final integration =      0.000001212 Eh
Total energy after final integration           =   -436.716045207 Eh
Final COS-X integration done in                =   388.752 sec

----------------
TOTAL SCF ENERGY
----------------

Total Energy       :         -436.71604521 Eh          -11883.64774 eV

Components:
Nuclear Repulsion  :          411.90693333 Eh           11208.55749 eV
Electronic Energy  :         -848.62297854 Eh          -23092.20523 eV
One Electron Energy:        -1409.09619315 Eh          -38343.45676 eV
Two Electron Energy:          560.47321461 Eh           15251.25153 eV
Max COSX asymmetry :            0.00000100 Eh               0.00003 eV

Virial components:
Potential Energy   :         -871.49762994 Eh          -23714.65614 eV
Kinetic Energy     :          434.78158473 Eh           11831.00840 eV
Virial Ratio       :            2.00444927


DFT components:
N(Alpha)           :       31.999939204742 electrons
N(Beta)            :       31.999939204742 electrons
N(Total)           :       63.999878409484 electrons
E(X)               :      -44.444609282345 Eh       
E(C)               :       -2.604277900116 Eh       
E(XC)              :      -47.048887182461 Eh       
DFET-embed. en.    :        0.000000000000 Eh       

---------------
SCF CONVERGENCE
---------------

  Last Energy change         ...   -8.2651e-09  Tolerance :   1.0000e-08
  Last MAX-Density change    ...    9.9920e-16  Tolerance :   1.0000e-07
  Last RMS-Density change    ...    7.2088e-18  Tolerance :   5.0000e-09
  Last Orbital Gradient      ...    6.6709e-07  Tolerance :   1.0000e-05
  Last Orbital Rotation      ...    2.7106e-06  Tolerance :   1.0000e-05

             **** THE GBW FILE WAS UPDATED (netural.gbw) ****
             **** DENSITY netural.scfp WAS UPDATED ****
             **** ENERGY FILE WAS UPDATED (netural.en.tmp) ****
             **** THE GBW FILE WAS UPDATED (netural.gbw) ****
             **** DENSITY netural.scfp WAS UPDATED ****
----------------
ORBITAL ENERGIES
----------------

  NO   OCC          E(Eh)            E(eV) 
   0   2.0000     -19.164142      -521.4828 
   1   2.0000     -19.164111      -521.4820 
   2   2.0000     -14.559557      -396.1857 
   3   2.0000     -10.248165      -278.8668 
   4   2.0000     -10.213346      -277.9193 
   5   2.0000     -10.213289      -277.9177 
   6   2.0000     -10.212381      -277.8930 
   7   2.0000     -10.209634      -277.8183 
   8   2.0000     -10.209574      -277.8166 
   9   2.0000      -1.238369       -33.6977 
  10   2.0000      -1.065100       -28.9828 
  11   2.0000      -0.896008       -24.3816 
  12   2.0000      -0.812403       -22.1066 
  13   2.0000      -0.778668       -21.1886 
  14   2.0000      -0.707650       -19.2561 
  15   2.0000      -0.638176       -17.3656 
  16   2.0000      -0.603620       -16.4253 
  17   2.0000      -0.571238       -15.5442 
  18   2.0000      -0.545074       -14.8322 
  19   2.0000      -0.523515       -14.2456 
  20   2.0000      -0.516893       -14.0654 
  21   2.0000      -0.479807       -13.0562 
  22   2.0000      -0.471223       -12.8226 
  23   2.0000      -0.453710       -12.3461 
  24   2.0000      -0.399875       -10.8812 
  25   2.0000      -0.396007       -10.7759 
  26   2.0000      -0.377580       -10.2745 
  27   2.0000      -0.324304        -8.8248 
  28   2.0000      -0.319634        -8.6977 
  29   2.0000      -0.304441        -8.2843 
  30   2.0000      -0.291323        -7.9273 
  31   2.0000      -0.286691        -7.8013 
  32   0.0000      -0.100175        -2.7259 
  33   0.0000      -0.042945        -1.1686 
  34   0.0000      -0.014914        -0.4058 
  35   0.0000       0.011673         0.3176 
  36   0.0000       0.037174         1.0116 
  37   0.0000       0.047079         1.2811 
  38   0.0000       0.070792         1.9264 
  39   0.0000       0.076591         2.0841 
  40   0.0000       0.089296         2.4299 
  41   0.0000       0.102817         2.7978 
  42   0.0000       0.117143         3.1876 
  43   0.0000       0.120145         3.2693 
  44   0.0000       0.139633         3.7996 
  45   0.0000       0.141184         3.8418 
  46   0.0000       0.146520         3.9870 
  47   0.0000       0.149124         4.0579 
  48   0.0000       0.151070         4.1108 
  49   0.0000       0.181553         4.9403 
  50   0.0000       0.192824         5.2470 
  51   0.0000       0.201152         5.4736 
  52   0.0000       0.214611         5.8399 
  53   0.0000       0.215021         5.8510 
  54   0.0000       0.215765         5.8713 
  55   0.0000       0.238522         6.4905 
  56   0.0000       0.245576         6.6825 
  57   0.0000       0.261226         7.1083 
  58   0.0000       0.261945         7.1279 
  59   0.0000       0.266199         7.2436 
  60   0.0000       0.280344         7.6285 
  61   0.0000       0.281965         7.6727 
  62   0.0000       0.287807         7.8316 
  63   0.0000       0.295154         8.0316 
  64   0.0000       0.299047         8.1375 
  65   0.0000       0.302491         8.2312 
  66   0.0000       0.320288         8.7155 
  67   0.0000       0.347392         9.4530 
  68   0.0000       0.347839         9.4652 
  69   0.0000       0.353608         9.6222 
  70   0.0000       0.357067         9.7163 
  71   0.0000       0.374590        10.1931 
  72   0.0000       0.378375        10.2961 
  73   0.0000       0.397064        10.8047 
  74   0.0000       0.408200        11.1077 
  75   0.0000       0.410314        11.1652 
  76   0.0000       0.435378        11.8472 
  77   0.0000       0.440396        11.9838 
  78   0.0000       0.454931        12.3793 
  79   0.0000       0.458385        12.4733 
  80   0.0000       0.466169        12.6851 
  81   0.0000       0.469879        12.7861 
  82   0.0000       0.486747        13.2450 
  83   0.0000       0.499267        13.5857 
  84   0.0000       0.502154        13.6643 
  85   0.0000       0.502817        13.6824 
  86   0.0000       0.510781        13.8991 
  87   0.0000       0.528785        14.3890 
  88   0.0000       0.537320        14.6212 
  89   0.0000       0.541535        14.7359 
  90   0.0000       0.561127        15.2690 
  91   0.0000       0.584010        15.8917 
  92   0.0000       0.599500        16.3132 
  93   0.0000       0.611793        16.6477 
  94   0.0000       0.637682        17.3522 
  95   0.0000       0.644891        17.5484 
  96   0.0000       0.651681        17.7331 
  97   0.0000       0.680862        18.5272 
  98   0.0000       0.691891        18.8273 
  99   0.0000       0.691972        18.8295 
 100   0.0000       0.697824        18.9887 
 101   0.0000       0.705437        19.1959 
 102   0.0000       0.711663        19.3653 
 103   0.0000       0.723096        19.6764 
 104   0.0000       0.725663        19.7463 
 105   0.0000       0.738704        20.1012 
 106   0.0000       0.739243        20.1158 
 107   0.0000       0.761933        20.7333 
 108   0.0000       0.785209        21.3666 
 109   0.0000       0.790193        21.5022 
 110   0.0000       0.814434        22.1619 
 111   0.0000       0.831234        22.6190 
 112   0.0000       0.834471        22.7071 
 113   0.0000       0.844625        22.9834 
 114   0.0000       0.847704        23.0672 
 115   0.0000       0.854130        23.2421 
 116   0.0000       0.875303        23.8182 
 117   0.0000       0.883182        24.0326 
 118   0.0000       0.883891        24.0519 
 119   0.0000       0.884837        24.0776 
 120   0.0000       0.889358        24.2007 
 121   0.0000       0.929022        25.2800 
 122   0.0000       0.947443        25.7812 
 123   0.0000       0.948714        25.8158 
 124   0.0000       0.957768        26.0622 
 125   0.0000       0.965851        26.2822 
 126   0.0000       0.980396        26.6779 
 127   0.0000       0.983910        26.7736 
 128   0.0000       0.990898        26.9637 
 129   0.0000       1.008045        27.4303 
 130   0.0000       1.017597        27.6902 
 131   0.0000       1.028711        27.9926 
 132   0.0000       1.037975        28.2447 
 133   0.0000       1.074509        29.2389 
 134   0.0000       1.081745        29.4358 
 135   0.0000       1.099250        29.9121 
 136   0.0000       1.100856        29.9558 
 137   0.0000       1.106490        30.1091 
 138   0.0000       1.119876        30.4734 
 139   0.0000       1.122316        30.5398 
 140   0.0000       1.156845        31.4794 
 141   0.0000       1.170938        31.8628 
 142   0.0000       1.176491        32.0139 
 143   0.0000       1.188213        32.3329 
 144   0.0000       1.205903        32.8143 
 145   0.0000       1.222861        33.2757 
 146   0.0000       1.242159        33.8009 
 147   0.0000       1.254491        34.1364 
 148   0.0000       1.254865        34.1466 
 149   0.0000       1.287408        35.0322 
 150   0.0000       1.302976        35.4558 
 151   0.0000       1.326529        36.0967 
 152   0.0000       1.345077        36.6014 
 153   0.0000       1.360739        37.0276 
 154   0.0000       1.399950        38.0946 
 155   0.0000       1.408518        38.3277 
 156   0.0000       1.410550        38.3830 
 157   0.0000       1.419436        38.6248 
 158   0.0000       1.421936        38.6929 
 159   0.0000       1.474645        40.1271 
 160   0.0000       1.489304        40.5260 
 161   0.0000       1.493289        40.6345 
 162   0.0000       1.504321        40.9346 
 163   0.0000       1.518624        41.3239 
 164   0.0000       1.531595        41.6768 
 165   0.0000       1.545281        42.0492 
 166   0.0000       1.548147        42.1272 
 167   0.0000       1.550957        42.2037 
 168   0.0000       1.567140        42.6440 
 169   0.0000       1.583740        43.0958 
 170   0.0000       1.592658        43.3384 
 171   0.0000       1.618632        44.0452 
 172   0.0000       1.641518        44.6680 
 173   0.0000       1.655095        45.0374 
 174   0.0000       1.676596        45.6225 
 175   0.0000       1.698198        46.2103 
 176   0.0000       1.703639        46.3584 
 177   0.0000       1.714125        46.6437 
 178   0.0000       1.722870        46.8817 
 179   0.0000       1.741356        47.3847 
 180   0.0000       1.760847        47.9151 
 181   0.0000       1.766192        48.0605 
 182   0.0000       1.774460        48.2855 
 183   0.0000       1.782989        48.5176 
 184   0.0000       1.802974        49.0614 
 185   0.0000       1.804278        49.0969 
 186   0.0000       1.823753        49.6268 
 187   0.0000       1.830286        49.8046 
 188   0.0000       1.849697        50.3328 
 189   0.0000       1.869334        50.8672 
 190   0.0000       1.900417        51.7130 
 191   0.0000       1.908747        51.9397 
 192   0.0000       1.910669        51.9920 
 193   0.0000       1.929074        52.4928 
 194   0.0000       1.941043        52.8185 
 195   0.0000       1.950138        53.0659 
 196   0.0000       1.956829        53.2480 
 197   0.0000       1.976972        53.7961 
 198   0.0000       1.985027        54.0153 
 199   0.0000       1.990939        54.1762 
 200   0.0000       2.002357        54.4869 
 201   0.0000       2.026136        55.1340 
 202   0.0000       2.029829        55.2345 
 203   0.0000       2.049720        55.7757 
 204   0.0000       2.064276        56.1718 
 205   0.0000       2.071995        56.3819 
 206   0.0000       2.087194        56.7954 
 207   0.0000       2.107519        57.3485 
 208   0.0000       2.124709        57.8163 
 209   0.0000       2.137620        58.1676 
 210   0.0000       2.165968        58.9390 
 211   0.0000       2.172610        59.1197 
 212   0.0000       2.181034        59.3490 
 213   0.0000       2.185295        59.4649 
 214   0.0000       2.202330        59.9285 
 215   0.0000       2.216711        60.3198 
 216   0.0000       2.223933        60.5163 
 217   0.0000       2.229586        60.6701 
 218   0.0000       2.236485        60.8578 
 219   0.0000       2.250412        61.2368 
 220   0.0000       2.266122        61.6643 
 221   0.0000       2.270415        61.7811 
 222   0.0000       2.277034        61.9612 
 223   0.0000       2.292820        62.3908 
 224   0.0000       2.315115        62.9975 
 225   0.0000       2.350814        63.9689 
 226   0.0000       2.377156        64.6857 
 227   0.0000       2.385096        64.9018 
 228   0.0000       2.393904        65.1414 
 229   0.0000       2.394772        65.1651 
 230   0.0000       2.414021        65.6889 
 231   0.0000       2.432267        66.1853 
 232   0.0000       2.434007        66.2327 
 233   0.0000       2.435844        66.2827 
 234   0.0000       2.462204        67.0000 
 235   0.0000       2.463615        67.0384 
 236   0.0000       2.488164        67.7064 
 237   0.0000       2.512789        68.3765 
 238   0.0000       2.526909        68.7607 
 239   0.0000       2.528660        68.8083 
 240   0.0000       2.539776        69.1108 
 241   0.0000       2.569162        69.9105 
 242   0.0000       2.595516        70.6276 
 243   0.0000       2.597539        70.6826 
 244   0.0000       2.597748        70.6883 
 245   0.0000       2.613439        71.1153 
 246   0.0000       2.623392        71.3861 
 247   0.0000       2.626584        71.4730 
 248   0.0000       2.634562        71.6901 
 249   0.0000       2.636417        71.7405 
 250   0.0000       2.660607        72.3988 
 251   0.0000       2.663533        72.4784 
 252   0.0000       2.672008        72.7090 
 253   0.0000       2.695616        73.3514 
 254   0.0000       2.706442        73.6460 
 255   0.0000       2.712270        73.8046 
 256   0.0000       2.716200        73.9116 
 257   0.0000       2.742452        74.6259 
 258   0.0000       2.755532        74.9818 
 259   0.0000       2.773268        75.4645 
 260   0.0000       2.776851        75.5620 
 261   0.0000       2.784559        75.7717 
 262   0.0000       2.819718        76.7284 
 263   0.0000       2.847948        77.4966 
 264   0.0000       2.848443        77.5101 
 265   0.0000       2.873145        78.1823 
 266   0.0000       2.891399        78.6790 
 267   0.0000       2.894908        78.7745 
 268   0.0000       2.898718        78.8781 
 269   0.0000       2.950325        80.2824 
 270   0.0000       2.954522        80.3966 
 271   0.0000       2.957284        80.4718 
 272   0.0000       2.966616        80.7257 
 273   0.0000       2.981820        81.1394 
 274   0.0000       3.051287        83.0297 
 275   0.0000       3.051319        83.0306 
 276   0.0000       3.087631        84.0187 
 277   0.0000       3.088487        84.0420 
 278   0.0000       3.099546        84.3429 
 279   0.0000       3.111086        84.6570 
 280   0.0000       3.115419        84.7749 
 281   0.0000       3.141721        85.4906 
 282   0.0000       3.178321        86.4865 
 283   0.0000       3.217286        87.5468 
 284   0.0000       3.222788        87.6965 
 285   0.0000       3.237378        88.0935 
 286   0.0000       3.267229        88.9058 
 287   0.0000       3.270326        88.9901 
 288   0.0000       3.328120        90.5628 
 289   0.0000       3.330487        90.6272 
 290   0.0000       3.344964        91.0211 
 291   0.0000       3.361036        91.4584 
 292   0.0000       3.361605        91.4739 
 293   0.0000       3.364926        91.5643 
 294   0.0000       3.392989        92.3279 
 295   0.0000       3.409056        92.7651 
 296   0.0000       3.420468        93.0757 
 297   0.0000       3.426622        93.2431 
 298   0.0000       3.451839        93.9293 
 299   0.0000       3.461685        94.1972 
 300   0.0000       3.487780        94.9073 
 301   0.0000       3.488361        94.9231 
 302   0.0000       3.494538        95.0912 
 303   0.0000       3.495973        95.1303 
 304   0.0000       3.541862        96.3790 
 305   0.0000       3.557234        96.7973 
 306   0.0000       3.623004        98.5869 
 307   0.0000       3.631585        98.8205 
 308   0.0000       3.693787       100.5130 
 309   0.0000       3.695006       100.5462 
 310   0.0000       3.702464       100.7492 
 311   0.0000       3.712094       101.0112 
 312   0.0000       3.763840       102.4193 
 313   0.0000       3.778967       102.8309 
 314   0.0000       3.786387       103.0328 
 315   0.0000       3.795855       103.2905 
 316   0.0000       3.819046       103.9215 
 317   0.0000       3.863737       105.1376 
 318   0.0000       3.884737       105.7091 
 319   0.0000       3.919427       106.6530 
 320   0.0000       3.923447       106.7624 
 321   0.0000       3.970150       108.0333 
 322   0.0000       3.995448       108.7217 
 323   0.0000       4.026848       109.5761 
 324   0.0000       4.033604       109.7599 
 325   0.0000       4.033839       109.7663 
 326   0.0000       4.067009       110.6689 
 327   0.0000       4.073363       110.8418 
 328   0.0000       4.098215       111.5181 
 329   0.0000       4.104882       111.6995 
 330   0.0000       4.137213       112.5793 
 331   0.0000       4.210014       114.5603 
 332   0.0000       4.224288       114.9487 
 333   0.0000       4.234941       115.2386 
 334   0.0000       4.255242       115.7910 
 335   0.0000       4.303671       117.1088 
 336   0.0000       4.331616       117.8693 
 337   0.0000       4.351569       118.4122 
 338   0.0000       4.363210       118.7290 
 339   0.0000       4.407679       119.9390 
 340   0.0000       4.428527       120.5063 
 341   0.0000       4.448797       121.0579 
 342   0.0000       4.527814       123.2081 
 343   0.0000       4.533116       123.3523 
 344   0.0000       4.549383       123.7950 
 345   0.0000       4.563392       124.1762 
 346   0.0000       4.608960       125.4162 
 347   0.0000       4.639788       126.2550 
 348   0.0000       4.665453       126.9534 
 349   0.0000       4.695783       127.7788 
 350   0.0000       4.718638       128.4007 
 351   0.0000       4.756563       129.4327 
 352   0.0000       4.780417       130.0818 
 353   0.0000       4.780538       130.0850 
 354   0.0000       4.819545       131.1465 
 355   0.0000       4.850677       131.9936 
 356   0.0000       4.867318       132.4464 
 357   0.0000       4.902061       133.3919 
 358   0.0000       4.910611       133.6245 
 359   0.0000       4.931005       134.1795 
 360   0.0000       4.987792       135.7247 
 361   0.0000       4.990928       135.8101 
 362   0.0000       5.011335       136.3654 
 363   0.0000       5.015771       136.4861 
 364   0.0000       5.026369       136.7744 
 365   0.0000       5.055893       137.5779 
 366   0.0000       5.063854       137.7945 
 367   0.0000       5.080936       138.2593 
 368   0.0000       5.131585       139.6375 
 369   0.0000       5.181971       141.0086 
 370   0.0000       5.188516       141.1867 
 371   0.0000       5.192852       141.3047 
 372   0.0000       5.193511       141.3226 
 373   0.0000       5.209598       141.7604 
 374   0.0000       5.212473       141.8386 
 375   0.0000       5.242603       142.6585 
 376   0.0000       5.248064       142.8071 
 377   0.0000       5.297520       144.1528 
 378   0.0000       5.315398       144.6393 
 379   0.0000       5.322847       144.8420 
 380   0.0000       5.358575       145.8142 
 381   0.0000       5.359030       145.8266 
 382   0.0000       5.362714       145.9269 
 383   0.0000       5.363939       145.9602 
 384   0.0000       5.403411       147.0343 
 385   0.0000       5.421618       147.5297 
 386   0.0000       5.486062       149.2833 
 387   0.0000       5.490705       149.4097 
 388   0.0000       5.508234       149.8867 
 389   0.0000       5.509737       149.9276 
 390   0.0000       5.524181       150.3206 
 391   0.0000       5.588304       152.0655 
 392   0.0000       5.601409       152.4221 
 393   0.0000       5.626715       153.1107 
 394   0.0000       5.636107       153.3663 
 395   0.0000       5.660042       154.0176 
 396   0.0000       5.693271       154.9218 
 397   0.0000       5.738511       156.1528 
 398   0.0000       5.759267       156.7176 
 399   0.0000       5.775088       157.1481 
 400   0.0000       5.776097       157.1756 
 401   0.0000       5.827012       158.5611 
 402   0.0000       5.845384       159.0610 
 403   0.0000       5.855411       159.3338 
 404   0.0000       5.882997       160.0845 
 405   0.0000       5.885214       160.1448 
 406   0.0000       5.888132       160.2242 
 407   0.0000       5.924167       161.2048 
 408   0.0000       5.951004       161.9351 
 409   0.0000       5.971240       162.4857 
 410   0.0000       5.975608       162.6046 
 411   0.0000       5.996443       163.1715 
 412   0.0000       6.000173       163.2730 
 413   0.0000       6.023723       163.9138 
 414   0.0000       6.060475       164.9139 
 415   0.0000       6.061606       164.9447 
 416   0.0000       6.072455       165.2399 
 417   0.0000       6.075943       165.3348 
 418   0.0000       6.085094       165.5838 
 419   0.0000       6.095837       165.8762 
 420   0.0000       6.103183       166.0760 
 421   0.0000       6.121821       166.5832 
 422   0.0000       6.136821       166.9914 
 423   0.0000       6.143398       167.1704 
 424   0.0000       6.182391       168.2314 
 425   0.0000       6.194019       168.5478 
 426   0.0000       6.207198       168.9065 
 427   0.0000       6.237642       169.7349 
 428   0.0000       6.243846       169.9037 
 429   0.0000       6.246817       169.9845 
 430   0.0000       6.266418       170.5179 
 431   0.0000       6.268990       170.5879 
 432   0.0000       6.269743       170.6084 
 433   0.0000       6.282295       170.9499 
 434   0.0000       6.321086       172.0055 
 435   0.0000       6.338524       172.4800 
 436   0.0000       6.340476       172.5331 
 437   0.0000       6.358249       173.0167 
 438   0.0000       6.397407       174.0823 
 439   0.0000       6.398833       174.1211 
 440   0.0000       6.414777       174.5549 
 441   0.0000       6.446156       175.4088 
 442   0.0000       6.469020       176.0310 
 443   0.0000       6.474643       176.1840 
 444   0.0000       6.485606       176.4823 
 445   0.0000       6.525704       177.5734 
 446   0.0000       6.549415       178.2186 
 447   0.0000       6.572619       178.8500 
 448   0.0000       6.580302       179.0591 
 449   0.0000       6.593252       179.4115 
 450   0.0000       6.606281       179.7660 
 451   0.0000       6.613912       179.9737 
 452   0.0000       6.627377       180.3401 
 453   0.0000       6.639900       180.6809 
 454   0.0000       6.663251       181.3163 
 455   0.0000       6.669997       181.4999 
 456   0.0000       6.699961       182.3152 
 457   0.0000       6.713018       182.6705 
 458   0.0000       6.728438       183.0901 
 459   0.0000       6.737718       183.3426 
 460   0.0000       6.738178       183.3551 
 461   0.0000       6.839952       186.1246 
 462   0.0000       6.853117       186.4828 
 463   0.0000       6.873469       187.0366 
 464   0.0000       6.891161       187.5180 
 465   0.0000       6.907947       187.9748 
 466   0.0000       6.918728       188.2682 
 467   0.0000       6.926042       188.4672 
 468   0.0000       6.954874       189.2518 
 469   0.0000       6.978740       189.9012 
 470   0.0000       6.994990       190.3434 
 471   0.0000       7.028596       191.2578 
 472   0.0000       7.103666       193.3006 
 473   0.0000       7.107583       193.4072 
 474   0.0000       7.108928       193.4438 
 475   0.0000       7.120071       193.7470 
 476   0.0000       7.222689       196.5394 
 477   0.0000       7.234411       196.8583 
 478   0.0000       7.247238       197.2074 
 479   0.0000       7.268936       197.7978 
 480   0.0000       7.275153       197.9670 
 481   0.0000       7.336134       199.6264 
 482   0.0000       7.345984       199.8944 
 483   0.0000       7.394020       201.2015 
 484   0.0000       7.414232       201.7515 
 485   0.0000       7.419525       201.8955 
 486   0.0000       7.427852       202.1221 
 487   0.0000       7.435779       202.3378 
 488   0.0000       7.454767       202.8545 
 489   0.0000       7.459422       202.9812 
 490   0.0000       7.476804       203.4542 
 491   0.0000       7.493275       203.9024 
 492   0.0000       7.502384       204.1502 
 493   0.0000       7.503964       204.1932 
 494   0.0000       7.516083       204.5230 
 495   0.0000       7.535402       205.0487 
 496   0.0000       7.578706       206.2271 
 497   0.0000       7.602303       206.8692 
 498   0.0000       7.623012       207.4327 
 499   0.0000       7.665581       208.5911 
 500   0.0000       7.680597       208.9997 
 501   0.0000       7.694564       209.3797 
 502   0.0000       7.765357       211.3061 
 503   0.0000       7.770138       211.4362 
 504   0.0000       7.820427       212.8046 
 505   0.0000       7.839447       213.3222 
 506   0.0000       7.867312       214.0804 
 507   0.0000       7.877126       214.3475 
 508   0.0000       7.899452       214.9550 
 509   0.0000       7.922102       215.5713 
 510   0.0000       7.927604       215.7211 
 511   0.0000       7.952975       216.4114 
 512   0.0000       7.958144       216.5521 
 513   0.0000       7.975385       217.0213 
 514   0.0000       8.074576       219.7204 
 515   0.0000       8.082549       219.9373 
 516   0.0000       8.091579       220.1830 
 517   0.0000       8.108786       220.6513 
 518   0.0000       8.134940       221.3630 
 519   0.0000       8.152435       221.8390 
 520   0.0000       8.163232       222.1328 
 521   0.0000       8.172435       222.3833 
 522   0.0000       8.206439       223.3086 
 523   0.0000       8.220807       223.6995 
 524   0.0000       8.246265       224.3923 
 525   0.0000       8.247324       224.4211 
 526   0.0000       8.268807       225.0057 
 527   0.0000       8.274784       225.1683 
 528   0.0000       8.278504       225.2695 
 529   0.0000       8.296905       225.7703 
 530   0.0000       8.305514       226.0045 
 531   0.0000       8.347141       227.1373 
 532   0.0000       8.348222       227.1667 
 533   0.0000       8.365517       227.6373 
 534   0.0000       8.367411       227.6888 
 535   0.0000       8.389875       228.3001 
 536   0.0000       8.411517       228.8890 
 537   0.0000       8.425916       229.2808 
 538   0.0000       8.439959       229.6630 
 539   0.0000       8.489663       231.0155 
 540   0.0000       8.510789       231.5903 
 541   0.0000       8.515001       231.7050 
 542   0.0000       8.536641       232.2938 
 543   0.0000       8.552052       232.7132 
 544   0.0000       8.559641       232.9197 
 545   0.0000       8.640260       235.1134 
 546   0.0000       8.643760       235.2087 
 547   0.0000       8.651804       235.4276 
 548   0.0000       8.651850       235.4288 
 549   0.0000       8.680682       236.2134 
 550   0.0000       8.731313       237.5911 
 551   0.0000       8.740958       237.8536 
 552   0.0000       8.785228       239.0582 
 553   0.0000       8.839973       240.5479 
 554   0.0000       8.847724       240.7588 
 555   0.0000       8.850280       240.8284 
 556   0.0000       8.850511       240.8346 
 557   0.0000       8.867194       241.2886 
 558   0.0000       8.875786       241.5224 
 559   0.0000       8.889525       241.8963 
 560   0.0000       8.906561       242.3599 
 561   0.0000       8.919022       242.6989 
 562   0.0000       8.968662       244.0497 
 563   0.0000       8.996465       244.8062 
 564   0.0000       9.000668       244.9206 
 565   0.0000       9.014939       245.3090 
 566   0.0000       9.077917       247.0227 
 567   0.0000       9.139575       248.7005 
 568   0.0000       9.142347       248.7759 
 569   0.0000       9.186539       249.9784 
 570   0.0000       9.265428       252.1251 
 571   0.0000       9.339621       254.1440 
 572   0.0000       9.371509       255.0117 
 573   0.0000       9.417870       256.2733 
 574   0.0000       9.450391       257.1582 
 575   0.0000       9.520499       259.0660 
 576   0.0000       9.541428       259.6354 
 577   0.0000       9.580722       260.7047 
 578   0.0000       9.640408       262.3288 
 579   0.0000       9.654028       262.6995 
 580   0.0000       9.696978       263.8682 
 581   0.0000       9.746669       265.2204 
 582   0.0000       9.748156       265.2608 
 583   0.0000       9.785893       266.2877 
 584   0.0000       9.792996       266.4810 
 585   0.0000       9.835468       267.6367 
 586   0.0000       9.924163       270.0502 
 587   0.0000       9.931643       270.2537 
 588   0.0000       9.958494       270.9844 
 589   0.0000       9.976166       271.4653 
 590   0.0000       9.999122       272.0899 
 591   0.0000      10.017069       272.5783 
 592   0.0000      10.093772       274.6655 
 593   0.0000      10.172429       276.8059 
 594   0.0000      10.213562       277.9251 
 595   0.0000      10.215938       277.9898 
 596   0.0000      10.240352       278.6541 
 597   0.0000      10.294401       280.1249 
 598   0.0000      10.351876       281.6889 
 599   0.0000      10.460548       284.6460 
 600   0.0000      10.464088       284.7423 
 601   0.0000      10.603115       288.5254 
 602   0.0000      10.637024       289.4482 
 603   0.0000      10.653438       289.8948 
 604   0.0000      10.726286       291.8771 
 605   0.0000      10.778803       293.3061 
 606   0.0000      10.785669       293.4930 
 607   0.0000      10.789260       293.5907 
 608   0.0000      10.834799       294.8299 
 609   0.0000      10.846244       295.1413 
 610   0.0000      10.956758       298.1485 
 611   0.0000      10.959180       298.2144 
 612   0.0000      11.019144       299.8461 
 613   0.0000      11.043638       300.5127 
 614   0.0000      11.208832       305.0078 
 615   0.0000      11.303760       307.5909 
 616   0.0000      11.325828       308.1914 
 617   0.0000      11.340340       308.5863 
 618   0.0000      11.388589       309.8993 
 619   0.0000      11.452420       311.6362 
 620   0.0000      11.722146       318.9758 
 621   0.0000      11.724064       319.0280 
 622   0.0000      11.750587       319.7497 
 623   0.0000      11.761255       320.0400 
 624   0.0000      11.999188       326.5145 
 625   0.0000      12.029683       327.3443 
 626   0.0000      12.073961       328.5492 
 627   0.0000      12.082448       328.7801 
 628   0.0000      12.149736       330.6111 
 629   0.0000      12.164782       331.0205 
 630   0.0000      12.207200       332.1748 
 631   0.0000      12.307358       334.9002 
 632   0.0000      12.466500       339.2307 
 633   0.0000      12.553341       341.5938 
 634   0.0000      12.680414       345.0516 
 635   0.0000      12.852126       349.7241 
 636   0.0000      13.097753       356.4080 
 637   0.0000      13.201755       359.2380 
 638   0.0000      13.299920       361.9092 
 639   0.0000      13.567471       369.1897 
 640   0.0000      13.683880       372.3573 
 641   0.0000      14.119284       384.2053 
 642   0.0000      14.153987       385.1496 
 643   0.0000      15.061650       409.8483 
 644   0.0000      15.099896       410.8891 
 645   0.0000      27.832318       757.3559 
 646   0.0000      28.334230       771.0136 
 647   0.0000      28.476326       774.8802 
 648   0.0000      28.832114       784.5617 
 649   0.0000      28.945239       787.6400 
 650   0.0000      29.268933       796.4481 
 651   0.0000      37.629555      1023.9523 
 652   0.0000      48.078281      1308.2765 
 653   0.0000      48.145903      1310.1166 
 654   0.0000     146.897836      3997.2933 
 655   0.0000     147.380550      4010.4287 
 656   0.0000     147.524486      4014.3453 
 657   0.0000     147.837416      4022.8606 
 658   0.0000     147.948907      4025.8944 
 659   0.0000     148.298390      4035.4043 
 660   0.0000     196.913759      5358.2958 
 661   0.0000     253.099249      6887.1807 
 662   0.0000     253.171343      6889.1425 

                    ********************************
                    * MULLIKEN POPULATION ANALYSIS *
                    ********************************

-----------------------
MULLIKEN ATOMIC CHARGES
-----------------------
   0 C :    0.056030
   1 C :   -0.004947
   2 C :   -0.061954
   3 C :   -0.063085
   4 C :   -0.059096
   5 C :   -0.005646
   6 H :    0.097991
   7 H :    0.071812
   8 H :    0.068343
   9 H :    0.070770
  10 H :    0.097743
  11 N :    0.300083
  12 O :   -0.283937
  13 O :   -0.284106
Sum of atomic charges:    0.0000000

--------------------------------
MULLIKEN REDUCED ORBITAL CHARGES
--------------------------------
  0 C s       :     3.328524  s :     3.328524
      pz      :     1.012701  p :     2.492250
      px      :     0.807632
      py      :     0.671916
      dz2     :    -0.001241  d :     0.095323
      dxz     :     0.039227
      dyz     :     0.013885
      dx2y2   :     0.037449
      dxy     :     0.006003
      f0      :     0.002654  f :     0.025962
      f+1     :     0.000539
      f-1     :     0.001259
      f+2     :     0.001866
      f-2     :     0.003049
      f+3     :     0.010517
      f-3     :     0.006079
      g0      :     0.000079  g :     0.001912
      g+1     :     0.000175
      g-1     :     0.000127
      g+2     :     0.000183
      g-2     :     0.000121
      g+3     :     0.000076
      g-3     :     0.000214
      g+4     :     0.000491
      g-4     :     0.000446
  1 C s       :     3.335919  s :     3.335919
      pz      :     0.896945  p :     2.558054
      px      :     0.858431
      py      :     0.802678
      dz2     :     0.002141  d :     0.094493
      dxz     :     0.010088
      dyz     :     0.029200
      dx2y2   :     0.024537
      dxy     :     0.028527
      f0      :     0.001652  f :     0.015410
      f+1     :     0.000322
      f-1     :     0.000421
      f+2     :     0.001677
      f-2     :     0.002350
      f+3     :     0.005734
      f-3     :     0.003253
      g0      :     0.000048  g :     0.001072
      g+1     :     0.000087
      g-1     :     0.000146
      g+2     :     0.000051
      g-2     :     0.000080
      g+3     :     0.000040
      g-3     :     0.000125
      g+4     :     0.000248
      g-4     :     0.000246
  2 C s       :     3.320461  s :     3.320461
      pz      :     0.930590  p :     2.615032
      px      :     0.845055
      py      :     0.839388
      dz2     :     0.002073  d :     0.110054
      dxz     :     0.015420
      dyz     :     0.018976
      dx2y2   :     0.022285
      dxy     :     0.051301
      f0      :     0.001652  f :     0.015295
      f+1     :     0.000402
      f-1     :     0.000447
      f+2     :     0.002802
      f-2     :     0.000745
      f+3     :     0.006154
      f-3     :     0.003094
      g0      :     0.000047  g :     0.001111
      g+1     :     0.000093
      g-1     :     0.000111
      g+2     :     0.000089
      g-2     :     0.000052
      g+3     :     0.000042
      g-3     :     0.000122
      g+4     :     0.000290
      g-4     :     0.000265
  3 C s       :     3.326328  s :     3.326328
      pz      :     0.906355  p :     2.609571
      px      :     0.837761
      py      :     0.865456
      dz2     :     0.002239  d :     0.110581
      dxz     :     0.029356
      dyz     :     0.007499
      dx2y2   :     0.046260
      dxy     :     0.025227
      f0      :     0.001634  f :     0.015496
      f+1     :     0.000473
      f-1     :     0.000359
      f+2     :     0.000869
      f-2     :     0.002721
      f+3     :     0.006293
      f-3     :     0.003148
      g0      :     0.000045  g :     0.001109
      g+1     :     0.000145
      g-1     :     0.000064
      g+2     :     0.000053
      g-2     :     0.000083
      g+3     :     0.000039
      g-3     :     0.000121
      g+4     :     0.000285
      g-4     :     0.000273
  4 C s       :     3.318760  s :     3.318760
      pz      :     0.930540  p :     2.613855
      px      :     0.858776
      py      :     0.824539
      dz2     :     0.002033  d :     0.110089
      dxz     :     0.009388
      dyz     :     0.024999
      dx2y2   :     0.037620
      dxy     :     0.036051
      f0      :     0.001651  f :     0.015280
      f+1     :     0.000378
      f-1     :     0.000478
      f+2     :     0.001566
      f-2     :     0.001975
      f+3     :     0.006136
      f-3     :     0.003097
      g0      :     0.000047  g :     0.001112
      g+1     :     0.000071
      g-1     :     0.000133
      g+2     :     0.000067
      g-2     :     0.000074
      g+3     :     0.000038
      g-3     :     0.000125
      g+4     :     0.000260
      g-4     :     0.000297
  5 C s       :     3.336456  s :     3.336456
      pz      :     0.896888  p :     2.558517
      px      :     0.825533
      py      :     0.836097
      dz2     :     0.002132  d :     0.094159
      dxz     :     0.016649
      dyz     :     0.022610
      dx2y2   :     0.018787
      dxy     :     0.033980
      f0      :     0.001653  f :     0.015442
      f+1     :     0.000422
      f-1     :     0.000312
      f+2     :     0.003085
      f-2     :     0.000946
      f+3     :     0.006302
      f-3     :     0.002722
      g0      :     0.000048  g :     0.001072
      g+1     :     0.000116
      g-1     :     0.000118
      g+2     :     0.000077
      g-2     :     0.000054
      g+3     :     0.000042
      g-3     :     0.000124
      g+4     :     0.000240
      g-4     :     0.000253
  6 H s       :     0.859994  s :     0.859994
      pz      :     0.014145  p :     0.036405
      px      :     0.006750
      py      :     0.015510
      dz2     :     0.000128  d :     0.005306
      dxz     :     0.001724
      dyz     :     0.000393
      dx2y2   :     0.001649
      dxy     :     0.001412
      f0      :     0.000053  f :     0.000303
      f+1     :     0.000011
      f-1     :     0.000010
      f+2     :     0.000041
      f-2     :     0.000040
      f+3     :     0.000110
      f-3     :     0.000039
  7 H s       :     0.889718  s :     0.889718
      pz      :     0.016099  p :     0.033416
      px      :     0.008608
      py      :     0.008708
      dz2     :     0.000145  d :     0.004766
      dxz     :     0.001240
      dyz     :     0.000893
      dx2y2   :     0.002062
      dxy     :     0.000428
      f0      :     0.000056  f :     0.000288
      f+1     :     0.000009
      f-1     :     0.000009
      f+2     :     0.000005
      f-2     :     0.000074
      f+3     :     0.000092
      f-3     :     0.000043
  8 H s       :     0.893176  s :     0.893176
      pz      :     0.015508  p :     0.033465
      px      :     0.011452
      py      :     0.006505
      dz2     :     0.000137  d :     0.004731
      dxz     :     0.000115
      dyz     :     0.001924
      dx2y2   :     0.000589
      dxy     :     0.001967
      f0      :     0.000053  f :     0.000285
      f+1     :     0.000008
      f-1     :     0.000010
      f+2     :     0.000066
      f-2     :     0.000011
      f+3     :     0.000093
      f-3     :     0.000044
  9 H s       :     0.890605  s :     0.890605
      pz      :     0.016106  p :     0.033553
      px      :     0.007178
      py      :     0.010269
      dz2     :     0.000146  d :     0.004783
      dxz     :     0.001825
      dyz     :     0.000306
      dx2y2   :     0.001143
      dxy     :     0.001362
      f0      :     0.000056  f :     0.000289
      f+1     :     0.000010
      f-1     :     0.000009
      f+2     :     0.000045
      f-2     :     0.000034
      f+3     :     0.000093
      f-3     :     0.000042
 10 H s       :     0.860252  s :     0.860252
      pz      :     0.014140  p :     0.036404
      px      :     0.006775
      py      :     0.015489
      dz2     :     0.000127  d :     0.005299
      dxz     :     0.001126
      dyz     :     0.000994
      dx2y2   :     0.002349
      dxy     :     0.000703
      f0      :     0.000053  f :     0.000303
      f+1     :     0.000010
      f-1     :     0.000010
      f+2     :     0.000004
      f-2     :     0.000077
      f+3     :     0.000095
      f-3     :     0.000054
 11 N s       :     3.404194  s :     3.404194
      pz      :     1.106036  p :     3.036753
      px      :     0.873481
      py      :     1.057237
      dz2     :     0.007335  d :     0.229000
      dxz     :     0.069474
      dyz     :     0.022113
      dx2y2   :     0.062591
      dxy     :     0.067488
      f0      :     0.002161  f :     0.027510
      f+1     :     0.001305
      f-1     :     0.000962
      f+2     :     0.002123
      f-2     :     0.004084
      f+3     :     0.011332
      f-3     :     0.005543
      g0      :     0.000072  g :     0.002460
      g+1     :     0.000357
      g-1     :     0.000089
      g+2     :     0.000168
      g-2     :     0.000199
      g+3     :     0.000080
      g-3     :     0.000246
      g+4     :     0.000635
      g-4     :     0.000614
 12 O s       :     3.850088  s :     3.850088
      pz      :     1.410367  p :     4.382354
      px      :     1.183717
      py      :     1.788270
      dz2     :     0.004145  d :     0.045171
      dxz     :     0.013888
      dyz     :     0.002204
      dx2y2   :     0.012940
      dxy     :     0.011994
      f0      :     0.000690  f :     0.005978
      f+1     :     0.000639
      f-1     :     0.000120
      f+2     :     0.000982
      f-2     :     0.000503
      f+3     :     0.001569
      f-3     :     0.001474
      g0      :     0.000022  g :     0.000347
      g+1     :     0.000056
      g-1     :     0.000006
      g+2     :     0.000035
      g-2     :     0.000022
      g+3     :     0.000018
      g-3     :     0.000032
      g+4     :     0.000072
      g-4     :     0.000083
 13 O s       :     3.850035  s :     3.850035
      pz      :     1.410561  p :     4.382571
      px      :     1.380112
      py      :     1.591897
      dz2     :     0.004149  d :     0.045175
      dxz     :     0.009602
      dyz     :     0.006484
      dx2y2   :     0.011592
      dxy     :     0.013349
      f0      :     0.000690  f :     0.005978
      f+1     :     0.000485
      f-1     :     0.000275
      f+2     :     0.000169
      f-2     :     0.001316
      f+3     :     0.001541
      f-3     :     0.001503
      g0      :     0.000022  g :     0.000347
      g+1     :     0.000039
      g-1     :     0.000023
      g+2     :     0.000012
      g-2     :     0.000046
      g+3     :     0.000007
      g-3     :     0.000043
      g+4     :     0.000079
      g-4     :     0.000077


                     *******************************
                     * LOEWDIN POPULATION ANALYSIS *
                     *******************************

----------------------
LOEWDIN ATOMIC CHARGES
----------------------
   0 C :   -0.187751
   1 C :    0.088215
   2 C :    0.076420
   3 C :    0.081774
   4 C :    0.076486
   5 C :    0.088063
   6 H :   -0.049202
   7 H :   -0.051193
   8 H :   -0.050291
   9 H :   -0.051235
  10 H :   -0.049188
  11 N :   -0.280767
  12 O :    0.154418
  13 O :    0.154252

-------------------------------
LOEWDIN REDUCED ORBITAL CHARGES
-------------------------------
  0 C s       :     2.597735  s :     2.597735
      pz      :     0.834822  p :     2.719328
      px      :     1.043208
      py      :     0.841298
      dz2     :     0.060881  d :     0.675226
      dxz     :     0.105229
      dyz     :     0.068758
      dx2y2   :     0.245599
      dxy     :     0.194758
      f0      :     0.011960  f :     0.177430
      f+1     :     0.009065
      f-1     :     0.014217
      f+2     :     0.017589
      f-2     :     0.021389
      f+3     :     0.062668
      f-3     :     0.040541
      g0      :     0.000628  g :     0.018032
      g+1     :     0.001635
      g-1     :     0.001600
      g+2     :     0.002156
      g-2     :     0.001545
      g+3     :     0.000487
      g-3     :     0.001297
      g+4     :     0.004517
      g-4     :     0.004167
  1 C s       :     2.592885  s :     2.592885
      pz      :     0.743295  p :     2.697784
      px      :     0.958030
      py      :     0.996459
      dz2     :     0.038810  d :     0.495606
      dxz     :     0.033871
      dyz     :     0.089192
      dx2y2   :     0.157442
      dxy     :     0.176292
      f0      :     0.006844  f :     0.113882
      f+1     :     0.006887
      f-1     :     0.007706
      f+2     :     0.012007
      f-2     :     0.016676
      f+3     :     0.039814
      f-3     :     0.023948
      g0      :     0.000382  g :     0.011627
      g+1     :     0.000876
      g-1     :     0.001482
      g+2     :     0.001103
      g-2     :     0.001346
      g+3     :     0.000272
      g-3     :     0.000722
      g+4     :     0.002176
      g-4     :     0.003268
  2 C s       :     2.595252  s :     2.595252
      pz      :     0.767285  p :     2.713337
      px      :     0.970536
      py      :     0.975516
      dz2     :     0.037622  d :     0.493636
      dxz     :     0.048821
      dyz     :     0.060931
      dx2y2   :     0.143168
      dxy     :     0.203094
      f0      :     0.006230  f :     0.110131
      f+1     :     0.007034
      f-1     :     0.007204
      f+2     :     0.019304
      f-2     :     0.005652
      f+3     :     0.040413
      f-3     :     0.024295
      g0      :     0.000361  g :     0.011224
      g+1     :     0.000935
      g-1     :     0.001091
      g+2     :     0.001259
      g-2     :     0.001237
      g+3     :     0.000233
      g-3     :     0.000635
      g+4     :     0.003283
      g-4     :     0.002189
  3 C s       :     2.597397  s :     2.597397
      pz      :     0.747513  p :     2.700820
      px      :     1.001195
      py      :     0.952112
      dz2     :     0.038061  d :     0.498859
      dxz     :     0.093044
      dyz     :     0.022360
      dx2y2   :     0.197622
      dxy     :     0.147773
      f0      :     0.006141  f :     0.110036
      f+1     :     0.007482
      f-1     :     0.006672
      f+2     :     0.006832
      f-2     :     0.018909
      f+3     :     0.039962
      f-3     :     0.024038
      g0      :     0.000354  g :     0.011115
      g+1     :     0.001446
      g-1     :     0.000654
      g+2     :     0.001228
      g-2     :     0.001234
      g+3     :     0.000218
      g-3     :     0.000630
      g+4     :     0.002829
      g-4     :     0.002522
  4 C s       :     2.595227  s :     2.595227
      pz      :     0.767269  p :     2.713308
      px      :     0.955515
      py      :     0.990525
      dz2     :     0.037621  d :     0.493625
      dxz     :     0.028966
      dyz     :     0.080782
      dx2y2   :     0.178031
      dxy     :     0.168225
      f0      :     0.006231  f :     0.110129
      f+1     :     0.006797
      f-1     :     0.007441
      f+2     :     0.011535
      f-2     :     0.013417
      f+3     :     0.040420
      f-3     :     0.024288
      g0      :     0.000361  g :     0.011225
      g+1     :     0.000723
      g-1     :     0.001302
      g+2     :     0.001248
      g-2     :     0.001249
      g+3     :     0.000216
      g-3     :     0.000653
      g+4     :     0.002033
      g-4     :     0.003439
  5 C s       :     2.592850  s :     2.592850
      pz      :     0.743230  p :     2.697796
      px      :     0.964468
      py      :     0.990098
      dz2     :     0.038824  d :     0.495731
      dxz     :     0.056886
      dyz     :     0.066208
      dx2y2   :     0.144053
      dxy     :     0.189760
      f0      :     0.006847  f :     0.113927
      f+1     :     0.007254
      f-1     :     0.007342
      f+2     :     0.022146
      f-2     :     0.006549
      f+3     :     0.038240
      f-3     :     0.025549
      g0      :     0.000382  g :     0.011633
      g+1     :     0.001177
      g-1     :     0.001182
      g+2     :     0.001196
      g-2     :     0.001254
      g+3     :     0.000261
      g-3     :     0.000733
      g+4     :     0.003172
      g-4     :     0.002275
  6 H s       :     0.782778  s :     0.782778
      pz      :     0.048705  p :     0.192624
      px      :     0.086845
      py      :     0.057074
      dz2     :     0.004889  d :     0.064522
      dxz     :     0.016582
      dyz     :     0.003217
      dx2y2   :     0.020617
      dxy     :     0.019218
      f0      :     0.000975  f :     0.009278
      f+1     :     0.000906
      f-1     :     0.000349
      f+2     :     0.000882
      f-2     :     0.000813
      f+3     :     0.003111
      f-3     :     0.002242
  7 H s       :     0.794050  s :     0.794050
      pz      :     0.051775  p :     0.185417
      px      :     0.071543
      py      :     0.062099
      dz2     :     0.004717  d :     0.062577
      dxz     :     0.011681
      dyz     :     0.008209
      dx2y2   :     0.023343
      dxy     :     0.014628
      f0      :     0.000996  f :     0.009149
      f+1     :     0.000667
      f-1     :     0.000536
      f+2     :     0.000086
      f-2     :     0.001601
      f+3     :     0.002980
      f-3     :     0.002283
  8 H s       :     0.794509  s :     0.794509
      pz      :     0.049935  p :     0.184448
      px      :     0.043553
      py      :     0.090960
      dz2     :     0.004717  d :     0.062233
      dxz     :     0.000827
      dyz     :     0.018441
      dx2y2   :     0.015452
      dxy     :     0.022796
      f0      :     0.000962  f :     0.009101
      f+1     :     0.000258
      f-1     :     0.000945
      f+2     :     0.001423
      f-2     :     0.000210
      f+3     :     0.003015
      f-3     :     0.002287
  9 H s       :     0.794075  s :     0.794075
      pz      :     0.051781  p :     0.185428
      px      :     0.086002
      py      :     0.047645
      dz2     :     0.004717  d :     0.062581
      dxz     :     0.017277
      dyz     :     0.002613
      dx2y2   :     0.018314
      dxy     :     0.019659
      f0      :     0.000996  f :     0.009151
      f+1     :     0.000879
      f-1     :     0.000324
      f+2     :     0.000964
      f-2     :     0.000724
      f+3     :     0.002991
      f-3     :     0.002273
 10 H s       :     0.782700  s :     0.782700
      pz      :     0.048690  p :     0.192676
      px      :     0.070586
      py      :     0.073400
      dz2     :     0.004890  d :     0.064534
      dxz     :     0.010783
      dyz     :     0.009015
      dx2y2   :     0.024308
      dxy     :     0.015538
      f0      :     0.000975  f :     0.009277
      f+1     :     0.000678
      f-1     :     0.000577
      f+2     :     0.000067
      f-2     :     0.001627
      f+3     :     0.002963
      f-3     :     0.002390
 11 N s       :     2.780263  s :     2.780263
      pz      :     0.954697  p :     3.228839
      px      :     1.141911
      py      :     1.132231
      dz2     :     0.069661  d :     1.030798
      dxz     :     0.214665
      dyz     :     0.075361
      dx2y2   :     0.358735
      dxy     :     0.312375
      f0      :     0.006181  f :     0.221269
      f+1     :     0.015683
      f-1     :     0.007414
      f+2     :     0.016657
      f-2     :     0.035610
      f+3     :     0.089079
      f-3     :     0.050645
      g0      :     0.000572  g :     0.019600
      g+1     :     0.004279
      g-1     :     0.000877
      g+2     :     0.002177
      g-2     :     0.002192
      g+3     :     0.000278
      g-3     :     0.000723
      g+4     :     0.004510
      g-4     :     0.003992
 12 O s       :     3.352781  s :     3.352781
      pz      :     1.319345  p :     4.307363
      px      :     1.362639
      py      :     1.625380
      dz2     :     0.017904  d :     0.146821
      dxz     :     0.032255
      dyz     :     0.003436
      dx2y2   :     0.046571
      dxy     :     0.046654
      f0      :     0.003776  f :     0.036174
      f+1     :     0.004176
      f-1     :     0.001201
      f+2     :     0.004762
      f-2     :     0.001988
      f+3     :     0.010461
      f-3     :     0.009810
      g0      :     0.000125  g :     0.002442
      g+1     :     0.000341
      g-1     :     0.000031
      g+2     :     0.000216
      g-2     :     0.000164
      g+3     :     0.000133
      g-3     :     0.000171
      g+4     :     0.000704
      g-4     :     0.000557
 13 O s       :     3.352889  s :     3.352889
      pz      :     1.319551  p :     4.307488
      px      :     1.453011
      py      :     1.534926
      dz2     :     0.017903  d :     0.146773
      dxz     :     0.023276
      dyz     :     0.012401
      dx2y2   :     0.040312
      dxy     :     0.052881
      f0      :     0.003774  f :     0.036158
      f+1     :     0.003167
      f-1     :     0.002210
      f+2     :     0.000871
      f-2     :     0.005876
      f+3     :     0.011383
      f-3     :     0.008878
      g0      :     0.000125  g :     0.002441
      g+1     :     0.000245
      g-1     :     0.000127
      g+2     :     0.000115
      g-2     :     0.000265
      g+3     :     0.000034
      g-3     :     0.000269
      g+4     :     0.000578
      g-4     :     0.000682


                      *****************************
                      * MAYER POPULATION ANALYSIS *
                      *****************************

  NA   - Mulliken gross atomic population
  ZA   - Total nuclear charge
  QA   - Mulliken gross atomic charge
  VA   - Mayer's total valence
  BVA  - Mayer's bonded valence
  FA   - Mayer's free valence

  ATOM       NA         ZA         QA         VA         BVA        FA
  0 C      5.9440     6.0000     0.0560     3.5456     3.5456    -0.0000
  1 C      6.0049     6.0000    -0.0049     3.7123     3.7123     0.0000
  2 C      6.0620     6.0000    -0.0620     3.7805     3.7805     0.0000
  3 C      6.0631     6.0000    -0.0631     3.8182     3.8182     0.0000
  4 C      6.0591     6.0000    -0.0591     3.7785     3.7785     0.0000
  5 C      6.0056     6.0000    -0.0056     3.7128     3.7128    -0.0000
  6 H      0.9020     1.0000     0.0980     1.0074     1.0074     0.0000
  7 H      0.9282     1.0000     0.0718     0.9977     0.9977     0.0000
  8 H      0.9317     1.0000     0.0683     0.9978     0.9978    -0.0000
  9 H      0.9292     1.0000     0.0708     0.9979     0.9979    -0.0000
 10 H      0.9023     1.0000     0.0977     1.0072     1.0072    -0.0000
 11 N      6.6999     7.0000     0.3001     4.1276     4.1276     0.0000
 12 O      8.2839     8.0000    -0.2839     1.9788     1.9788     0.0000
 13 O      8.2841     8.0000    -0.2841     1.9789     1.9789    -0.0000

  Mayer bond orders larger than 0.100000
B(  0-C ,  1-C ) :   1.2411 B(  0-C ,  5-C ) :   1.2421 B(  0-C , 11-N ) :   0.8835 
B(  1-C ,  2-C ) :   1.3275 B(  1-C ,  6-H ) :   0.9487 B(  2-C ,  3-C ) :   1.3236 
B(  2-C ,  7-H ) :   0.9674 B(  3-C ,  4-C ) :   1.3225 B(  3-C ,  8-H ) :   0.9658 
B(  4-C ,  5-C ) :   1.3265 B(  4-C ,  9-H ) :   0.9675 B(  5-C , 10-H ) :   0.9489 
B( 11-N , 12-O ) :   1.6160 B( 11-N , 13-O ) :   1.6162 B( 12-O , 13-O ) :   0.2397 


-------
TIMINGS
-------

Total SCF time: 0 days 0 hours 53 min 42 sec 

Total time                  ....    3222.408 sec
Sum of individual times     ....    3156.072 sec  ( 97.9%)

Fock matrix formation       ....    3060.139 sec  ( 95.0%)
  Split-RI-J                ....     187.627 sec  (  6.1% of F)
  Chain of spheres X        ....    2532.290 sec  ( 82.8% of F)
  XC integration            ....     286.328 sec  (  9.4% of F)
    Basis function eval.    ....      55.664 sec  ( 19.4% of XC)
    Density eval.           ....     104.601 sec  ( 36.5% of XC)
    XC-Functional eval.     ....       3.313 sec  (  1.2% of XC)
    XC-Potential eval.      ....     113.179 sec  ( 39.5% of XC)
Diagonalization             ....       3.756 sec  (  0.1%)
Density matrix formation    ....       0.440 sec  (  0.0%)
Population analysis         ....       0.336 sec  (  0.0%)
Initial guess               ....      21.531 sec  (  0.7%)
Orbital Transformation      ....       0.000 sec  (  0.0%)
Orbital Orthonormalization  ....       0.000 sec  (  0.0%)
DIIS solution               ....      33.973 sec  (  1.1%)
SOSCF solution              ....       2.725 sec  (  0.1%)
Grid generation             ....      33.172 sec  (  1.0%)

Maximum memory used throughout the entire SCF-calculation: 733.3 MB

-------------------------   --------------------
FINAL SINGLE POINT ENERGY      -436.716045206732
-------------------------   --------------------


                            ***************************************
                            *     ORCA property calculations      *
                            ***************************************

                                    ---------------------
                                    Active property flags
                                    ---------------------
   (+) Dipole Moment


------------------------------------------------------------------------------
                       ORCA ELECTRIC PROPERTIES CALCULATION
------------------------------------------------------------------------------

Dipole Moment Calculation                       ... on
Quadrupole Moment Calculation                   ... off
Polarizability Calculation                      ... off
GBWName                                         ... netural.gbw
Electron density                                ... netural.scfp
The origin for moment calculation is the CENTER OF MASS  = (-10.254167,  3.358331  0.000004)

-------------
DIPOLE MOMENT
-------------
                                X             Y             Z
Electronic contribution:     -1.00511       5.86504      -0.00001
Nuclear contribution   :      1.31383      -7.66954      -0.00001
                        -----------------------------------------
Total Dipole Moment    :      0.30871      -1.80450      -0.00003
                        -----------------------------------------
Magnitude (a.u.)       :      1.83072
Magnitude (Debye)      :      4.65331



--------------------
Rotational spectrum 
--------------------
 
Rotational constants in cm-1:     0.132276     0.042761     0.032315 
Rotational constants in MHz :  3965.541854  1281.952840   968.774232 

 Dipole components along the rotational axes: 
x,y,z [a.u.] :    -1.830717    -0.000364    -0.000020 
x,y,z [Debye]:    -4.653314    -0.000926    -0.000050 

 

Timings for individual modules:

Sum of individual times         ...     3242.884 sec (=  54.048 min)
GTO integral calculation        ...       18.511 sec (=   0.309 min)   0.6 %
SCF iterations                  ...     3224.373 sec (=  53.740 min)  99.4 %
                             ****ORCA TERMINATED NORMALLY****
TOTAL RUN TIME: 0 days 0 hours 54 minutes 6 seconds 485 msec
