
                                 *****************
                                 * O   R   C   A *
                                 *****************

                                            #,                                       
                                            ###                                      
                                            ####                                     
                                            #####                                    
                                            ######                                   
                                           ########,                                 
                                     ,,################,,,,,                         
                               ,,#################################,,                 
                          ,,##########################################,,             
                       ,#########################################, ''#####,          
                    ,#############################################,,   '####,        
                  ,##################################################,,,,####,       
                ,###########''''           ''''###############################       
              ,#####''   ,,,,##########,,,,          '''####'''          '####       
            ,##' ,,,,###########################,,,                        '##       
           ' ,,###''''                  '''############,,,                           
         ,,##''                                '''############,,,,        ,,,,,,###''
      ,#''                                            '''#######################'''  
     '                                                          ''''####''''         
             ,#######,   #######,   ,#######,      ##                                
            ,#'     '#,  ##    ##  ,#'     '#,    #''#        ######   ,####,        
            ##       ##  ##   ,#'  ##            #'  '#       #        #'  '#        
            ##       ##  #######   ##           ,######,      #####,   #    #        
            '#,     ,#'  ##    ##  '#,     ,#' ,#      #,         ##   #,  ,#        
             '#######'   ##     ##  '#######'  #'      '#     #####' # '####'        



                  #######################################################
                  #                        -***-                        #
                  #          Department of theory and spectroscopy      #
                  #    Directorship and core code : Frank Neese         #
                  #        Max Planck Institute fuer Kohlenforschung    #
                  #                Kaiser Wilhelm Platz 1               #
                  #                 D-45470 Muelheim/Ruhr               #
                  #                      Germany                        #
                  #                                                     #
                  #                  All rights reserved                #
                  #                        -***-                        #
                  #######################################################



                         Program Version 5.0.4 -  RELEASE  -

 With contributions from (in alphabetic order):
   Daniel Aravena         : Magnetic Suceptibility
   Michael Atanasov       : Ab Initio Ligand Field Theory (pilot matlab implementation)
   Alexander A. Auer      : GIAO ZORA, VPT2 properties, NMR spectrum
   Ute Becker             : Parallelization
   Giovanni Bistoni       : ED, misc. LED, open-shell LED, HFLD
   Martin Brehm           : Molecular dynamics
   Dmytro Bykov           : SCF Hessian
   Vijay G. Chilkuri      : MRCI spin determinant printing, contributions to CSF-ICE
   Dipayan Datta          : RHF DLPNO-CCSD density
   Achintya Kumar Dutta   : EOM-CC, STEOM-CC
   Dmitry Ganyushin       : Spin-Orbit,Spin-Spin,Magnetic field MRCI
   Miquel Garcia          : C-PCM and meta-GGA Hessian, CC/C-PCM, Gaussian charge scheme
   Yang Guo               : DLPNO-NEVPT2, F12-NEVPT2, CIM, IAO-localization
   Andreas Hansen         : Spin unrestricted coupled pair/coupled cluster methods
   Benjamin Helmich-Paris : MC-RPA, TRAH-SCF, COSX integrals
   Lee Huntington         : MR-EOM, pCC
   Robert Izsak           : Overlap fitted RIJCOSX, COSX-SCS-MP3, EOM
   Marcus Kettner         : VPT2
   Christian Kollmar      : KDIIS, OOCD, Brueckner-CCSD(T), CCSD density, CASPT2, CASPT2-K
   Simone Kossmann        : Meta GGA functionals, TD-DFT gradient, OOMP2, MP2 Hessian
   Martin Krupicka        : Initial AUTO-CI
   Lucas Lang             : DCDCAS
   Marvin Lechner         : AUTO-CI (C++ implementation), FIC-MRCC
   Dagmar Lenk            : GEPOL surface, SMD
   Dimitrios Liakos       : Extrapolation schemes; Compound Job, initial MDCI parallelization
   Dimitrios Manganas     : Further ROCIS development; embedding schemes
   Dimitrios Pantazis     : SARC Basis sets
   Anastasios Papadopoulos: AUTO-CI, single reference methods and gradients
   Taras Petrenko         : DFT Hessian,TD-DFT gradient, ASA, ECA, R-Raman, ABS, FL, XAS/XES, NRVS
   Peter Pinski           : DLPNO-MP2, DLPNO-MP2 Gradient
   Christoph Reimann      : Effective Core Potentials
   Marius Retegan         : Local ZFS, SOC
   Christoph Riplinger    : Optimizer, TS searches, QM/MM, DLPNO-CCSD(T), (RO)-DLPNO pert. Triples
   Tobias Risthaus        : Range-separated hybrids, TD-DFT gradient, RPA, STAB
   Michael Roemelt        : Original ROCIS implementation
   Masaaki Saitow         : Open-shell DLPNO-CCSD energy and density
   Barbara Sandhoefer     : DKH picture change effects
   Avijit Sen             : IP-ROCIS
   Kantharuban Sivalingam : CASSCF convergence, NEVPT2, FIC-MRCI
   Bernardo de Souza      : ESD, SOC TD-DFT
   Georgi Stoychev        : AutoAux, RI-MP2 NMR, DLPNO-MP2 response
   Willem Van den Heuvel  : Paramagnetic NMR
   Boris Wezisla          : Elementary symmetry handling
   Frank Wennmohs         : Technical directorship


 We gratefully acknowledge several colleagues who have allowed us to
 interface, adapt or use parts of their codes:
   Stefan Grimme, W. Hujo, H. Kruse, P. Pracht,  : VdW corrections, initial TS optimization,
                  C. Bannwarth, S. Ehlert          DFT functionals, gCP, sTDA/sTD-DF
   Ed Valeev, F. Pavosevic, A. Kumar             : LibInt (2-el integral package), F12 methods
   Garnet Chan, S. Sharma, J. Yang, R. Olivares  : DMRG
   Ulf Ekstrom                                   : XCFun DFT Library
   Mihaly Kallay                                 : mrcc  (arbitrary order and MRCC methods)
   Jiri Pittner, Ondrej Demel                    : Mk-CCSD
   Frank Weinhold                                : gennbo (NPA and NBO analysis)
   Christopher J. Cramer and Donald G. Truhlar   : smd solvation model
   Lars Goerigk                                  : TD-DFT with DH, B97 family of functionals
   V. Asgeirsson, H. Jonsson                     : NEB implementation
   FAccTs GmbH                                   : IRC, NEB, NEB-TS, DLPNO-Multilevel, CI-OPT
                                                   MM, QMMM, 2- and 3-layer-ONIOM, Crystal-QMMM,
                                                   LR-CPCM, SF, NACMEs, symmetry and pop. for TD-DFT,
                                                   nearIR, NL-DFT gradient (VV10), updates on ESD,
                                                   ML-optimized integration grids
   S Lehtola, MJT Oliveira, MAL Marques          : LibXC Library
   Liviu Ungur et al                             : ANISO software


 Your calculation uses the libint2 library for the computation of 2-el integrals
 For citations please refer to: http://libint.valeyev.net

 Your ORCA version has been built with support for libXC version: 5.1.0
 For citations please refer to: https://tddft.org/programs/libxc/

 This ORCA versions uses:
   CBLAS   interface :  Fast vector & matrix operations
   LAPACKE interface :  Fast linear algebra routines
   Shared memory     :  Shared parallel matrices


================================================================================

----- Orbital basis set information -----
Your calculation utilizes the basis: def2-TZVP
   F. Weigend and R. Ahlrichs, Phys. Chem. Chem. Phys. 7, 3297 (2005).

----- AuxJ basis set information -----
Your calculation utilizes the auxiliary basis: def2/J
   F. Weigend, Phys. Chem. Chem. Phys. 8, 1057 (2006).

================================================================================
                                        WARNINGS
                       Please study these warnings very carefully!
================================================================================



WARNING: Found flag for RIJCOSX approximation but no HF exchange needed!
  ===> : RIJCOSX  will be disabled and Split-RI-J is turned on
INFO   : Checking CIS options ...

WARNING: CIS/ROCIS methods need fully converged wavefunctions
  ===> : Setting SCFConvForced true
         You can overwrite this default with %scf ConvForced false 


INFO   : the flag for use of the SHARK integral package has been found!

================================================================================
                                       INPUT FILE
================================================================================
NAME = tddft.inp
|  1> !BP86 def2-TZVP def2/J TIGHTSCF RIJCOSX
|  2> 
|  3> %maxCore 2000
|  4> 
|  5> %tddft
|  6> nroots 150
|  7> maxdim 5
|  8> donto true
|  9> end
| 10> 
| 11> * xyz 0 1
| 12>   C   -4.88569336155230      2.98207060676121      0.04333537261272
| 13>   C   -6.14959695789773      2.35864301241116      0.02758592588736
| 14>   C   -6.25559380286015      0.96845232728990     -0.00121869885868
| 15>   C   -5.11290643775582      0.16234415122468     -0.01440284580436
| 16>   C   -3.85586007858743      0.77497453451715      0.00208204091935
| 17>   C   -3.73800009771254      2.16417133781313      0.03090801634500
| 18>   H   -7.05256446988853      2.97652953111245      0.03476026878305
| 19>   H   -7.24815752893036      0.50936420781894     -0.01176333836965
| 20>   H   -5.20066374355790     -0.92621478272232     -0.03568755561573
| 21>   H   -2.94935247147236      0.16323446923219     -0.00589977089820
| 22>   H   -2.74782466200470      2.62955680400795      0.04054469739011
| 23>   N   -4.77400026474504      4.36582607320833      0.02173325533785
| 24>   H   -5.57985384924347      4.88619583261605      0.34871705822918
| 25>   H   -3.89604227379165      4.75045189470918      0.35073557404198
| 26> *
| 27> 
| 28>                          ****END OF INPUT****
================================================================================

                       ****************************
                       * Single Point Calculation *
                       ****************************

---------------------------------
CARTESIAN COORDINATES (ANGSTROEM)
---------------------------------
  C     -4.885693    2.982071    0.043335
  C     -6.149597    2.358643    0.027586
  C     -6.255594    0.968452   -0.001219
  C     -5.112906    0.162344   -0.014403
  C     -3.855860    0.774975    0.002082
  C     -3.738000    2.164171    0.030908
  H     -7.052564    2.976530    0.034760
  H     -7.248158    0.509364   -0.011763
  H     -5.200664   -0.926215   -0.035688
  H     -2.949352    0.163234   -0.005900
  H     -2.747825    2.629557    0.040545
  N     -4.774000    4.365826    0.021733
  H     -5.579854    4.886196    0.348717
  H     -3.896042    4.750452    0.350736

----------------------------
CARTESIAN COORDINATES (A.U.)
----------------------------
  NO LB      ZA    FRAG     MASS         X           Y           Z
   0 C     6.0000    0    12.011   -9.232622    5.635297    0.081892
   1 C     6.0000    0    12.011  -11.621054    4.457189    0.052130
   2 C     6.0000    0    12.011  -11.821359    1.830110   -0.002303
   3 C     6.0000    0    12.011   -9.661993    0.306786   -0.027217
   4 C     6.0000    0    12.011   -7.286520    1.464490    0.003934
   5 C     6.0000    0    12.011   -7.063796    4.089691    0.058408
   6 H     1.0000    0     1.008  -13.327415    5.624826    0.065687
   7 H     1.0000    0     1.008  -13.697033    0.962559   -0.022229
   8 H     1.0000    0     1.008   -9.827830   -1.750292   -0.067440
   9 H     1.0000    0     1.008   -5.573468    0.308468   -0.011149
  10 H     1.0000    0     1.008   -5.192636    4.969142    0.076618
  11 N     7.0000    0    14.007   -9.021553    8.250216    0.041070
  12 H     1.0000    0     1.008  -10.544396    9.233572    0.658980
  13 H     1.0000    0     1.008   -7.362453    8.977053    0.662794

--------------------------------
INTERNAL COORDINATES (ANGSTROEM)
--------------------------------
 C      0   0   0     0.000000000000     0.00000000     0.00000000
 C      1   0   0     1.409383663636     0.00000000     0.00000000
 C      2   1   0     1.394523280030   120.62124987     0.00000000
 C      3   2   1     1.398470102512   120.84505814     0.03409859
 C      4   3   2     1.398482494392   118.80549324     0.00000000
 C      5   4   3     1.394485449992   120.83857368     0.00000000
 H      2   1   3     1.094159745604   119.35417300   180.20519390
 H      3   2   1     1.093643379339   119.18675301   179.92817755
 H      4   3   2     1.092298007079   120.59622984   179.92176950
 H      5   4   3     1.093638723963   119.99578905   179.88486531
 H      6   5   4     1.094131569440   120.02673924   180.18119945
 N      1   2   3     1.388423995135   120.85195132   177.58252821
 H     12   1   2     1.013460948191   116.27916399    22.84360398
 H     12   1   2     1.013405043483   116.28935887   159.57318851

---------------------------
INTERNAL COORDINATES (A.U.)
---------------------------
 C      0   0   0     0.000000000000     0.00000000     0.00000000
 C      1   0   0     2.663349141895     0.00000000     0.00000000
 C      2   1   0     2.635267086635   120.62124987     0.00000000
 C      3   2   1     2.642725500224   120.84505814     0.03409859
 C      4   3   2     2.642748917485   118.80549324     0.00000000
 C      5   4   3     2.635195598222   120.83857368     0.00000000
 H      2   1   3     2.067662265952   119.35417300   180.20519390
 H      3   2   1     2.066686475127   119.18675301   179.92817755
 H      4   3   2     2.064144090008   120.59622984   179.92176950
 H      5   4   3     2.066677677742   119.99578905   179.88486531
 H      6   5   4     2.067609020720   120.02673924   180.18119945
 N      1   2   3     2.623741108571   120.85195132   177.58252821
 H     12   1   2     1.915163639505   116.27916399    22.84360398
 H     12   1   2     1.915057994917   116.28935887   159.57318851

---------------------
BASIS SET INFORMATION
---------------------
There are 3 groups of distinct atoms

 Group   1 Type C   : 11s6p2d1f contracted to 5s3p2d1f pattern {62111/411/11/1}
 Group   2 Type H   : 5s1p contracted to 3s1p pattern {311/1}
 Group   3 Type N   : 11s6p2d1f contracted to 5s3p2d1f pattern {62111/411/11/1}

Atom   0C    basis set group =>   1
Atom   1C    basis set group =>   1
Atom   2C    basis set group =>   1
Atom   3C    basis set group =>   1
Atom   4C    basis set group =>   1
Atom   5C    basis set group =>   1
Atom   6H    basis set group =>   2
Atom   7H    basis set group =>   2
Atom   8H    basis set group =>   2
Atom   9H    basis set group =>   2
Atom  10H    basis set group =>   2
Atom  11N    basis set group =>   3
Atom  12H    basis set group =>   2
Atom  13H    basis set group =>   2
---------------------------------
AUXILIARY/J BASIS SET INFORMATION
---------------------------------
There are 3 groups of distinct atoms

 Group   1 Type C   : 12s5p4d2f1g contracted to 6s4p3d1f1g pattern {711111/2111/211/2/1}
 Group   2 Type H   : 5s2p1d contracted to 3s1p1d pattern {311/2/1}
 Group   3 Type N   : 12s5p4d2f1g contracted to 6s4p3d1f1g pattern {711111/2111/211/2/1}

Atom   0C    basis set group =>   1
Atom   1C    basis set group =>   1
Atom   2C    basis set group =>   1
Atom   3C    basis set group =>   1
Atom   4C    basis set group =>   1
Atom   5C    basis set group =>   1
Atom   6H    basis set group =>   2
Atom   7H    basis set group =>   2
Atom   8H    basis set group =>   2
Atom   9H    basis set group =>   2
Atom  10H    basis set group =>   2
Atom  11N    basis set group =>   3
Atom  12H    basis set group =>   2
Atom  13H    basis set group =>   2
------------------------------------------------------------------------------
                           ORCA GTO INTEGRAL CALCULATION
                           -- RI-GTO INTEGRALS CHOSEN --
------------------------------------------------------------------------------
------------------------------------------------------------------------------
                   ___                                                        
                  /   \      - P O W E R E D   B Y -                         
                 /     \                                                     
                 |  |  |   _    _      __       _____    __    __             
                 |  |  |  | |  | |    /  \     |  _  \  |  |  /  |          
                  \  \/   | |  | |   /    \    | | | |  |  | /  /          
                 / \  \   | |__| |  /  /\  \   | |_| |  |  |/  /          
                |  |  |   |  __  | /  /__\  \  |    /   |      \           
                |  |  |   | |  | | |   __   |  |    \   |  |\   \          
                \     /   | |  | | |  |  |  |  | |\  \  |  | \   \       
                 \___/    |_|  |_| |__|  |__|  |_| \__\ |__|  \__/        
                                                                              
                      - O R C A' S   B I G   F R I E N D -                    
                                      &                                       
                       - I N T E G R A L  F E E D E R -                       
                                                                              
 v1 FN, 2020, v2 2021                                                         
------------------------------------------------------------------------------


Reading SHARK input file tddft.SHARKINP.tmp ... ok
----------------------
SHARK INTEGRAL PACKAGE
----------------------

Number of atoms                             ...     14
Number of basis functions                   ...    259
Number of shells                            ...    105
Maximum angular momentum                    ...      3
Integral batch strategy                     ... SHARK/LIBINT Hybrid
RI-J (if used) integral strategy            ... SPLIT-RIJ (Revised 2003 algorithm where possible)
Printlevel                                  ...      1
Contraction scheme used                     ... SEGMENTED contraction
Coulomb Range Separation                    ... NOT USED
Exchange Range Separation                   ... NOT USED
Finite Nucleus Model                        ... NOT USED
Auxiliary Coulomb fitting basis             ... AVAILABLE
   # of basis functions in Aux-J            ...    420
   # of shells in Aux-J                     ...    140
   Maximum angular momentum in Aux-J        ...      4
Auxiliary J/K fitting basis                 ... NOT available
Auxiliary Correlation fitting basis         ... NOT available
Auxiliary 'external' fitting basis          ... NOT available
Integral threshold                          ...     2.500000e-11
Primitive cut-off                           ...     2.500000e-12
Primitive pair pre-selection threshold      ...     2.500000e-12

Calculating pre-screening integrals         ... done (  0.2 sec) Dimension = 105
Organizing shell pair data                  ... done (  0.2 sec)
Shell pair information
Total number of shell pairs                 ...      5565
Shell pairs after pre-screening             ...      5235
Total number of primitive shell pairs       ...     16828
Primitive shell pairs kept                  ...     12265
          la=0 lb=0:   1433 shell pairs
          la=1 lb=0:   1477 shell pairs
          la=1 lb=1:    392 shell pairs
          la=2 lb=0:    754 shell pairs
          la=2 lb=1:    383 shell pairs
          la=2 lb=2:    104 shell pairs
          la=3 lb=0:    373 shell pairs
          la=3 lb=1:    193 shell pairs
          la=3 lb=2:     98 shell pairs
          la=3 lb=3:     28 shell pairs

Calculating one electron integrals          ... done (  0.1 sec)
Calculating RI/J V-Matrix + Cholesky decomp.... done (  0.1 sec)
Calculating Nuclear repulsion               ... done (  0.0 sec) ENN=    270.631545540734 Eh

SHARK setup successfully completed in   0.9 seconds

Maximum memory used throughout the entire GTOINT-calculation: 77.1 MB
-------------------------------------------------------------------------------
                                 ORCA SCF
-------------------------------------------------------------------------------

------------
SCF SETTINGS
------------
Hamiltonian:
 Density Functional     Method          .... DFT(GTOs)
 Exchange Functional    Exchange        .... B88
   X-Alpha parameter    XAlpha          ....  0.666667
   Becke's b parameter  XBeta           ....  0.004200
 Correlation Functional Correlation     .... P86
 LDA part of GGA corr.  LDAOpt          .... PW91-LDA
 Gradients option       PostSCFGGA      .... off
   Density functional embedding theory  .... OFF
   NL short-range parameter             ....  4.400000
 RI-approximation to the Coulomb term is turned on
   Number of AuxJ basis functions       .... 420


General Settings:
 Integral files         IntName         .... tddft
 Hartree-Fock type      HFTyp           .... RHF
 Total Charge           Charge          ....    0
 Multiplicity           Mult            ....    1
 Number of Electrons    NEL             ....   50
 Basis Dimension        Dim             ....  259
 Nuclear Repulsion      ENuc            ....    270.6315455407 Eh

Convergence Acceleration:
 DIIS                   CNVDIIS         .... on
   Start iteration      DIISMaxIt       ....    12
   Startup error        DIISStart       ....  0.200000
   # of expansion vecs  DIISMaxEq       ....     5
   Bias factor          DIISBfac        ....   1.050
   Max. coefficient     DIISMaxC        ....  10.000
 Trust-Rad. Augm. Hess. CNVTRAH         .... auto
   Auto Start mean grad. ratio tolernc. ....  1.125000
   Auto Start start iteration           ....    20
   Auto Start num. interpolation iter.  ....    10
   Max. Number of Micro iterations      ....    16
   Max. Number of Macro iterations      .... Maxiter - #DIIS iter
   Number of Davidson start vectors     ....     2
   Converg. threshold I  (grad. norm)   ....   1.000e-05
   Converg. threshold II (energy diff.) ....   1.000e-08
   Grad. Scal. Fac. for Micro threshold ....   0.100
   Minimum threshold for Micro iter.    ....   0.010
   NR start threshold (gradient norm)   ....   0.001
   Initial trust radius                 ....   0.400
   Minimum AH scaling param. (alpha)    ....   1.000
   Maximum AH scaling param. (alpha)    .... 1000.000
   Orbital update algorithm             .... Taylor
   White noise on init. David. guess    .... on
   Maximum white noise                  ....   0.010
   Quad. conv. algorithm                .... NR
 SOSCF                  CNVSOSCF        .... on
   Start iteration      SOSCFMaxIt      ....   150
   Startup grad/error   SOSCFStart      ....  0.003300
 Level Shifting         CNVShift        .... on
   Level shift para.    LevelShift      ....    0.2500
   Turn off err/grad.   ShiftErr        ....    0.0010
 Zerner damping         CNVZerner       .... off
 Static damping         CNVDamp         .... on
   Fraction old density DampFac         ....    0.7000
   Max. Damping (<1)    DampMax         ....    0.9800
   Min. Damping (>=0)   DampMin         ....    0.0000
   Turn off err/grad.   DampErr         ....    0.1000
 Fernandez-Rico         CNVRico         .... off

SCF Procedure:
 Maximum # iterations   MaxIter         ....   125
 SCF integral mode      SCFMode         .... Direct
   Integral package                     .... SHARK and LIBINT hybrid scheme
 Reset frequency        DirectResetFreq ....    20
 Integral Threshold     Thresh          ....  2.500e-11 Eh
 Primitive CutOff       TCut            ....  2.500e-12 Eh

Convergence Tolerance:
 Convergence Check Mode ConvCheckMode   .... Total+1el-Energy
 Convergence forced     ConvForced      .... 1
 Energy Change          TolE            ....  1.000e-08 Eh
 1-El. energy change                    ....  1.000e-05 Eh
 Orbital Gradient       TolG            ....  1.000e-05
 Orbital Rotation angle TolX            ....  1.000e-05
 DIIS Error             TolErr          ....  5.000e-07


Diagonalization of the overlap matrix:
Smallest eigenvalue                        ... 1.031e-05
Time for diagonalization                   ...    0.021 sec
Threshold for overlap eigenvalues          ... 1.000e-08
Number of eigenvalues below threshold      ... 0
Time for construction of square roots      ...    0.013 sec
Total time needed                          ...    0.034 sec

Time for model grid setup =    0.567 sec

------------------------------
INITIAL GUESS: MODEL POTENTIAL
------------------------------
Loading Hartree-Fock densities                     ... done
Calculating cut-offs                               ... done
Initializing the effective Hamiltonian             ... done
Setting up the integral package (SHARK)            ... done
Starting the Coulomb interaction                   ... done (   1.2 sec)
Reading the grid                                   ... done
Mapping shells                                     ... done
Starting the XC term evaluation                    ... done (   1.1 sec)
  promolecular density results
     # of electrons  =     49.995324116
     EX              =    -39.489925612
     EC              =     -1.793436860
     EX+EC           =    -41.283362472
Transforming the Hamiltonian                       ... done (   0.0 sec)
Diagonalizing the Hamiltonian                      ... done (   0.0 sec)
Back transforming the eigenvectors                 ... done (   0.0 sec)
Now organizing SCF variables                       ... done
                      ------------------
                      INITIAL GUESS DONE (   2.8 sec)
                      ------------------
-------------------
DFT GRID GENERATION
-------------------

General Integration Accuracy     IntAcc      ... 4.388
Radial Grid Type                 RadialGrid  ... OptM3 with GC (2021)
Angular Grid (max. ang.)         AngularGrid ... 4 (Lebedev-302)
Angular grid pruning method      GridPruning ... 4 (adaptive)
Weight generation scheme         WeightScheme... Becke
Basis function cutoff            BFCut       ... 1.0000e-11
Integration weight cutoff        WCut        ... 1.0000e-14
Angular grids for H and He will be reduced by one unit
Partially contracted basis set               ... off
Rotationally invariant grid construction     ... off

Total number of grid points                  ...    64707
Total number of batches                      ...     1018
Average number of points per batch           ...       63
Average number of grid points per atom       ...     4622
Time for grid setup =    2.470 sec

--------------
SCF ITERATIONS
--------------
ITER       Energy         Delta-E        Max-DP      RMS-DP      [F,P]     Damp
               ***  Starting incremental Fock matrix formation  ***
  0   -287.5132017592   0.000000000000 0.05373231  0.00111485  0.2384358 0.7000
  1   -287.6118942496  -0.098692490413 0.03764912  0.00078146  0.1008493 0.7000
                               ***Turning on DIIS***
  2   -287.6464561949  -0.034561945275 0.04431103  0.00123349  0.0221327 0.0000
  3   -287.6956024447  -0.049146249765 0.02669531  0.00057679  0.0627419 0.0000
  4   -287.7122666709  -0.016664226230 0.00542372  0.00022137  0.0108539 0.0000
  5   -287.7132017845  -0.000935113573 0.00312386  0.00010534  0.0061039 0.0000
                      *** Initiating the SOSCF procedure ***
                           *** Shutting down DIIS ***
                      *** Re-Reading the Fockian *** 
                      *** Removing any level shift *** 
ITER      Energy       Delta-E        Grad      Rot      Max-DP    RMS-DP
  6   -287.71327162  -0.0000698349  0.000298  0.000298  0.001374  0.000050
               *** Restarting incremental Fock matrix formation ***
  7   -287.71327853  -0.0000069060  0.000097  0.000549  0.000744  0.000030
  8   -287.71327854  -0.0000000132  0.000128  0.000258  0.000236  0.000009
  9   -287.71327899  -0.0000004516  0.000029  0.000094  0.000216  0.000009
 10   -287.71327901  -0.0000000213  0.000030  0.000081  0.000045  0.000001
 11   -287.71327904  -0.0000000285  0.000025  0.000089  0.000078  0.000004
 12   -287.71327903   0.0000000076  0.000031  0.000052  0.000019  0.000001
 13   -287.71327904  -0.0000000094  0.000006  0.000020  0.000051  0.000002
 14   -287.71327905  -0.0000000037  0.000003  0.000013  0.000020  0.000001
                  ***Gradient check signals convergence***
              ***Rediagonalizing the Fockian in SOSCF/NRSCF***

               *****************************************************
               *                     SUCCESS                       *
               *           SCF CONVERGED AFTER  15 CYCLES          *
               *****************************************************


----------------
TOTAL SCF ENERGY
----------------

Total Energy       :         -287.71327904 Eh           -7829.07635 eV

Components:
Nuclear Repulsion  :          270.63154554 Eh            7364.25875 eV
Electronic Energy  :         -558.34482458 Eh          -15193.33509 eV
One Electron Energy:         -923.32420941 Eh          -25124.92906 eV
Two Electron Energy:          364.97938483 Eh            9931.59397 eV

Virial components:
Potential Energy   :         -574.02100103 Eh          -15619.90554 eV
Kinetic Energy     :          286.30772199 Eh            7790.82919 eV
Virial Ratio       :            2.00490925


DFT components:
N(Alpha)           :       25.000025236276 electrons
N(Beta)            :       25.000025236276 electrons
N(Total)           :       50.000050472552 electrons
E(X)               :      -40.321087996858 Eh       
E(C)               :       -1.796950725635 Eh       
E(XC)              :      -42.118038722492 Eh       
DFET-embed. en.    :        0.000000000000 Eh       

---------------
SCF CONVERGENCE
---------------

  Last Energy change         ...    5.6517e-09  Tolerance :   1.0000e-08
  Last MAX-Density change    ...    2.2593e-05  Tolerance :   1.0000e-07
  Last RMS-Density change    ...    6.8591e-07  Tolerance :   5.0000e-09
  Last Orbital Gradient      ...    8.2169e-07  Tolerance :   1.0000e-05
  Last Orbital Rotation      ...    3.4107e-06  Tolerance :   1.0000e-05

             **** THE GBW FILE WAS UPDATED (tddft.gbw) ****
             **** DENSITY tddft.scfp WAS UPDATED ****
             **** ENERGY FILE WAS UPDATED (tddft.en.tmp) ****
             **** THE GBW FILE WAS UPDATED (tddft.gbw) ****
             **** DENSITY tddft.scfp WAS UPDATED ****
----------------
ORBITAL ENERGIES
----------------

  NO   OCC          E(Eh)            E(eV) 
   0   2.0000     -14.009472      -381.2171 
   1   2.0000      -9.937864      -270.4230 
   2   2.0000      -9.895667      -269.2748 
   3   2.0000      -9.895659      -269.2746 
   4   2.0000      -9.892454      -269.1874 
   5   2.0000      -9.892432      -269.1868 
   6   2.0000      -9.886116      -269.0149 
   7   2.0000      -0.845664       -23.0117 
   8   2.0000      -0.759589       -20.6695 
   9   2.0000      -0.671690       -18.2776 
  10   2.0000      -0.655653       -17.8412 
  11   2.0000      -0.551660       -15.0114 
  12   2.0000      -0.540350       -14.7037 
  13   2.0000      -0.474719       -12.9178 
  14   2.0000      -0.463136       -12.6026 
  15   2.0000      -0.427949       -11.6451 
  16   2.0000      -0.383505       -10.4357 
  17   2.0000      -0.380972       -10.3668 
  18   2.0000      -0.369328       -10.0499 
  19   2.0000      -0.344443        -9.3728 
  20   2.0000      -0.313744        -8.5374 
  21   2.0000      -0.296972        -8.0810 
  22   2.0000      -0.278051        -7.5662 
  23   2.0000      -0.225770        -6.1435 
  24   2.0000      -0.182544        -4.9673 
  25   0.0000      -0.038576        -1.0497 
  26   0.0000      -0.023193        -0.6311 
  27   0.0000       0.015287         0.4160 
  28   0.0000       0.039014         1.0616 
  29   0.0000       0.050808         1.3826 
  30   0.0000       0.082093         2.2339 
  31   0.0000       0.084469         2.2985 
  32   0.0000       0.104443         2.8420 
  33   0.0000       0.112116         3.0508 
  34   0.0000       0.112450         3.0599 
  35   0.0000       0.120674         3.2837 
  36   0.0000       0.165406         4.5009 
  37   0.0000       0.194217         5.2849 
  38   0.0000       0.194623         5.2960 
  39   0.0000       0.200978         5.4689 
  40   0.0000       0.215573         5.8660 
  41   0.0000       0.220047         5.9878 
  42   0.0000       0.220571         6.0020 
  43   0.0000       0.232809         6.3351 
  44   0.0000       0.239185         6.5086 
  45   0.0000       0.264081         7.1860 
  46   0.0000       0.268327         7.3016 
  47   0.0000       0.292382         7.9561 
  48   0.0000       0.300222         8.1695 
  49   0.0000       0.310011         8.4358 
  50   0.0000       0.312502         8.5036 
  51   0.0000       0.331157         9.0112 
  52   0.0000       0.342066         9.3081 
  53   0.0000       0.366427         9.9710 
  54   0.0000       0.366984         9.9861 
  55   0.0000       0.379030        10.3139 
  56   0.0000       0.390482        10.6256 
  57   0.0000       0.404980        11.0201 
  58   0.0000       0.407472        11.0879 
  59   0.0000       0.415762        11.3135 
  60   0.0000       0.420482        11.4419 
  61   0.0000       0.435140        11.8408 
  62   0.0000       0.448067        12.1925 
  63   0.0000       0.458215        12.4687 
  64   0.0000       0.465783        12.6746 
  65   0.0000       0.472281        12.8514 
  66   0.0000       0.480062        13.0631 
  67   0.0000       0.496312        13.5053 
  68   0.0000       0.534225        14.5370 
  69   0.0000       0.535587        14.5741 
  70   0.0000       0.583953        15.8902 
  71   0.0000       0.618303        16.8249 
  72   0.0000       0.625193        17.0124 
  73   0.0000       0.629890        17.1402 
  74   0.0000       0.633902        17.2494 
  75   0.0000       0.654206        17.8018 
  76   0.0000       0.691137        18.8068 
  77   0.0000       0.703567        19.1450 
  78   0.0000       0.715567        19.4716 
  79   0.0000       0.729486        19.8503 
  80   0.0000       0.758156        20.6305 
  81   0.0000       0.790326        21.5059 
  82   0.0000       0.811974        22.0949 
  83   0.0000       0.827618        22.5206 
  84   0.0000       0.836137        22.7524 
  85   0.0000       0.857037        23.3212 
  86   0.0000       0.952111        25.9083 
  87   0.0000       0.956263        26.0212 
  88   0.0000       0.985822        26.8256 
  89   0.0000       0.990389        26.9499 
  90   0.0000       1.003248        27.2998 
  91   0.0000       1.021862        27.8063 
  92   0.0000       1.069013        29.0893 
  93   0.0000       1.090828        29.6829 
  94   0.0000       1.116039        30.3690 
  95   0.0000       1.131471        30.7889 
  96   0.0000       1.156080        31.4585 
  97   0.0000       1.160814        31.5874 
  98   0.0000       1.170256        31.8443 
  99   0.0000       1.195451        32.5299 
 100   0.0000       1.223581        33.2953 
 101   0.0000       1.232916        33.5494 
 102   0.0000       1.261736        34.3336 
 103   0.0000       1.298364        35.3303 
 104   0.0000       1.300290        35.3827 
 105   0.0000       1.321150        35.9503 
 106   0.0000       1.353468        36.8297 
 107   0.0000       1.385842        37.7107 
 108   0.0000       1.395438        37.9718 
 109   0.0000       1.412254        38.4294 
 110   0.0000       1.420706        38.6594 
 111   0.0000       1.429115        38.8882 
 112   0.0000       1.455605        39.6090 
 113   0.0000       1.485936        40.4344 
 114   0.0000       1.512217        41.1495 
 115   0.0000       1.529749        41.6266 
 116   0.0000       1.569368        42.7047 
 117   0.0000       1.571154        42.7533 
 118   0.0000       1.588456        43.2241 
 119   0.0000       1.601256        43.5724 
 120   0.0000       1.621858        44.1330 
 121   0.0000       1.633476        44.4491 
 122   0.0000       1.641586        44.6698 
 123   0.0000       1.668721        45.4082 
 124   0.0000       1.674764        45.5726 
 125   0.0000       1.685121        45.8545 
 126   0.0000       1.739906        47.3453 
 127   0.0000       1.780932        48.4616 
 128   0.0000       1.820981        49.5514 
 129   0.0000       1.842550        50.1383 
 130   0.0000       1.843852        50.1738 
 131   0.0000       1.905835        51.8604 
 132   0.0000       1.937961        52.7346 
 133   0.0000       1.945522        52.9403 
 134   0.0000       2.006148        54.5901 
 135   0.0000       2.006954        54.6120 
 136   0.0000       2.012688        54.7680 
 137   0.0000       2.050472        55.7962 
 138   0.0000       2.072064        56.3837 
 139   0.0000       2.097100        57.0650 
 140   0.0000       2.123675        57.7881 
 141   0.0000       2.165753        58.9331 
 142   0.0000       2.184943        59.4553 
 143   0.0000       2.193679        59.6930 
 144   0.0000       2.250704        61.2448 
 145   0.0000       2.321006        63.1578 
 146   0.0000       2.351075        63.9760 
 147   0.0000       2.383302        64.8529 
 148   0.0000       2.415804        65.7374 
 149   0.0000       2.453131        66.7531 
 150   0.0000       2.456441        66.8432 
 151   0.0000       2.475496        67.3617 
 152   0.0000       2.499986        68.0281 
 153   0.0000       2.524301        68.6897 
 154   0.0000       2.525733        68.7287 
 155   0.0000       2.542697        69.1903 
 156   0.0000       2.575289        70.0772 
 157   0.0000       2.577624        70.1407 
 158   0.0000       2.586204        70.3742 
 159   0.0000       2.614297        71.1386 
 160   0.0000       2.618675        71.2578 
 161   0.0000       2.644031        71.9477 
 162   0.0000       2.683030        73.0090 
 163   0.0000       2.687034        73.1179 
 164   0.0000       2.688869        73.1678 
 165   0.0000       2.696285        73.3697 
 166   0.0000       2.739510        74.5459 
 167   0.0000       2.756800        75.0163 
 168   0.0000       2.759045        75.0774 
 169   0.0000       2.787048        75.8394 
 170   0.0000       2.788432        75.8771 
 171   0.0000       2.806923        76.3803 
 172   0.0000       2.834774        77.1381 
 173   0.0000       2.895143        78.7808 
 174   0.0000       2.898147        78.8626 
 175   0.0000       2.919221        79.4360 
 176   0.0000       2.985502        81.2396 
 177   0.0000       3.023147        82.2640 
 178   0.0000       3.027164        82.3733 
 179   0.0000       3.050032        82.9956 
 180   0.0000       3.052379        83.0594 
 181   0.0000       3.059359        83.2494 
 182   0.0000       3.075545        83.6898 
 183   0.0000       3.079570        83.7994 
 184   0.0000       3.134900        85.3050 
 185   0.0000       3.137607        85.3786 
 186   0.0000       3.147271        85.6416 
 187   0.0000       3.153053        85.7989 
 188   0.0000       3.178222        86.4838 
 189   0.0000       3.214938        87.4829 
 190   0.0000       3.227308        87.8195 
 191   0.0000       3.232608        87.9637 
 192   0.0000       3.274361        89.0999 
 193   0.0000       3.274514        89.1041 
 194   0.0000       3.315256        90.2127 
 195   0.0000       3.331955        90.6671 
 196   0.0000       3.346671        91.0675 
 197   0.0000       3.348662        91.1217 
 198   0.0000       3.378135        91.9237 
 199   0.0000       3.393172        92.3329 
 200   0.0000       3.398125        92.4677 
 201   0.0000       3.445358        93.7530 
 202   0.0000       3.447001        93.7977 
 203   0.0000       3.520794        95.8057 
 204   0.0000       3.550682        96.6190 
 205   0.0000       3.622321        98.5684 
 206   0.0000       3.643212        99.1368 
 207   0.0000       3.666137        99.7607 
 208   0.0000       3.687871       100.3521 
 209   0.0000       3.746209       101.9395 
 210   0.0000       3.749780       102.0367 
 211   0.0000       3.841555       104.5340 
 212   0.0000       3.898567       106.0854 
 213   0.0000       3.898941       106.0956 
 214   0.0000       3.941201       107.2455 
 215   0.0000       3.958354       107.7123 
 216   0.0000       3.969512       108.0159 
 217   0.0000       4.050515       110.2201 
 218   0.0000       4.059124       110.4544 
 219   0.0000       4.081615       111.0664 
 220   0.0000       4.089885       111.2914 
 221   0.0000       4.108268       111.7917 
 222   0.0000       4.139059       112.6295 
 223   0.0000       4.152286       112.9894 
 224   0.0000       4.169737       113.4643 
 225   0.0000       4.178148       113.6932 
 226   0.0000       4.308880       117.2506 
 227   0.0000       4.319755       117.5465 
 228   0.0000       4.454567       121.2149 
 229   0.0000       4.497896       122.3940 
 230   0.0000       4.506814       122.6367 
 231   0.0000       4.565059       124.2216 
 232   0.0000       4.597216       125.0966 
 233   0.0000       4.653293       126.6225 
 234   0.0000       4.657878       126.7473 
 235   0.0000       4.711694       128.2117 
 236   0.0000       4.734251       128.8255 
 237   0.0000       4.753061       129.3374 
 238   0.0000       4.837981       131.6481 
 239   0.0000       4.860479       132.2604 
 240   0.0000       4.942000       134.4787 
 241   0.0000       5.003334       136.1477 
 242   0.0000       5.074360       138.0804 
 243   0.0000       5.137030       139.7857 
 244   0.0000       5.148936       140.1097 
 245   0.0000       5.174095       140.7943 
 246   0.0000       5.241608       142.6314 
 247   0.0000       5.360811       145.8751 
 248   0.0000       5.455713       148.4575 
 249   0.0000       5.459872       148.5707 
 250   0.0000       5.737237       156.1182 
 251   0.0000       5.792754       157.6288 
 252   0.0000      21.801258       593.2424 
 253   0.0000      22.286930       606.4582 
 254   0.0000      22.298311       606.7679 
 255   0.0000      22.400269       609.5423 
 256   0.0000      22.493794       612.0873 
 257   0.0000      22.873904       622.4306 
 258   0.0000      31.691851       862.3791 

                    ********************************
                    * MULLIKEN POPULATION ANALYSIS *
                    ********************************

-----------------------
MULLIKEN ATOMIC CHARGES
-----------------------
   0 C :    0.292860
   1 C :   -0.218086
   2 C :   -0.103919
   3 C :   -0.149958
   4 C :   -0.103936
   5 C :   -0.218026
   6 H :    0.096267
   7 H :    0.101670
   8 H :    0.101325
   9 H :    0.101699
  10 H :    0.096170
  11 N :   -0.448021
  12 H :    0.225989
  13 H :    0.225965
Sum of atomic charges:    0.0000000

--------------------------------
MULLIKEN REDUCED ORBITAL CHARGES
--------------------------------
  0 C s       :     3.051117  s :     3.051117
      pz      :     0.903609  p :     2.497884
      px      :     0.860089
      py      :     0.734186
      dz2     :     0.006165  d :     0.145468
      dxz     :     0.023442
      dyz     :     0.042804
      dx2y2   :     0.035864
      dxy     :     0.037192
      f0      :     0.002018  f :     0.012670
      f+1     :     0.000527
      f-1     :     0.001122
      f+2     :     0.002003
      f-2     :     0.001114
      f+3     :     0.004051
      f-3     :     0.001835
  1 C s       :     3.243131  s :     3.243131
      pz      :     1.045123  p :     2.893504
      px      :     0.910589
      py      :     0.937792
      dz2     :     0.005781  d :     0.074583
      dxz     :     0.009354
      dyz     :     0.016010
      dx2y2   :     0.016091
      dxy     :     0.027348
      f0      :     0.001461  f :     0.006868
      f+1     :     0.000560
      f-1     :     0.000510
      f+2     :     0.000928
      f-2     :     0.000315
      f+3     :     0.002047
      f-3     :     0.001048
  2 C s       :     3.210791  s :     3.210791
      pz      :     0.961284  p :     2.804526
      px      :     0.930540
      py      :     0.912702
      dz2     :     0.004694  d :     0.081655
      dxz     :     0.007647
      dyz     :     0.023649
      dx2y2   :     0.021685
      dxy     :     0.023980
      f0      :     0.001469  f :     0.006947
      f+1     :     0.000544
      f-1     :     0.000464
      f+2     :     0.000829
      f-2     :     0.000606
      f+3     :     0.002024
      f-3     :     0.001013
  3 C s       :     3.221040  s :     3.221040
      pz      :     1.015813  p :     2.845177
      px      :     0.888362
      py      :     0.941002
      dz2     :     0.004971  d :     0.076987
      dxz     :     0.020781
      dyz     :     0.005044
      dx2y2   :     0.028513
      dxy     :     0.017679
      f0      :     0.001459  f :     0.006755
      f+1     :     0.000431
      f-1     :     0.000592
      f+2     :     0.000146
      f-2     :     0.001076
      f+3     :     0.002027
      f-3     :     0.001024
  4 C s       :     3.210774  s :     3.210774
      pz      :     0.961217  p :     2.804549
      px      :     0.927442
      py      :     0.915890
      dz2     :     0.004699  d :     0.081665
      dxz     :     0.010649
      dyz     :     0.020636
      dx2y2   :     0.018447
      dxy     :     0.027234
      f0      :     0.001468  f :     0.006948
      f+1     :     0.000526
      f-1     :     0.000482
      f+2     :     0.001138
      f-2     :     0.000296
      f+3     :     0.002015
      f-3     :     0.001022
  5 C s       :     3.243312  s :     3.243312
      pz      :     1.045087  p :     2.893314
      px      :     0.924065
      py      :     0.924162
      dz2     :     0.005771  d :     0.074532
      dxz     :     0.006913
      dyz     :     0.018459
      dx2y2   :     0.017441
      dxy     :     0.025949
      f0      :     0.001461  f :     0.006868
      f+1     :     0.000569
      f-1     :     0.000500
      f+2     :     0.000706
      f-2     :     0.000538
      f+3     :     0.001968
      f-3     :     0.001126
  6 H s       :     0.882020  s :     0.882020
      pz      :     0.005367  p :     0.021712
      px      :     0.010017
      py      :     0.006328
  7 H s       :     0.876740  s :     0.876740
      pz      :     0.004857  p :     0.021590
      px      :     0.011354
      py      :     0.005379
  8 H s       :     0.876834  s :     0.876834
      pz      :     0.005346  p :     0.021841
      px      :     0.003707
      py      :     0.012788
  9 H s       :     0.876717  s :     0.876717
      pz      :     0.004856  p :     0.021585
      px      :     0.010086
      py      :     0.006643
 10 H s       :     0.882113  s :     0.882113
      pz      :     0.005368  p :     0.021716
      px      :     0.011258
      py      :     0.005090
 11 N s       :     3.489595  s :     3.489595
      pz      :     1.681748  p :     3.920641
      px      :     1.119439
      py      :     1.119454
      dz2     :     0.003078  d :     0.034962
      dxz     :     0.003627
      dyz     :     0.011200
      dx2y2   :     0.005010
      dxy     :     0.012048
      f0      :     0.000693  f :     0.002822
      f+1     :     0.000257
      f-1     :     0.000424
      f+2     :     0.000227
      f-2     :     0.000170
      f+3     :     0.000476
      f-3     :     0.000575
 12 H s       :     0.737089  s :     0.737089
      pz      :     0.013394  p :     0.036922
      px      :     0.013478
      py      :     0.010050
 13 H s       :     0.737107  s :     0.737107
      pz      :     0.013409  p :     0.036928
      px      :     0.015123
      py      :     0.008396


                     *******************************
                     * LOEWDIN POPULATION ANALYSIS *
                     *******************************

----------------------
LOEWDIN ATOMIC CHARGES
----------------------
   0 C :   -0.250694
   1 C :   -0.141734
   2 C :   -0.150013
   3 C :   -0.171651
   4 C :   -0.149998
   5 C :   -0.141747
   6 H :    0.141643
   7 H :    0.144526
   8 H :    0.141463
   9 H :    0.144524
  10 H :    0.141633
  11 N :   -0.036599
  12 H :    0.164339
  13 H :    0.164308

-------------------------------
LOEWDIN REDUCED ORBITAL CHARGES
-------------------------------
  0 C s       :     2.716921  s :     2.716921
      pz      :     0.846992  p :     2.827101
      px      :     1.065358
      py      :     0.914751
      dz2     :     0.039208  d :     0.630406
      dxz     :     0.076796
      dyz     :     0.144492
      dx2y2   :     0.200391
      dxy     :     0.169520
      f0      :     0.005140  f :     0.076266
      f+1     :     0.004438
      f-1     :     0.006609
      f+2     :     0.014235
      f-2     :     0.007393
      f+3     :     0.025924
      f-3     :     0.012527
  1 C s       :     2.767866  s :     2.767866
      pz      :     0.945512  p :     2.967978
      px      :     0.986445
      py      :     1.036021
      dz2     :     0.025999  d :     0.364789
      dxz     :     0.029146
      dyz     :     0.052978
      dx2y2   :     0.103382
      dxy     :     0.153284
      f0      :     0.003046  f :     0.041100
      f+1     :     0.003707
      f-1     :     0.004119
      f+2     :     0.006320
      f-2     :     0.002112
      f+3     :     0.013828
      f-3     :     0.007969
  2 C s       :     2.773274  s :     2.773274
      pz      :     0.884630  p :     2.941941
      px      :     1.003072
      py      :     1.054240
      dz2     :     0.025375  d :     0.392219
      dxz     :     0.024293
      dyz     :     0.078090
      dx2y2   :     0.129011
      dxy     :     0.135451
      f0      :     0.002916  f :     0.042578
      f+1     :     0.003427
      f-1     :     0.004257
      f+2     :     0.005529
      f-2     :     0.004079
      f+3     :     0.014261
      f-3     :     0.008108
  3 C s       :     2.772227  s :     2.772227
      pz      :     0.929345  p :     2.980336
      px      :     1.063583
      py      :     0.987407
      dz2     :     0.025422  d :     0.376943
      dxz     :     0.072374
      dyz     :     0.013737
      dx2y2   :     0.162060
      dxy     :     0.103350
      f0      :     0.003067  f :     0.042144
      f+1     :     0.004442
      f-1     :     0.003328
      f+2     :     0.001305
      f-2     :     0.007196
      f+3     :     0.014661
      f-3     :     0.008145
  4 C s       :     2.773271  s :     2.773271
      pz      :     0.884615  p :     2.941933
      px      :     1.014814
      py      :     1.042504
      dz2     :     0.025384  d :     0.392214
      dxz     :     0.035214
      dyz     :     0.067158
      dx2y2   :     0.110438
      dxy     :     0.154019
      f0      :     0.002916  f :     0.042580
      f+1     :     0.003598
      f-1     :     0.004086
      f+2     :     0.007457
      f-2     :     0.002153
      f+3     :     0.014292
      f-3     :     0.008078
  5 C s       :     2.767846  s :     2.767846
      pz      :     0.945491  p :     2.967963
      px      :     0.980121
      py      :     1.042352
      dz2     :     0.025997  d :     0.364832
      dxz     :     0.020928
      dyz     :     0.061210
      dx2y2   :     0.116768
      dxy     :     0.139929
      f0      :     0.003046  f :     0.041105
      f+1     :     0.003534
      f-1     :     0.004292
      f+2     :     0.004784
      f-2     :     0.003649
      f+3     :     0.013478
      f-3     :     0.008322
  6 H s       :     0.800238  s :     0.800238
      pz      :     0.014863  p :     0.058118
      px      :     0.026012
      py      :     0.017243
  7 H s       :     0.798498  s :     0.798498
      pz      :     0.013144  p :     0.056976
      px      :     0.029158
      py      :     0.014674
  8 H s       :     0.800362  s :     0.800362
      pz      :     0.014581  p :     0.058176
      px      :     0.010889
      py      :     0.032706
  9 H s       :     0.798499  s :     0.798499
      pz      :     0.013143  p :     0.056977
      px      :     0.026143
      py      :     0.017691
 10 H s       :     0.800246  s :     0.800246
      pz      :     0.014865  p :     0.058121
      px      :     0.028954
      py      :     0.014301
 11 N s       :     3.015494  s :     3.015494
      pz      :     1.549226  p :     3.869618
      px      :     1.138365
      py      :     1.182027
      dz2     :     0.007036  d :     0.141181
      dxz     :     0.011713
      dyz     :     0.030174
      dx2y2   :     0.032379
      dxy     :     0.059878
      f0      :     0.001246  f :     0.010306
      f+1     :     0.000404
      f-1     :     0.001326
      f+2     :     0.001728
      f-2     :     0.001298
      f+3     :     0.002465
      f-3     :     0.001839
 12 H s       :     0.727897  s :     0.727897
      pz      :     0.038961  p :     0.107764
      px      :     0.042543
      py      :     0.026260
 13 H s       :     0.727910  s :     0.727910
      pz      :     0.039017  p :     0.107782
      px      :     0.046938
      py      :     0.021826


                      *****************************
                      * MAYER POPULATION ANALYSIS *
                      *****************************

  NA   - Mulliken gross atomic population
  ZA   - Total nuclear charge
  QA   - Mulliken gross atomic charge
  VA   - Mayer's total valence
  BVA  - Mayer's bonded valence
  FA   - Mayer's free valence

  ATOM       NA         ZA         QA         VA         BVA        FA
  0 C      5.7071     6.0000     0.2929     3.7941     3.7941     0.0000
  1 C      6.2181     6.0000    -0.2181     3.9817     3.9817     0.0000
  2 C      6.1039     6.0000    -0.1039     3.9702     3.9702    -0.0000
  3 C      6.1500     6.0000    -0.1500     3.9240     3.9240     0.0000
  4 C      6.1039     6.0000    -0.1039     3.9701     3.9701    -0.0000
  5 C      6.2180     6.0000    -0.2180     3.9819     3.9819    -0.0000
  6 H      0.9037     1.0000     0.0963     0.9774     0.9774     0.0000
  7 H      0.8983     1.0000     0.1017     0.9666     0.9666    -0.0000
  8 H      0.8987     1.0000     0.1013     0.9684     0.9684    -0.0000
  9 H      0.8983     1.0000     0.1017     0.9666     0.9666     0.0000
 10 H      0.9038     1.0000     0.0962     0.9775     0.9775    -0.0000
 11 N      7.4480     7.0000    -0.4480     3.0720     3.0720     0.0000
 12 H      0.7740     1.0000     0.2260     0.9522     0.9522    -0.0000
 13 H      0.7740     1.0000     0.2260     0.9522     0.9522    -0.0000

  Mayer bond orders larger than 0.100000
B(  0-C ,  1-C ) :   1.3329 B(  0-C ,  5-C ) :   1.3329 B(  0-C , 11-N ) :   1.0667 
B(  1-C ,  2-C ) :   1.4656 B(  1-C ,  6-H ) :   0.9555 B(  2-C ,  3-C ) :   1.3959 
B(  2-C ,  7-H ) :   0.9640 B(  3-C ,  4-C ) :   1.3958 B(  3-C ,  8-H ) :   0.9662 
B(  4-C ,  5-C ) :   1.4657 B(  4-C ,  9-H ) :   0.9639 B(  5-C , 10-H ) :   0.9556 
B( 11-N , 12-H ) :   0.9212 B( 11-N , 13-H ) :   0.9212 

-------
TIMINGS
-------

Total SCF time: 0 days 0 hours 1 min 16 sec 

Total time                  ....      76.083 sec
Sum of individual times     ....      75.182 sec  ( 98.8%)

Fock matrix formation       ....      69.095 sec  ( 90.8%)
  Split-RI-J                ....      17.822 sec  ( 25.8% of F)
  XC integration            ....      51.047 sec  ( 73.9% of F)
    Basis function eval.    ....      14.919 sec  ( 29.2% of XC)
    Density eval.           ....      16.194 sec  ( 31.7% of XC)
    XC-Functional eval.     ....       1.971 sec  (  3.9% of XC)
    XC-Potential eval.      ....      16.311 sec  ( 32.0% of XC)
Diagonalization             ....       0.273 sec  (  0.4%)
Density matrix formation    ....       0.046 sec  (  0.1%)
Population analysis         ....       0.030 sec  (  0.0%)
Initial guess               ....       2.274 sec  (  3.0%)
Orbital Transformation      ....       0.000 sec  (  0.0%)
Orbital Orthonormalization  ....       0.000 sec  (  0.0%)
DIIS solution               ....       0.212 sec  (  0.3%)
SOSCF solution              ....       0.215 sec  (  0.3%)
Grid generation             ....       3.037 sec  (  4.0%)

Maximum memory used throughout the entire SCF-calculation: 98.0 MB
------------------------------------------------------------------------------
                        ORCA TD-DFT/TDA CALCULATION
------------------------------------------------------------------------------

Input orbitals are from        ... tddft.gbw
CI-vector output               ... tddft.cis
Tamm-Dancoff approximation     ... operative
CIS-Integral strategy          ... AO-integrals
Integral handling              ... AO integral Direct
Max. core memory used          ... 2000 MB
Reference state                ... RHF
Generation of triplets         ... off
Follow IRoot                   ... off
Number of operators            ... 1
Orbital ranges used for CIS calculation:
 Operator 0:  Orbitals   7... 24  to  25...258
XAS localization array:
 Operator 0:  Orbitals  -1... -1

-------------------
XC-INTEGRATION GRID
-------------------

General Integration Accuracy     IntAcc      ... 3.467
Radial Grid Type                 RadialGrid  ... OptM3 with GC (2021)
Angular Grid (max. ang.)         AngularGrid ... 1 (Lebedev-50)
Angular grid pruning method      GridPruning ... 4 (adaptive)
Weight generation scheme         WeightScheme... Becke
Basis function cutoff            BFCut       ... 1.0000e-11
Integration weight cutoff        WCut        ... 1.0000e-14
Angular grids for H and He will be reduced by one unit
Partially contracted basis set               ... off
Rotationally invariant grid construction     ... off

Total number of grid points                  ...     9441
Total number of batches                      ...      155
Average number of points per batch           ...       60
Average number of grid points per atom       ...      674

---------------
TD-DFT XC SETUP
---------------

DFT calculation                         ... on
Name of the grid file                   ... tddft.grid_cis.tmp
RI-approximation                        ... on
Aux-basis dimension                     ... 420
Exchange functional (TD-DFT)            ... B88
   X-Alpha parameter    XAlpha (TD-DFT) ...  0.666667
   Becke's b parameter  XBeta (TD-DFT)  ...  0.004200
Correlation functional (TD-DFT)         ... P86
 LDA part of GGA corr.  LDAOpt (TD-DFT) ... PW91-LDA

Building densities             ... done
Calculating rho(r) on the grid ... done
Building xc-kernel on the grid ... done
                    *** TD-DFT CALCULATION INITIALIZED ***

------------------------
DAVIDSON-DIAGONALIZATION
------------------------

Dimension of the eigenvalue problem            ...   4212
Number of roots to be determined               ...    150
Maximum size of the expansion space            ...    750
Maximum number of iterations                   ...    100
Convergence tolerance for the residual         ...    2.500e-07
Convergence tolerance for the energies         ...    2.500e-07
Orthogonality tolerance                        ...    1.000e-14
Level Shift                                    ...    0.000e+00
Constructing the preconditioner                ... o.k.
Building the initial guess                     ... o.k.
Number of trial vectors determined             ...    512


                       ****Iteration    0****

   Memory handling for direct AO based CIS:
   Memory per vector needed      ...     3 MB
   Memory needed                 ...  1381 MB
   Memory available              ...  2000 MB
   Number of vectors per batch   ...   651
   Number of batches             ...     1
   Time for densities:            0.419
   Time for RI-J (Direct):       24.684
   Time for XC-Integration:     200.715
   Time for Sigma-Completion:     5.209
   Size of expansion space: 450
   Lowest Energy          :     0.166535152555
   Maximum Energy change  :     0.507152256437 (vector 149)
   Maximum residual norm  :     0.007214502458

                       ****Iteration    1****
   Time for densities:            0.139
   Time for RI-J (Direct):        9.977
   Time for XC-Integration:      65.426
   Time for Sigma-Completion:     2.218
   Size of expansion space: 600
   Lowest Energy          :     0.164701038087
   Maximum Energy change  :     0.006693548580 (vector 7)
   Maximum residual norm  :     0.000007343383

                       ****Iteration    2****
   Time for densities:            0.118
   Time for RI-J (Direct):        9.115
   Time for XC-Integration:      80.902
   Time for Sigma-Completion:     2.258
   Size of expansion space: 750
   Lowest Energy          :     0.164700551453
   Maximum Energy change  :     0.000003274454 (vector 7)
   Maximum residual norm  :     0.000000001031

      *** CONVERGENCE OF RESIDUAL NORM REACHED ***

Storing the converged CI vectors               ... tddft.cis1

                 *** DAVIDSON DONE ***

Total time for solving the CIS problem:   611.759sec

------------------------------------
TD-DFT/TDA EXCITED STATES (SINGLETS)
------------------------------------

the weight of the individual excitations are printed if larger than 1.0e-02

STATE  1:  E=   0.164701 au      4.482 eV    36147.6 cm**-1 <S**2> =   0.000000
    23a ->  26a  :     0.130452 (c= -0.36118071)
    24a ->  25a  :     0.845047 (c= -0.91926425)

STATE  2:  E=   0.196993 au      5.360 eV    43235.0 cm**-1 <S**2> =   0.000000
    23a ->  25a  :     0.020797 (c=  0.14421010)
    24a ->  26a  :     0.240989 (c= -0.49090632)
    24a ->  27a  :     0.728125 (c=  0.85330253)

STATE  3:  E=   0.206949 au      5.631 eV    45420.0 cm**-1 <S**2> =   0.000000
    22a ->  26a  :     0.011344 (c=  0.10650751)
    23a ->  25a  :     0.166328 (c= -0.40783337)
    24a ->  26a  :     0.521082 (c=  0.72186004)
    24a ->  27a  :     0.256645 (c=  0.50660179)

STATE  4:  E=   0.222527 au      6.055 eV    48839.1 cm**-1 <S**2> =   0.000000
    24a ->  28a  :     0.990708 (c=  0.99534338)

STATE  5:  E=   0.229570 au      6.247 eV    50384.8 cm**-1 <S**2> =   0.000000
    22a ->  25a  :     0.323100 (c= -0.56841889)
    23a ->  26a  :     0.497684 (c=  0.70546727)
    23a ->  27a  :     0.047356 (c= -0.21761416)
    24a ->  25a  :     0.035934 (c= -0.18956342)
    24a ->  29a  :     0.069876 (c=  0.26434109)

STATE  6:  E=   0.233734 au      6.360 eV    51298.7 cm**-1 <S**2> =   0.000000
    22a ->  25a  :     0.037751 (c=  0.19429675)
    23a ->  26a  :     0.023464 (c= -0.15317850)
    24a ->  29a  :     0.926074 (c=  0.96232721)

STATE  7:  E=   0.241315 au      6.567 eV    52962.5 cm**-1 <S**2> =   0.000000
    22a ->  25a  :     0.080461 (c= -0.28365703)
    23a ->  27a  :     0.914223 (c=  0.95615014)

STATE  8:  E=   0.255367 au      6.949 eV    56046.5 cm**-1 <S**2> =   0.000000
    22a ->  26a  :     0.102102 (c=  0.31953353)
    23a ->  25a  :     0.656923 (c=  0.81050794)
    23a ->  29a  :     0.011135 (c= -0.10552477)
    24a ->  26a  :     0.132172 (c=  0.36355443)

STATE  9:  E=   0.262510 au      7.143 eV    57614.2 cm**-1 <S**2> =   0.000000
    21a ->  25a  :     0.990776 (c= -0.99537743)

STATE 10:  E=   0.265324 au      7.220 eV    58231.9 cm**-1 <S**2> =   0.000000
    23a ->  28a  :     0.010109 (c= -0.10054588)
    24a ->  30a  :     0.980372 (c= -0.99013747)

STATE 11:  E=   0.265371 au      7.221 eV    58242.3 cm**-1 <S**2> =   0.000000
    23a ->  28a  :     0.950080 (c= -0.97472044)
    24a ->  30a  :     0.010318 (c=  0.10157799)
    24a ->  31a  :     0.027368 (c=  0.16543232)

STATE 12:  E=   0.266757 au      7.259 eV    58546.5 cm**-1 <S**2> =   0.000000
    22a ->  25a  :     0.011751 (c=  0.10840330)
    23a ->  28a  :     0.030768 (c= -0.17540926)
    24a ->  31a  :     0.946487 (c= -0.97287543)

STATE 13:  E=   0.274231 au      7.462 eV    60186.8 cm**-1 <S**2> =   0.000000
    20a ->  25a  :     0.335053 (c= -0.57883794)
    21a ->  26a  :     0.627592 (c= -0.79220685)
    22a ->  25a  :     0.017150 (c=  0.13095751)
    23a ->  26a  :     0.010609 (c=  0.10299930)

STATE 14:  E=   0.276821 au      7.533 eV    60755.2 cm**-1 <S**2> =   0.000000
    22a ->  26a  :     0.041366 (c=  0.20338717)
    23a ->  29a  :     0.940966 (c=  0.97003397)

STATE 15:  E=   0.278130 au      7.568 eV    61042.6 cm**-1 <S**2> =   0.000000
    20a ->  25a  :     0.523368 (c= -0.72344170)
    21a ->  26a  :     0.365808 (c=  0.60482090)
    22a ->  25a  :     0.045706 (c=  0.21378992)
    23a ->  26a  :     0.028049 (c=  0.16747696)

STATE 16:  E=   0.279949 au      7.618 eV    61441.6 cm**-1 <S**2> =   0.000000
    19a ->  26a  :     0.026561 (c= -0.16297668)
    22a ->  26a  :     0.506143 (c= -0.71143759)
    22a ->  27a  :     0.022024 (c=  0.14840402)
    23a ->  25a  :     0.021290 (c=  0.14591021)
    23a ->  29a  :     0.036585 (c=  0.19127185)
    24a ->  26a  :     0.032703 (c=  0.18083931)
    24a ->  32a  :     0.321506 (c= -0.56701484)

STATE 17:  E=   0.284836 au      7.751 eV    62514.2 cm**-1 <S**2> =   0.000000
    20a ->  25a  :     0.130401 (c=  0.36111042)
    22a ->  25a  :     0.391126 (c=  0.62540074)
    23a ->  26a  :     0.230407 (c=  0.48000735)
    23a ->  27a  :     0.023946 (c=  0.15474420)
    23a ->  32a  :     0.026779 (c= -0.16364400)
    24a ->  25a  :     0.059670 (c= -0.24427535)
    24a ->  31a  :     0.012830 (c=  0.11327173)
    24a ->  34a  :     0.038309 (c=  0.19572572)

STATE 18:  E=   0.293626 au      7.990 eV    64443.5 cm**-1 <S**2> =   0.000000
    20a ->  26a  :     0.686805 (c= -0.82873711)
    22a ->  27a  :     0.020793 (c= -0.14419684)
    24a ->  32a  :     0.057333 (c= -0.23944254)
    24a ->  33a  :     0.215466 (c= -0.46418340)

STATE 19:  E=   0.295218 au      8.033 eV    64792.9 cm**-1 <S**2> =   0.000000
    22a ->  27a  :     0.869379 (c= -0.93240486)
    24a ->  32a  :     0.023208 (c= -0.15234257)
    24a ->  33a  :     0.088433 (c=  0.29737710)

STATE 20:  E=   0.296062 au      8.056 eV    64978.2 cm**-1 <S**2> =   0.000000
    20a ->  26a  :     0.271079 (c=  0.52065234)
    22a ->  27a  :     0.043323 (c= -0.20814215)
    24a ->  32a  :     0.037810 (c= -0.19444919)
    24a ->  33a  :     0.605434 (c= -0.77809646)
    24a ->  35a  :     0.032238 (c=  0.17955000)

STATE 21:  E=   0.296432 au      8.066 eV    65059.3 cm**-1 <S**2> =   0.000000
    22a ->  25a  :     0.017384 (c= -0.13184819)
    23a ->  26a  :     0.012414 (c= -0.11141841)
    24a ->  34a  :     0.942282 (c=  0.97071213)

STATE 22:  E=   0.301363 au      8.200 eV    66141.4 cm**-1 <S**2> =   0.000000
    22a ->  26a  :     0.033696 (c= -0.18356378)
    24a ->  32a  :     0.059040 (c=  0.24298217)
    24a ->  33a  :     0.046207 (c= -0.21495859)
    24a ->  35a  :     0.824758 (c= -0.90816172)

STATE 23:  E=   0.308035 au      8.382 eV    67605.9 cm**-1 <S**2> =   0.000000
    23a ->  30a  :     0.985704 (c= -0.99282644)

STATE 24:  E=   0.310060 au      8.437 eV    68050.4 cm**-1 <S**2> =   0.000000
    23a ->  31a  :     0.948834 (c=  0.97408135)
    24a ->  32a  :     0.020832 (c=  0.14433440)

STATE 25:  E=   0.313065 au      8.519 eV    68709.8 cm**-1 <S**2> =   0.000000
    21a ->  27a  :     0.983311 (c=  0.99162031)

STATE 26:  E=   0.315988 au      8.598 eV    69351.2 cm**-1 <S**2> =   0.000000
    19a ->  26a  :     0.027045 (c= -0.16445339)
    22a ->  26a  :     0.135237 (c=  0.36774546)
    22a ->  27a  :     0.015270 (c=  0.12357303)
    22a ->  28a  :     0.358869 (c=  0.59905712)
    23a ->  25a  :     0.022727 (c= -0.15075345)
    23a ->  31a  :     0.034178 (c=  0.18487265)
    24a ->  32a  :     0.250444 (c= -0.50044398)
    24a ->  33a  :     0.021225 (c=  0.14568893)
    24a ->  35a  :     0.056539 (c= -0.23777868)
    24a ->  37a  :     0.022184 (c=  0.14894322)

STATE 27:  E=   0.316730 au      8.619 eV    69514.2 cm**-1 <S**2> =   0.000000
    19a ->  25a  :     0.717263 (c= -0.84691376)
    23a ->  32a  :     0.237262 (c=  0.48709509)

STATE 28:  E=   0.319622 au      8.697 eV    70148.9 cm**-1 <S**2> =   0.000000
    19a ->  26a  :     0.024755 (c=  0.15733662)
    22a ->  26a  :     0.079870 (c= -0.28261255)
    22a ->  27a  :     0.018061 (c= -0.13438948)
    22a ->  28a  :     0.631187 (c=  0.79447278)
    23a ->  31a  :     0.011819 (c= -0.10871643)
    24a ->  32a  :     0.116053 (c=  0.34066506)
    24a ->  33a  :     0.010291 (c= -0.10144231)
    24a ->  35a  :     0.044041 (c=  0.20986019)
    24a ->  37a  :     0.014407 (c= -0.12002996)

STATE 29:  E=   0.329010 au      8.953 eV    72209.4 cm**-1 <S**2> =   0.000000
    22a ->  29a  :     0.995783 (c=  0.99788903)

STATE 30:  E=   0.331068 au      9.009 eV    72661.1 cm**-1 <S**2> =   0.000000
    20a ->  27a  :     0.970809 (c= -0.98529641)

STATE 31:  E=   0.333752 au      9.082 eV    73250.0 cm**-1 <S**2> =   0.000000
    18a ->  25a  :     0.974203 (c= -0.98701711)
    23a ->  34a  :     0.012211 (c= -0.11050388)

STATE 32:  E=   0.338192 au      9.203 eV    74224.7 cm**-1 <S**2> =   0.000000
    23a ->  32a  :     0.050578 (c= -0.22489560)
    23a ->  33a  :     0.936232 (c= -0.96759076)

STATE 33:  E=   0.340025 au      9.253 eV    74626.8 cm**-1 <S**2> =   0.000000
    17a ->  25a  :     0.034509 (c=  0.18576550)
    18a ->  25a  :     0.012059 (c=  0.10981292)
    23a ->  34a  :     0.930097 (c= -0.96441541)

STATE 34:  E=   0.340344 au      9.261 eV    74697.0 cm**-1 <S**2> =   0.000000
    21a ->  28a  :     0.957644 (c=  0.97859308)
    23a ->  32a  :     0.015113 (c=  0.12293305)
    23a ->  33a  :     0.011925 (c= -0.10920191)

STATE 35:  E=   0.343647 au      9.351 eV    75421.9 cm**-1 <S**2> =   0.000000
    16a ->  25a  :     0.150933 (c= -0.38850101)
    19a ->  25a  :     0.010765 (c= -0.10375673)
    21a ->  28a  :     0.013635 (c=  0.11677019)
    23a ->  32a  :     0.076944 (c= -0.27738852)
    23a ->  35a  :     0.714495 (c=  0.84527809)

STATE 36:  E=   0.345862 au      9.411 eV    75907.8 cm**-1 <S**2> =   0.000000
    16a ->  26a  :     0.033499 (c= -0.18302705)
    17a ->  25a  :     0.679381 (c=  0.82424557)
    19a ->  26a  :     0.185162 (c= -0.43030465)
    22a ->  32a  :     0.023462 (c=  0.15317219)
    23a ->  34a  :     0.024018 (c=  0.15497813)
    24a ->  32a  :     0.010237 (c=  0.10117998)

STATE 37:  E=   0.346715 au      9.435 eV    76095.2 cm**-1 <S**2> =   0.000000
    17a ->  25a  :     0.219057 (c=  0.46803554)
    19a ->  26a  :     0.398789 (c=  0.63149776)
    19a ->  27a  :     0.018746 (c= -0.13691490)
    20a ->  28a  :     0.017292 (c= -0.13149916)
    21a ->  29a  :     0.016542 (c= -0.12861498)
    22a ->  32a  :     0.050354 (c= -0.22439788)
    23a ->  34a  :     0.013417 (c=  0.11583247)
    24a ->  32a  :     0.021537 (c= -0.14675606)
    24a ->  36a  :     0.198312 (c= -0.44532279)

STATE 38:  E=   0.346973 au      9.442 eV    76151.7 cm**-1 <S**2> =   0.000000
    16a ->  25a  :     0.174948 (c= -0.41826751)
    17a ->  26a  :     0.010317 (c= -0.10157137)
    18a ->  26a  :     0.738783 (c= -0.85952514)
    23a ->  35a  :     0.066878 (c= -0.25860847)

STATE 39:  E=   0.350044 au      9.525 eV    76825.7 cm**-1 <S**2> =   0.000000
    17a ->  25a  :     0.037117 (c= -0.19265889)
    19a ->  26a  :     0.112644 (c= -0.33562478)
    20a ->  28a  :     0.010170 (c=  0.10084589)
    21a ->  29a  :     0.017194 (c=  0.13112683)
    22a ->  32a  :     0.021938 (c=  0.14811608)
    24a ->  36a  :     0.776806 (c= -0.88136582)

STATE 40:  E=   0.350448 au      9.536 eV    76914.3 cm**-1 <S**2> =   0.000000
    16a ->  25a  :     0.640083 (c=  0.80005214)
    17a ->  26a  :     0.012593 (c=  0.11221913)
    18a ->  26a  :     0.246133 (c= -0.49611780)
    23a ->  35a  :     0.081707 (c=  0.28584499)

STATE 41:  E=   0.350747 au      9.544 eV    76980.1 cm**-1 <S**2> =   0.000000
    19a ->  26a  :     0.021251 (c= -0.14577613)
    21a ->  29a  :     0.935185 (c= -0.96704961)

STATE 42:  E=   0.357978 au      9.741 eV    78567.1 cm**-1 <S**2> =   0.000000
    19a ->  26a  :     0.018031 (c= -0.13427932)
    20a ->  28a  :     0.928311 (c= -0.96348881)
    22a ->  30a  :     0.014499 (c= -0.12041093)

STATE 43:  E=   0.360644 au      9.814 eV    79152.1 cm**-1 <S**2> =   0.000000
    20a ->  28a  :     0.012112 (c= -0.11005651)
    22a ->  30a  :     0.960064 (c=  0.97982855)

STATE 44:  E=   0.361039 au      9.824 eV    79238.9 cm**-1 <S**2> =   0.000000
    17a ->  26a  :     0.769542 (c= -0.87723537)
    22a ->  31a  :     0.194916 (c= -0.44149272)

STATE 45:  E=   0.361217 au      9.829 eV    79277.9 cm**-1 <S**2> =   0.000000
    16a ->  26a  :     0.050888 (c=  0.22558424)
    19a ->  26a  :     0.011834 (c=  0.10878470)
    19a ->  27a  :     0.900648 (c=  0.94902496)
    22a ->  30a  :     0.014169 (c=  0.11903269)

STATE 46:  E=   0.362949 au      9.876 eV    79658.0 cm**-1 <S**2> =   0.000000
    17a ->  26a  :     0.179193 (c= -0.42331253)
    22a ->  31a  :     0.766878 (c=  0.87571595)
    23a ->  32a  :     0.011186 (c=  0.10576347)
    23a ->  35a  :     0.018517 (c=  0.13607684)

STATE 47:  E=   0.365369 au      9.942 eV    80189.3 cm**-1 <S**2> =   0.000000
    16a ->  26a  :     0.885440 (c= -0.94097814)
    17a ->  25a  :     0.015132 (c= -0.12301113)
    19a ->  26a  :     0.013112 (c=  0.11450774)
    19a ->  27a  :     0.039066 (c=  0.19764999)
    22a ->  32a  :     0.018162 (c= -0.13476496)

STATE 48:  E=   0.365630 au      9.949 eV    80246.5 cm**-1 <S**2> =   0.000000
    20a ->  29a  :     0.943639 (c= -0.97141090)
    23a ->  32a  :     0.025290 (c=  0.15902746)

STATE 49:  E=   0.369345 au     10.050 eV    81061.9 cm**-1 <S**2> =   0.000000
    19a ->  25a  :     0.166286 (c= -0.40778221)
    20a ->  29a  :     0.039975 (c= -0.19993751)
    21a ->  30a  :     0.011973 (c= -0.10942306)
    22a ->  25a  :     0.022285 (c= -0.14928248)
    22a ->  31a  :     0.029637 (c=  0.17215333)
    23a ->  32a  :     0.463759 (c= -0.68099828)
    23a ->  33a  :     0.028508 (c=  0.16884346)
    23a ->  35a  :     0.076763 (c= -0.27706154)
    23a ->  44a  :     0.013552 (c= -0.11641294)
    24a ->  39a  :     0.014257 (c=  0.11940167)
    24a ->  43a  :     0.022148 (c= -0.14882242)

STATE 50:  E=   0.375515 au     10.218 eV    82416.1 cm**-1 <S**2> =   0.000000
    24a ->  37a  :     0.091160 (c= -0.30192787)
    24a ->  38a  :     0.872159 (c= -0.93389442)

STATE 51:  E=   0.380178 au     10.345 eV    83439.5 cm**-1 <S**2> =   0.000000
    21a ->  30a  :     0.961025 (c= -0.98031893)
    24a ->  39a  :     0.010620 (c= -0.10305479)

STATE 52:  E=   0.380551 au     10.355 eV    83521.2 cm**-1 <S**2> =   0.000000
    21a ->  31a  :     0.230455 (c=  0.48005737)
    24a ->  37a  :     0.622994 (c=  0.78929946)
    24a ->  38a  :     0.056868 (c= -0.23846938)

STATE 53:  E=   0.382452 au     10.407 eV    83938.5 cm**-1 <S**2> =   0.000000
    24a ->  39a  :     0.963156 (c=  0.98140506)

STATE 54:  E=   0.383501 au     10.436 eV    84168.7 cm**-1 <S**2> =   0.000000
    19a ->  28a  :     0.053249 (c=  0.23075651)
    20a ->  30a  :     0.013782 (c=  0.11739820)
    21a ->  31a  :     0.708483 (c= -0.84171437)
    24a ->  37a  :     0.169788 (c=  0.41205357)
    24a ->  38a  :     0.019007 (c= -0.13786548)

STATE 55:  E=   0.384683 au     10.468 eV    84428.2 cm**-1 <S**2> =   0.000000
    19a ->  28a  :     0.925041 (c=  0.96179071)
    21a ->  31a  :     0.022065 (c=  0.14854406)
    24a ->  37a  :     0.023407 (c= -0.15299212)

STATE 56:  E=   0.385614 au     10.493 eV    84632.5 cm**-1 <S**2> =   0.000000
    18a ->  27a  :     0.975716 (c= -0.98778327)

STATE 57:  E=   0.390707 au     10.632 eV    85750.3 cm**-1 <S**2> =   0.000000
    15a ->  25a  :     0.060942 (c= -0.24686533)
    23a ->  36a  :     0.915144 (c= -0.95663160)

STATE 58:  E=   0.390928 au     10.638 eV    85798.8 cm**-1 <S**2> =   0.000000
    15a ->  25a  :     0.014579 (c=  0.12074539)
    22a ->  34a  :     0.961743 (c=  0.98068491)
    24a ->  40a  :     0.011137 (c= -0.10553354)

STATE 59:  E=   0.391090 au     10.642 eV    85834.3 cm**-1 <S**2> =   0.000000
    22a ->  32a  :     0.097543 (c=  0.31231930)
    22a ->  33a  :     0.876582 (c=  0.93625945)

STATE 60:  E=   0.394640 au     10.739 eV    86613.5 cm**-1 <S**2> =   0.000000
    15a ->  25a  :     0.535797 (c=  0.73198147)
    19a ->  29a  :     0.068272 (c=  0.26128873)
    21a ->  32a  :     0.033793 (c= -0.18382872)
    22a ->  34a  :     0.025812 (c= -0.16066087)
    23a ->  36a  :     0.034376 (c= -0.18540633)
    24a ->  40a  :     0.280098 (c= -0.52924254)

STATE 61:  E=   0.395494 au     10.762 eV    86801.0 cm**-1 <S**2> =   0.000000
    15a ->  25a  :     0.018791 (c= -0.13707944)
    19a ->  29a  :     0.898127 (c=  0.94769541)
    21a ->  32a  :     0.013062 (c=  0.11428899)
    24a ->  40a  :     0.052507 (c=  0.22914338)

STATE 62:  E=   0.396295 au     10.784 eV    86976.8 cm**-1 <S**2> =   0.000000
    15a ->  26a  :     0.016890 (c=  0.12996069)
    19a ->  26a  :     0.011990 (c= -0.10950019)
    20a ->  30a  :     0.100770 (c=  0.31744316)
    22a ->  32a  :     0.175122 (c= -0.41847609)
    22a ->  33a  :     0.041625 (c=  0.20402146)
    22a ->  35a  :     0.570432 (c=  0.75526964)
    24a ->  42a  :     0.037378 (c=  0.19333407)

STATE 63:  E=   0.397101 au     10.806 eV    87153.5 cm**-1 <S**2> =   0.000000
    15a ->  25a  :     0.208296 (c= -0.45639405)
    19a ->  29a  :     0.010005 (c=  0.10002524)
[...]
  57   85750.3    116.6     -0.07649  -0.00529  -0.07726  -0.01964
  58   85798.8    116.6     -0.00355   0.00069   0.01951  -0.06092
  59   85834.3    116.5      0.06462  -0.05475   0.00237  -0.00292
  60   86613.5    115.5     -0.32400  -0.02094  -0.17524  -0.00902
  61   86801.0    115.2      0.02531  -0.01416  -0.16118   0.02447
  62   86976.8    115.0      2.31234  -0.50778   0.04635   0.00621
  63   87153.5    114.7     -1.61942   0.02825   0.05773   0.06230
  64   87317.9    114.5     -1.58215  -0.00418  -0.10179   0.74525
  65   87463.2    114.3      1.84269  -0.22821   0.01627   0.00758
  66   87617.5    114.1     -0.44618  -0.00629   0.00557   0.04935
  67   87854.7    113.8     -0.00496  -0.02683   0.00184  -0.00220
  68   88374.0    113.2     -0.19844   0.01892   0.21774   0.19237
  69   88800.0    112.6      0.02030   0.05122  -0.01025  -0.00078
  70   88942.3    112.4     -0.56828   0.07877   0.96282   0.24133
  71   89262.9    112.0      0.37984  -0.20544   0.02508  -0.00046
  72   89762.6    111.4      0.19291  -0.02959  -0.34338   0.57973
  73   90161.4    110.9     -0.17373  -0.51738   0.04163  -0.00064
  74   90523.8    110.5      0.21693   0.12666  -0.01078   0.00192
  75   91055.9    109.8      0.13606  -0.00498  -0.06772   0.20693
  76   91204.9    109.6     -0.29748   0.01111   0.13138  -0.21134
  77   91830.6    108.9     -0.45197  -0.01478  -0.23698  -0.04791
  78   92066.9    108.6      0.25552  -0.02626  -0.35670   0.03913
  79   92398.4    108.2      0.72512   0.56162  -0.04298   0.00092
  80   92599.8    108.0     -0.86290   0.60867  -0.04927   0.00016
  81   92832.6    107.7      0.12148  -0.00063   0.01597  -0.08779
  82   93335.2    107.1     -0.87755   0.16927  -0.01182  -0.00475
  83   93448.2    107.0      0.63912  -0.00388  -0.04968   0.29267
  84   93482.7    107.0      0.90872  -0.03672   0.00581  -0.00057
  85   93656.3    106.8     -0.72419   0.00125   0.04239   0.82227
  86   93752.2    106.7      0.65739   0.52288  -0.04220   0.00336
  87   93817.3    106.6     -0.15650  -0.39715   0.03187  -0.00318
  88   94182.6    106.2      0.22196   0.00176   0.04118  -0.03533
  89   94196.4    106.2     -0.25400   0.03334  -0.00366  -0.00198
  90   94676.2    105.6     -0.27219  -0.11735   0.00939   0.00401
  91   95332.9    104.9     -0.11935   0.24217  -0.01944   0.00039
  92   95695.4    104.5     -0.11382   0.25301  -0.02038   0.00126
  93   95903.5    104.3      0.18009  -0.00099  -0.03382  -0.20460
  94   96445.9    103.7     -0.05276  -0.01111  -0.13194  -0.05145
  95   96820.9    103.3     -0.06413  -0.30569   0.02501  -0.00056
  96   97128.0    103.0      0.07903   0.00955   0.10794  -0.14770
  97   97484.1    102.6      0.03781  -0.09031   0.00723   0.00030
  98   97786.1    102.3      0.14634   0.18449  -0.01440  -0.00044
  99   97978.2    102.1     -0.20695  -0.00672   0.01624  -0.02073
 100   98038.6    102.0      0.16946  -0.04136   0.00260   0.00258
 101   98844.5    101.2     -0.04734   0.00567  -0.00054   0.00031
 102   99123.8    100.9     -0.00527  -0.00417  -0.04904   0.02559
 103   99490.4    100.5      4.02660  -0.06988   0.00233  -0.02265
 104   99537.9    100.5     -4.58408   0.01998  -0.01572  -0.10739
 105   99919.1    100.1      0.70718  -0.35269   0.02828  -0.00187
 106  100222.9     99.8     -0.01608   0.09590  -0.00727  -0.00051
 107  100553.3     99.4     -0.07280  -0.00393  -0.04826  -0.08689
 108  101562.5     98.5      0.27467   0.02488  -0.00189   0.00444
 109  101689.0     98.3      0.14817   0.00016   0.01417   0.98970
 110  101963.2     98.1      6.49776  -0.03689   0.00171   0.03387
 111  101989.4     98.0     -6.71035  -0.00147   0.00913  -0.37475
 112  102424.0     97.6     -0.07973   0.11893  -0.00967  -0.00402
 113  102472.4     97.6      0.04490   0.00174  -0.00300   0.13077
 114  102861.4     97.2      0.15995   0.05549  -0.00412   0.00227
 115  103334.9     96.8      0.14076  -0.02838   0.00128  -0.00560
 116  103568.1     96.6     -1.05742  -0.07792   0.01339   0.03670
 117  103603.0     96.5      0.60088  -0.02271  -0.02371  -0.13443
 118  104341.7     95.8     -0.27653  -0.17221   0.01377  -0.00179
 119  104440.6     95.7     -1.80327  -0.01252  -0.10435  -0.08260
 120  104499.5     95.7      0.04830  -0.07698   0.01003  -0.00415
 121  104682.5     95.5     -1.60532   0.08629  -0.00827   0.00504
 122  104924.7     95.3      2.11366   0.01134   0.01554  -0.09774
 123  105475.5     94.8      0.07425  -0.00073   0.00668  -0.08315
 124  105905.2     94.4      0.01650  -0.00198  -0.03242   0.11460
 125  105996.6     94.3      0.29306   0.00817  -0.00021  -0.00960
 126  106250.6     94.1     -0.18274  -0.00487  -0.04638   0.08613
 127  106439.3     94.0     -0.19912  -0.00645  -0.04770   0.82714
 128  106468.9     93.9     -0.06138  -0.05884   0.00556  -0.00131
 129  106668.3     93.7     -0.28575  -0.00269  -0.02139   0.51268
 130  107461.2     93.1      0.55034   0.01108   0.12141   0.29562
 131  107765.8     92.8     -0.29041   0.23549  -0.01768   0.00730
 132  107796.5     92.8      0.24103  -0.00178   0.05944   0.23099
 133  107811.3     92.8      0.13353  -0.00635  -0.03575   0.08004
 134  108191.1     92.4      0.15507   0.00373   0.05450  -0.00405
 135  108223.9     92.4      2.57927   0.01630   0.23334  -0.09675
 136  108273.5     92.4     -0.48955  -0.01696  -0.00235   0.00657
 137  108362.1     92.3     -2.28636  -0.01340  -0.01038   0.00498
 138  108557.8     92.1      0.37604   0.00310   0.02802   0.18978
 139  108833.1     91.9     -0.37898   0.12910  -0.01149   0.00080
 140  108960.3     91.8      0.04866   0.07197  -0.00613   0.00037
 141  109338.3     91.5      0.22585   0.01888   0.03492   0.03086
 142  109351.2     91.4      0.09973  -0.00782  -0.14252  -0.13229
 143  109384.3     91.4      0.95468  -0.02459  -0.00279  -0.00958
 144  109538.5     91.3     -0.35676   0.00154   0.01442   0.10052
 145  109868.6     91.0     -0.23546   0.06413  -0.00809  -0.00250
 146  110311.4     90.7      0.86243   0.01626   0.01498  -0.02072
 147  110315.3     90.6     -0.61624   0.00408  -0.03199   0.03503
 148  110691.2     90.3     -0.00282  -0.00127  -0.01474  -0.02100
 149  110825.6     90.2     -0.01008   0.00068  -0.00145  -0.18665
 150  111023.1     90.1      0.04896   0.11319  -0.00917   0.00147

-------------------------------------------------------------------
         CD SPECTRUM VIA TRANSITION VELOCITY DIPOLE MOMENTS        
-------------------------------------------------------------------
State  Energy     Wavelength     R         MX        MY        MZ   
       (cm-1)       (nm)     (1e40*cgs)   (au)      (au)      (au)  
-------------------------------------------------------------------
   1   36147.6    276.6     -0.04689  -0.00010   0.00583   0.37100
   2   43235.0    231.3     -0.03500  -0.23717   0.01925  -0.00029
   3   45420.0    220.2      0.00901  -0.07099   0.00581  -0.00015
   4   48839.1    204.8      0.00045   0.19241  -0.01543   0.00026
   5   50384.8    198.5     -0.04087  -0.00239  -0.02388   0.26500
   6   51298.7    194.9     -0.00209  -0.00194  -0.02597  -0.00420
   7   52962.5    188.8      0.02672   0.00983   0.11963   0.04479
   8   56046.5    178.4     -0.01576  -0.00214   0.00014  -0.00024
   9   57614.2    173.6      0.00201  -0.02281   0.00196  -0.00002
  10   58231.9    171.7      0.04130  -0.00347  -0.01279  -0.00206
  11   58242.3    171.7     -0.08042  -0.01021  -0.12734  -0.02367
  12   58546.5    170.8      0.05710  -0.00088  -0.00504   0.07737
  13   60186.8    166.1      0.00535   0.00426   0.05066   0.02339
  14   60755.2    164.6      0.00639   0.05029  -0.00426  -0.00014
  15   61042.6    163.8      0.01497   0.00224   0.02123   0.03465
  16   61441.6    162.8      0.04533  -0.08499   0.00707  -0.00002
  17   62514.2    160.0      0.03927   0.00114   0.01290   0.05856
  18   64443.5    155.2      0.06743   0.21246  -0.01743   0.00024
  19   64792.9    154.3      0.07819   0.20505  -0.01715  -0.00008
  20   64978.2    153.9     -0.01569   0.00211  -0.00060  -0.00018
  21   65059.3    153.7     -0.18119   0.01023   0.08338   0.04060
  22   66141.4    151.2      0.00064  -0.16534   0.01237  -0.00019
  23   67605.9    147.9      0.00463  -0.00261  -0.03399  -0.01150
  24   68050.4    146.9     -0.01777   0.07776  -0.00582   0.00024
  25   68709.8    145.5      0.04398  -0.00490  -0.05791  -0.02001
  26   69351.2    144.2     -0.05661  -0.17112   0.01329  -0.00039
  27   69514.2    143.9      0.01504  -0.00779  -0.09915  -0.02721
  28   70148.9    142.6     -0.00034   0.05959  -0.00479   0.00026
  29   72209.4    138.5      0.02059  -0.00459  -0.05265   0.03929
  30   72661.1    137.6     -0.07092   0.06621  -0.00557   0.00030
  31   73250.0    136.5     -0.01179  -0.53146   0.04242  -0.00064
  32   74224.7    134.7     -0.00587  -0.00640  -0.08768   0.01872
  33   74626.8    134.0      0.03840  -0.03542   0.00061  -0.00095
  34   74697.0    133.9      0.02541  -0.00241  -0.03442  -0.17034
  35   75421.9    132.6     -0.02666   0.02204   0.28435  -0.00583
  36   75907.8    131.7      0.00375  -0.30431   0.02290  -0.00043
  37   76095.2    131.4      0.10214  -0.24141   0.01679  -0.00148
  38   76151.7    131.3     -0.15678   0.00928  -0.03955  -0.02759
  39   76825.7    130.2      0.14661   0.08133  -0.00409  -0.00031
  40   76914.3    130.0      1.28164   0.06328   0.78557  -0.04659
  41   76980.1    129.9     -1.48461  -0.00800   0.00553   0.00048
  42   78567.1    127.3     -0.02366   0.01201  -0.00143   0.00095
  43   79152.1    126.3     -0.05495   0.09478  -0.00567   0.00018
  44   79238.9    126.2      0.40893   0.05966   0.67925   0.13217
  45   79277.9    126.1     -0.47950   0.18193  -0.02974  -0.00285
  46   79658.0    125.5     -0.06454   0.02397   0.30745  -0.04252
  47   80189.3    124.7      0.19880  -0.15774   0.01494  -0.00068
  48   80246.5    124.6     -0.16266  -0.00501  -0.05241   0.10999
  49   81061.9    123.4      0.09694  -0.00134   0.00632   0.15734
  50   82416.1    121.3      0.14066  -0.59143   0.04936  -0.00058
  51   83439.5    119.8      0.48068  -0.00873  -0.08719   0.52115
  52   83521.2    119.7     -0.05522  -0.01604  -0.00158   0.01336
  53   83938.5    119.1     -0.16751   0.01231   0.09860   0.13966
  54   84168.7    118.8     -0.06432  -0.02291   0.00134  -0.00902
  55   84428.2    118.4      0.05194  -0.02251   0.00189   0.00283
  56   84632.5    118.2     -0.02655   0.00180   0.02741   0.38207
  57   85750.3    116.6     -0.08450  -0.00529  -0.07726  -0.01964
  58   85798.8    116.6     -0.00672   0.00069   0.01951  -0.06092
  59   85834.3    116.5      0.06290  -0.05475   0.00237  -0.00292
  60   86613.5    115.5     -0.22784  -0.02094  -0.17524  -0.00902
  61   86801.0    115.2      0.03056  -0.01416  -0.16118   0.02447
  62   86976.8    115.0      1.97635  -0.50778   0.04635   0.00621
  63   87153.5    114.7     -1.36028   0.02825   0.05773   0.06230
  64   87317.9    114.5     -1.12344  -0.00418  -0.10179   0.74525
  65   87463.2    114.3      1.07508  -0.22821   0.01627   0.00758
  66   87617.5    114.1     -0.13627  -0.00629   0.00557   0.04935
  67   87854.7    113.8     -0.00546  -0.02683   0.00184  -0.00220
  68   88374.0    113.2     -0.06406   0.01892   0.21774   0.19237
  69   88800.0    112.6      0.07550   0.05122  -0.01025  -0.00078
  70   88942.3    112.4     -0.66816   0.07877   0.96282   0.24133
  71   89262.9    112.0      0.29817  -0.20544   0.02508  -0.00046
  72   89762.6    111.4      0.20850  -0.02959  -0.34338   0.57973
  73   90161.4    110.9     -0.11962  -0.51738   0.04163  -0.00064
  74   90523.8    110.5      0.21415   0.12666  -0.01078   0.00192
  75   91055.9    109.8      0.05891  -0.00498  -0.06772   0.20693
  76   91204.9    109.6     -0.20905   0.01111   0.13138  -0.21134
  77   91830.6    108.9     -0.35663  -0.01478  -0.23698  -0.04791
  78   92066.9    108.6      0.22031  -0.02626  -0.35670   0.03913
  79   92398.4    108.2      0.51744   0.56162  -0.04298   0.00092
  80   92599.8    108.0     -0.46271   0.60867  -0.04927   0.00016
  81   92832.6    107.7      0.04604  -0.00063   0.01597  -0.08779
  82   93335.2    107.1     -0.97727   0.16927  -0.01182  -0.00475
  83   93448.2    107.0      0.75377  -0.00388  -0.04968   0.29267
  84   93482.7    107.0      0.78833  -0.03672   0.00581  -0.00057
  85   93656.3    106.8     -0.77615   0.00125   0.04239   0.82227
  86   93752.2    106.7      0.66853   0.52288  -0.04220   0.00336
  87   93817.3    106.6     -0.17539  -0.39715   0.03187  -0.00318
  88   94182.6    106.2      0.18244   0.00176   0.04118  -0.03533
  89   94196.4    106.2     -0.22269   0.03334  -0.00366  -0.00198
  90   94676.2    105.6     -0.20479  -0.11735   0.00939   0.00401
  91   95332.9    104.9     -0.09052   0.24217  -0.01944   0.00039
  92   95695.4    104.5     -0.00719   0.25301  -0.02038   0.00126
  93   95903.5    104.3      0.07419  -0.00099  -0.03382  -0.20460
  94   96445.9    103.7     -0.04416  -0.01111  -0.13194  -0.05145
  95   96820.9    103.3     -0.08525  -0.30569   0.02501  -0.00056
  96   97128.0    103.0      0.04493   0.00955   0.10794  -0.14770
  97   97484.1    102.6      0.02641  -0.09031   0.00723   0.00030
  98   97786.1    102.3      0.09596   0.18449  -0.01440  -0.00044
  99   97978.2    102.1     -0.10906  -0.00672   0.01624  -0.02073
 100   98038.6    102.0      0.11350  -0.04136   0.00260   0.00258
 101   98844.5    101.2     -0.03885   0.00567  -0.00054   0.00031
 102   99123.8    100.9     -0.00780  -0.00417  -0.04904   0.02559
 103   99490.4    100.5      3.35879  -0.06988   0.00233  -0.02265
 104   99537.9    100.5     -3.86343   0.01998  -0.01572  -0.10739
 105   99919.1    100.1      0.66187  -0.35269   0.02828  -0.00187
 106  100222.9     99.8     -0.02328   0.09590  -0.00727  -0.00051
 107  100553.3     99.4     -0.04866  -0.00393  -0.04826  -0.08689
 108  101562.5     98.5      0.17090   0.02488  -0.00189   0.00444
 109  101689.0     98.3      0.05754   0.00016   0.01417   0.98970
 110  101963.2     98.1      4.09631  -0.03689   0.00171   0.03387
 111  101989.4     98.0     -4.26220  -0.00147   0.00913  -0.37475
 112  102424.0     97.6     -0.09548   0.11893  -0.00967  -0.00402
 113  102472.4     97.6      0.12531   0.00174  -0.00300   0.13077
 114  102861.4     97.2      0.14906   0.05549  -0.00412   0.00227
 115  103334.9     96.8      0.17577  -0.02838   0.00128  -0.00560
 116  103568.1     96.6     -1.84219  -0.07792   0.01339   0.03670
 117  103603.0     96.5      1.39225  -0.02271  -0.02371  -0.13443
 118  104341.7     95.8     -0.18101  -0.17221   0.01377  -0.00179
 119  104440.6     95.7     -1.39184  -0.01252  -0.10435  -0.08260
 120  104499.5     95.7      0.24681  -0.07698   0.01003  -0.00415
 121  104682.5     95.5     -1.11341   0.08629  -0.00827   0.00504
 122  104924.7     95.3      1.39872   0.01134   0.01554  -0.09774
 123  105475.5     94.8      0.06623  -0.00073   0.00668  -0.08315
 124  105905.2     94.4     -0.02286  -0.00198  -0.03242   0.11460
 125  105996.6     94.3      0.23235   0.00817  -0.00021  -0.00960
 126  106250.6     94.1     -0.15563  -0.00487  -0.04638   0.08613
 127  106439.3     94.0     -0.25165  -0.00645  -0.04770   0.82714
 128  106468.9     93.9     -0.04819  -0.05884   0.00556  -0.00131
 129  106668.3     93.7     -0.20708  -0.00269  -0.02139   0.51268
 130  107461.2     93.1      0.46975   0.01108   0.12141   0.29562
 131  107765.8     92.8     -0.13668   0.23549  -0.01768   0.00730
 132  107796.5     92.8      0.07938  -0.00178   0.05944   0.23099
 133  107811.3     92.8      0.06829  -0.00635  -0.03575   0.08004
 134  108191.1     92.4      0.15460   0.00373   0.05450  -0.00405
 135  108223.9     92.4      2.05554   0.01630   0.23334  -0.09675
 136  108273.5     92.4     -0.49741  -0.01696  -0.00235   0.00657
 137  108362.1     92.3     -1.70426  -0.01340  -0.01038   0.00498
 138  108557.8     92.1      0.27626   0.00310   0.02802   0.18978
 139  108833.1     91.9     -0.28029   0.12910  -0.01149   0.00080
 140  108960.3     91.8      0.04549   0.07197  -0.00613   0.00037
 141  109338.3     91.5     -0.03615   0.01888   0.03492   0.03086
 142  109351.2     91.4      0.31772  -0.00782  -0.14252  -0.13229
 143  109384.3     91.4      0.61849  -0.02459  -0.00279  -0.00958
 144  109538.5     91.3     -0.27818   0.00154   0.01442   0.10052
 145  109868.6     91.0     -0.17085   0.06413  -0.00809  -0.00250
 146  110311.4     90.7      0.91189   0.01626   0.01498  -0.02072
 147  110315.3     90.6     -0.72627   0.00408  -0.03199   0.03503
 148  110691.2     90.3     -0.00130  -0.00127  -0.01474  -0.02100
 149  110825.6     90.2      0.00643   0.00068  -0.00145  -0.18665
 150  111023.1     90.1      0.03373   0.11319  -0.00917   0.00147

Total run time:      624.915 sec

           *** ORCA-CIS/TD-DFT FINISHED WITHOUT ERROR ***

Maximum memory used throughout the entire CIS-calculation: 1330.3 MB

-----------------------
CIS/TD-DFT TOTAL ENERGY
-----------------------

    E(SCF)  =   -287.713279040 Eh
    DE(CIS) =      0.164700551 Eh (Root  1)
    ----------------------------- ---------
    E(tot)  =   -287.548578488 Eh


-------------------------   --------------------
FINAL SINGLE POINT ENERGY      -287.548578488362
-------------------------   --------------------


                            ***************************************
                            *     ORCA property calculations      *
                            ***************************************

                                    ---------------------
                                    Active property flags
                                    ---------------------
   (+) Dipole Moment


------------------------------------------------------------------------------
                       ORCA ELECTRIC PROPERTIES CALCULATION
------------------------------------------------------------------------------

Dipole Moment Calculation                       ... on
Quadrupole Moment Calculation                   ... off
Polarizability Calculation                      ... off
GBWName                                         ... tddft.gbw
Electron density                                ... tddft.scfp
The origin for moment calculation is the CENTER OF MASS  = (-9.377165,  3.841028  0.042451)

-------------
DIPOLE MOMENT
-------------
                                X             Y             Z
Electronic contribution:     -0.00769      -0.09728      -0.17471
Nuclear contribution   :      0.05809       0.72683       0.52928
                        -----------------------------------------
Total Dipole Moment    :      0.05040       0.62955       0.35457
                        -----------------------------------------
Magnitude (a.u.)       :      0.72429
Magnitude (Debye)      :      1.84099



--------------------
Rotational spectrum 
--------------------
 
Rotational constants in cm-1:     0.186570     0.086136     0.059004 
Rotational constants in MHz :  5593.219850  2582.294403  1768.887501 

 Dipole components along the rotational axes: 
x,y,z [a.u.] :     0.638426     0.000122     0.342058 
x,y,z [Debye]:     1.622749     0.000310     0.869443 

 

Timings for individual modules:

Sum of individual times         ...      707.693 sec (=  11.795 min)
GTO integral calculation        ...        1.175 sec (=   0.020 min)   0.2 %
SCF iterations                  ...       79.441 sec (=   1.324 min)  11.2 %
CIS module                      ...      627.077 sec (=  10.451 min)  88.6 %
                             ****ORCA TERMINATED NORMALLY****
TOTAL RUN TIME: 0 days 0 hours 11 minutes 49 seconds 327 msec
