
                                 *****************
                                 * O   R   C   A *
                                 *****************

                                            #,                                       
                                            ###                                      
                                            ####                                     
                                            #####                                    
                                            ######                                   
                                           ########,                                 
                                     ,,################,,,,,                         
                               ,,#################################,,                 
                          ,,##########################################,,             
                       ,#########################################, ''#####,          
                    ,#############################################,,   '####,        
                  ,##################################################,,,,####,       
                ,###########''''           ''''###############################       
              ,#####''   ,,,,##########,,,,          '''####'''          '####       
            ,##' ,,,,###########################,,,                        '##       
           ' ,,###''''                  '''############,,,                           
         ,,##''                                '''############,,,,        ,,,,,,###''
      ,#''                                            '''#######################'''  
     '                                                          ''''####''''         
             ,#######,   #######,   ,#######,      ##                                
            ,#'     '#,  ##    ##  ,#'     '#,    #''#        ######   ,####,        
            ##       ##  ##   ,#'  ##            #'  '#       #        #'  '#        
            ##       ##  #######   ##           ,######,      #####,   #    #        
            '#,     ,#'  ##    ##  '#,     ,#' ,#      #,         ##   #,  ,#        
             '#######'   ##     ##  '#######'  #'      '#     #####' # '####'        



                  #######################################################
                  #                        -***-                        #
                  #          Department of theory and spectroscopy      #
                  #    Directorship and core code : Frank Neese         #
                  #        Max Planck Institute fuer Kohlenforschung    #
                  #                Kaiser Wilhelm Platz 1               #
                  #                 D-45470 Muelheim/Ruhr               #
                  #                      Germany                        #
                  #                                                     #
                  #                  All rights reserved                #
                  #                        -***-                        #
                  #######################################################



                         Program Version 5.0.4 -  RELEASE  -

 With contributions from (in alphabetic order):
   Daniel Aravena         : Magnetic Suceptibility
   Michael Atanasov       : Ab Initio Ligand Field Theory (pilot matlab implementation)
   Alexander A. Auer      : GIAO ZORA, VPT2 properties, NMR spectrum
   Ute Becker             : Parallelization
   Giovanni Bistoni       : ED, misc. LED, open-shell LED, HFLD
   Martin Brehm           : Molecular dynamics
   Dmytro Bykov           : SCF Hessian
   Vijay G. Chilkuri      : MRCI spin determinant printing, contributions to CSF-ICE
   Dipayan Datta          : RHF DLPNO-CCSD density
   Achintya Kumar Dutta   : EOM-CC, STEOM-CC
   Dmitry Ganyushin       : Spin-Orbit,Spin-Spin,Magnetic field MRCI
   Miquel Garcia          : C-PCM and meta-GGA Hessian, CC/C-PCM, Gaussian charge scheme
   Yang Guo               : DLPNO-NEVPT2, F12-NEVPT2, CIM, IAO-localization
   Andreas Hansen         : Spin unrestricted coupled pair/coupled cluster methods
   Benjamin Helmich-Paris : MC-RPA, TRAH-SCF, COSX integrals
   Lee Huntington         : MR-EOM, pCC
   Robert Izsak           : Overlap fitted RIJCOSX, COSX-SCS-MP3, EOM
   Marcus Kettner         : VPT2
   Christian Kollmar      : KDIIS, OOCD, Brueckner-CCSD(T), CCSD density, CASPT2, CASPT2-K
   Simone Kossmann        : Meta GGA functionals, TD-DFT gradient, OOMP2, MP2 Hessian
   Martin Krupicka        : Initial AUTO-CI
   Lucas Lang             : DCDCAS
   Marvin Lechner         : AUTO-CI (C++ implementation), FIC-MRCC
   Dagmar Lenk            : GEPOL surface, SMD
   Dimitrios Liakos       : Extrapolation schemes; Compound Job, initial MDCI parallelization
   Dimitrios Manganas     : Further ROCIS development; embedding schemes
   Dimitrios Pantazis     : SARC Basis sets
   Anastasios Papadopoulos: AUTO-CI, single reference methods and gradients
   Taras Petrenko         : DFT Hessian,TD-DFT gradient, ASA, ECA, R-Raman, ABS, FL, XAS/XES, NRVS
   Peter Pinski           : DLPNO-MP2, DLPNO-MP2 Gradient
   Christoph Reimann      : Effective Core Potentials
   Marius Retegan         : Local ZFS, SOC
   Christoph Riplinger    : Optimizer, TS searches, QM/MM, DLPNO-CCSD(T), (RO)-DLPNO pert. Triples
   Tobias Risthaus        : Range-separated hybrids, TD-DFT gradient, RPA, STAB
   Michael Roemelt        : Original ROCIS implementation
   Masaaki Saitow         : Open-shell DLPNO-CCSD energy and density
   Barbara Sandhoefer     : DKH picture change effects
   Avijit Sen             : IP-ROCIS
   Kantharuban Sivalingam : CASSCF convergence, NEVPT2, FIC-MRCI
   Bernardo de Souza      : ESD, SOC TD-DFT
   Georgi Stoychev        : AutoAux, RI-MP2 NMR, DLPNO-MP2 response
   Willem Van den Heuvel  : Paramagnetic NMR
   Boris Wezisla          : Elementary symmetry handling
   Frank Wennmohs         : Technical directorship


 We gratefully acknowledge several colleagues who have allowed us to
 interface, adapt or use parts of their codes:
   Stefan Grimme, W. Hujo, H. Kruse, P. Pracht,  : VdW corrections, initial TS optimization,
                  C. Bannwarth, S. Ehlert          DFT functionals, gCP, sTDA/sTD-DF
   Ed Valeev, F. Pavosevic, A. Kumar             : LibInt (2-el integral package), F12 methods
   Garnet Chan, S. Sharma, J. Yang, R. Olivares  : DMRG
   Ulf Ekstrom                                   : XCFun DFT Library
   Mihaly Kallay                                 : mrcc  (arbitrary order and MRCC methods)
   Jiri Pittner, Ondrej Demel                    : Mk-CCSD
   Frank Weinhold                                : gennbo (NPA and NBO analysis)
   Christopher J. Cramer and Donald G. Truhlar   : smd solvation model
   Lars Goerigk                                  : TD-DFT with DH, B97 family of functionals
   V. Asgeirsson, H. Jonsson                     : NEB implementation
   FAccTs GmbH                                   : IRC, NEB, NEB-TS, DLPNO-Multilevel, CI-OPT
                                                   MM, QMMM, 2- and 3-layer-ONIOM, Crystal-QMMM,
                                                   LR-CPCM, SF, NACMEs, symmetry and pop. for TD-DFT,
                                                   nearIR, NL-DFT gradient (VV10), updates on ESD,
                                                   ML-optimized integration grids
   S Lehtola, MJT Oliveira, MAL Marques          : LibXC Library
   Liviu Ungur et al                             : ANISO software


 Your calculation uses the libint2 library for the computation of 2-el integrals
 For citations please refer to: http://libint.valeyev.net

 Your ORCA version has been built with support for libXC version: 5.1.0
 For citations please refer to: https://tddft.org/programs/libxc/

 This ORCA versions uses:
   CBLAS   interface :  Fast vector & matrix operations
   LAPACKE interface :  Fast linear algebra routines
   Shared memory     :  Shared parallel matrices


Your calculation utilizes the atom-pairwise dispersion correction
based on tight binding partial charges (D4)
Cite in your paper:
E.Caldeweyher, C.Bannwarth, S.Grimme, J.Chem.Phys., (2017), 147, 034112.
E.Caldeweyher, S.Ehlert, A.Hansen, H.Neugebauer, S.Grimme, J.Chem.Phys., (2018), in progress.
   

================================================================================

----- Orbital basis set information -----
Your calculation utilizes the basis: def2-SVP
   F. Weigend and R. Ahlrichs, Phys. Chem. Chem. Phys. 7, 3297 (2005).

----- AuxJ basis set information -----
Your calculation utilizes the auxiliary basis: def2/J
   F. Weigend, Phys. Chem. Chem. Phys. 8, 1057 (2006).

================================================================================
                                        WARNINGS
                       Please study these warnings very carefully!
================================================================================


WARNING: Geometry Optimization
  ===> : Switching off AutoStart
         For restart on a previous wavefunction, please use MOREAD

INFO   : the flag for use of the SHARK integral package has been found!

================================================================================
                                       INPUT FILE
================================================================================
NAME = opt2_2.inp
|  1> !B3LYP/G DEF2-SVP OPT FREQ D4 SOSCF
|  2> 
|  3> %geom maxIter 1000 end
|  4> 
|  5> * xyz 1 1
|  6>    C       -3.72729        0.77608        0.04229
|  7>    C       -4.65560       -0.25929        0.26264
|  8>    C       -4.25533       -1.55887        0.17217
|  9>    C       -2.93626       -1.87204       -0.13708
| 10>    C       -2.01416       -0.85755       -0.35682
| 11>    C       -2.39228        0.44929       -0.27126
| 12>    H       -5.67749       -0.01221        0.50203
| 13>    H       -4.96732       -2.34788        0.34199
| 14>    H       -2.62903       -2.90157       -0.20648
| 15>    H       -0.99326       -1.10499       -0.59700
| 16>    H       -1.68077        1.23958       -0.44217
| 17>    N       -4.10651        2.04660        0.12923
| 18>    H       -5.05048        2.29431        0.35092
| 19>    H       -3.45848        2.79181       -0.02392
| 20>    N        6.99069        3.51045       -1.35828
| 21>    O        7.18794        4.72688       -1.82069
| 22>    O        6.25322        2.86568       -0.45184
| 23> **                         ****END OF INPUT****
================================================================================

                       *****************************
                       * Geometry Optimization Run *
                       *****************************

Geometry optimization settings:
Update method            Update   .... BFGS
Choice of coordinates    CoordSys .... Z-matrix Internals
Initial Hessian          InHess   .... Almoef's Model

Convergence Tolerances:
Energy Change            TolE     ....  5.0000e-06 Eh
Max. Gradient            TolMAXG  ....  3.0000e-04 Eh/bohr
RMS Gradient             TolRMSG  ....  1.0000e-04 Eh/bohr
Max. Displacement        TolMAXD  ....  4.0000e-03 bohr
RMS Displacement         TolRMSD  ....  2.0000e-03 bohr
Strict Convergence                ....  False
------------------------------------------------------------------------------
                        ORCA OPTIMIZATION COORDINATE SETUP
------------------------------------------------------------------------------

The optimization will be done in new redundant internal coordinates
Making redundant internal coordinates   ...  (new redundants) done
Evaluating the initial hessian          ...  (Almloef) done
Evaluating the coordinates              ...  done
Calculating the B-matrix                .... done
Calculating the G-matrix                .... done
Diagonalizing the G-matrix              .... done
The first mode is                       ....   55
The number of degrees of freedom        ....   45

    -----------------------------------------------------------------
                    Redundant Internal Coordinates


    -----------------------------------------------------------------
         Definition                    Initial Value    Approx d2E/dq
    -----------------------------------------------------------------
      1. B(C   1,C   0)                  1.4079         0.584940   
      2. B(C   2,C   1)                  1.3628         0.690374   
      3. B(C   3,C   2)                  1.3906         0.623513   
      4. B(C   4,C   3)                  1.3884         0.628405   
      5. B(C   5,C   4)                  1.3631         0.689614   
      6. B(C   5,C   0)                  1.4097         0.581099   
      7. B(H   6,C   1)                  1.0782         0.375989   
      8. B(H   7,C   2)                  1.0762         0.378762   
      9. B(H   8,C   3)                  1.0766         0.378224   
     10. B(H   9,C   4)                  1.0776         0.376929   
     11. B(H  10,C   5)                  1.0770         0.377659   
     12. B(N  11,C   0)                  1.3288         0.700792   
     13. B(H  12,N  11)                  1.0008         0.447594   
     14. B(H  13,N  11)                  0.9994         0.449944   
     15. B(N  14,H  10)                  9.0106         0.000000   
     16. B(O  15,N  14)                  1.3162         0.657242   
     17. B(O  16,H  10)                  8.0989         0.000000   
     18. B(O  16,H   9)                  8.2643         0.000000   
     19. B(O  16,C   5)                  8.9787         0.000000   
     20. B(O  16,C   4)                  9.0676         0.000000   
     21. B(O  16,N  14)                  1.3346         0.614271   
     22. A(C   1,C   0,C   5)          119.2571         0.424591   
     23. A(C   1,C   0,N  11)          120.3139         0.436242   
     24. A(C   5,C   0,N  11)          120.4290         0.435725   
     25. A(C   2,C   1,H   6)          120.7709         0.362065   
     26. A(C   0,C   1,H   6)          119.4137         0.352013   
     27. A(C   0,C   1,C   2)          119.8154         0.437938   
     28. A(C   1,C   2,C   3)          120.5392         0.443018   
     29. A(C   1,C   2,H   7)          119.6245         0.362520   
     30. A(C   3,C   2,H   7)          119.8363         0.356286   
     31. A(C   2,C   3,H   8)          120.0255         0.356200   
     32. A(C   4,C   3,H   8)          119.9330         0.356673   
     33. A(C   2,C   3,C   4)          120.0415         0.435562   
     34. A(C   3,C   4,O  16)          155.1214         0.089566   
     35. A(C   3,C   4,H   9)          119.7818         0.356465   
     36. A(C   5,C   4,O  16)           81.9473         0.089578   
     37. A(C   3,C   4,C   5)          120.4205         0.443557   
     38. A(C   5,C   4,H   9)          119.7977         0.362152   
     39. A(H   9,C   4,O  16)           39.4794         0.089436   
     40. A(C   0,C   5,H  10)          119.3932         0.351884   
     41. A(H  10,C   5,O  16)           33.1994         0.089470   
     42. A(C   4,C   5,O  16)           89.4071         0.089623   
     43. A(C   0,C   5,O  16)          148.6430         0.089599   
     44. A(C   0,C   5,C   4)          119.9262         0.437332   
     45. A(C   4,C   5,H  10)          120.6806         0.362271   
     46. A(H  12,N  11,H  13)          117.4518         0.306821   
     47. A(C   0,N  11,H  13)          121.1923         0.368712   
     48. A(C   0,N  11,H  12)          121.3558         0.368380   
     49. A(O  15,N  14,O  16)          140.1653         0.426463   
     50. A(C   4,O  16,C   5)            8.6456         0.089001   
     51. A(C   5,O  16,N  14)          132.5117         0.089597   
     52. A(C   4,O  16,N  14)          135.1772         0.089554   
     53. D(H   6,C   1,C   0,C   5)   -179.9629         0.023526   
     54. D(C   2,C   1,C   0,C   5)      0.0628         0.023526   
     55. D(H   6,C   1,C   0,N  11)      0.0389         0.023526   
     56. D(C   2,C   1,C   0,N  11)   -179.9353         0.023526   
     57. D(C   3,C   2,C   1,C   0)     -0.0367         0.033491   
     58. D(H   7,C   2,C   1,C   0)    179.9505         0.033491   
     59. D(C   3,C   2,C   1,H   6)    179.9895         0.033491   
     60. D(H   7,C   2,C   1,H   6)     -0.0234         0.033491   
     61. D(H   8,C   3,C   2,C   1)   -179.9971         0.026920   
     62. D(H   8,C   3,C   2,H   7)      0.0158         0.026920   
     63. D(C   4,C   3,C   2,H   7)   -179.9920         0.026920   
     64. D(C   4,C   3,C   2,C   1)     -0.0049         0.026920   
     65. D(H   9,C   4,C   3,C   2)   -179.9494         0.029747   
     66. D(C   5,C   4,C   3,H   8)   -179.9878         0.029747   
     67. D(O  16,C   4,C   3,H   8)    -28.3376         0.029747   
     68. D(O  16,C   4,C   3,C   2)    151.6702         0.029747   
     69. D(H   9,C   4,C   3,H   8)      0.0428         0.029747   
     70. D(C   5,C   4,C   3,C   2)      0.0200         0.029747   
     71. D(H  10,C   5,C   4,O  16)     11.7202         0.039098   
     72. D(H  10,C   5,C   4,H   9)      0.0497         0.039098   
     73. D(H  10,C   5,C   4,C   3)   -179.9196         0.039098   
     74. D(C   0,C   5,C   4,H   9)    179.9763         0.039098   
     75. D(C   0,C   5,C   4,C   3)      0.0069         0.039098   
     76. D(O  16,C   5,C   0,N  11)     22.7759         0.025197   
     77. D(O  16,C   5,C   0,C   1)   -157.2222         0.025197   
     78. D(C   0,C   5,C   4,O  16)   -168.3532         0.039098   
     79. D(H  10,C   5,C   0,C   1)    179.8795         0.025197   
     80. D(C   4,C   5,C   0,N  11)    179.9502         0.025197   
     81. D(H  10,C   5,C   0,N  11)     -0.1223         0.025197   
     82. D(O  16,C   5,C   4,C   3)    168.3601         0.039098   
     83. D(C   4,C   5,C   0,C   1)     -0.0480         0.025197   
     84. D(O  16,C   5,C   4,H   9)    -11.6705         0.039098   
     85. D(H  13,N  11,C   0,C   5)     -0.0445         0.040650   
     86. D(H  13,N  11,C   0,C   1)    179.9536         0.040650   
     87. D(H  12,N  11,C   0,C   5)   -179.9992         0.040650   
     88. D(H  12,N  11,C   0,C   1)     -0.0011         0.040650   
     89. D(C   5,O  16,N  14,O  15)     75.4270         0.041980   
     90. D(C   4,O  16,C   5,H  10)   -161.3943         0.001500   
     91. D(C   4,O  16,C   5,C   0)    160.3530         0.001500   
     92. D(N  14,O  16,C   5,H  10)    -49.5516         0.001500   
     93. D(N  14,O  16,C   5,C   4)    111.8427         0.001500   
     94. D(N  14,O  16,C   5,C   0)    -87.8043         0.001500   
     95. D(C   5,O  16,C   4,H   9)    163.9731         0.001500   
     96. D(C   5,O  16,C   4,C   3)   -155.5713         0.001500   
     97. D(N  14,O  16,C   4,H   9)     87.8918         0.001500   
     98. D(C   4,O  16,N  14,O  15)     86.8434         0.041980   
     99. D(N  14,O  16,C   4,C   5)    -76.0813         0.001500   
    100. D(N  14,O  16,C   4,C   3)    128.3474         0.001500   
    -----------------------------------------------------------------

Number of atoms                         .... 17
Number of degrees of freedom            .... 100

         *************************************************************
         *                GEOMETRY OPTIMIZATION CYCLE   1            *
         *************************************************************
---------------------------------
CARTESIAN COORDINATES (ANGSTROEM)
---------------------------------
  C     -3.727290    0.776080    0.042290
  C     -4.655600   -0.259290    0.262640
  C     -4.255330   -1.558870    0.172170
  C     -2.936260   -1.872040   -0.137080
  C     -2.014160   -0.857550   -0.356820
  C     -2.392280    0.449290   -0.271260
  H     -5.677490   -0.012210    0.502030
  H     -4.967320   -2.347880    0.341990
  H     -2.629030   -2.901570   -0.206480
  H     -0.993260   -1.104990   -0.597000
  H     -1.680770    1.239580   -0.442170
  N     -4.106510    2.046600    0.129230
  H     -5.050480    2.294310    0.350920
  H     -3.458480    2.791810   -0.023920
  N      6.990690    3.510450   -1.358280
  O      7.187940    4.726880   -1.820690
  O      6.253220    2.865680   -0.451840

----------------------------
CARTESIAN COORDINATES (A.U.)
----------------------------
  NO LB      ZA    FRAG     MASS         X           Y           Z
   0 C     6.0000    0    12.011   -7.043557    1.466579    0.079917
   1 C     6.0000    0    12.011   -8.797809   -0.489987    0.496318
   2 C     6.0000    0    12.011   -8.041408   -2.945837    0.325354
   3 C     6.0000    0    12.011   -5.548727   -3.537643   -0.259044
   4 C     6.0000    0    12.011   -3.806211   -1.620535   -0.674292
   5 C     6.0000    0    12.011   -4.520754    0.849035   -0.512607
   6 H     1.0000    0     1.008  -10.728901   -0.023074    0.948699
   7 H     1.0000    0     1.008   -9.386874   -4.436850    0.646267
   8 H     1.0000    0     1.008   -4.968147   -5.483173   -0.390191
   9 H     1.0000    0     1.008   -1.876989   -2.088128   -1.128167
  10 H     1.0000    0     1.008   -3.176195    2.342467   -0.835580
  11 N     7.0000    0    14.007   -7.760179    3.867514    0.244209
  12 H     1.0000    0     1.008   -9.544024    4.335618    0.663143
  13 H     1.0000    0     1.008   -6.535580    5.275756   -0.045202
  14 N     7.0000    0    14.007   13.210490    6.633789   -2.566777
  15 O     8.0000    0    15.999   13.583238    8.932509   -3.440605
  16 O     8.0000    0    15.999   11.816873    5.415350   -0.853854

--------------------------------
INTERNAL COORDINATES (ANGSTROEM)
--------------------------------
 C      0   0   0     0.000000000000     0.00000000     0.00000000
 C      1   0   0     1.407943399253     0.00000000     0.00000000
 C      2   1   0     1.362831269894   119.81542137     0.00000000
 C      3   2   1     1.390559842761   120.53917794   359.96333963
 C      4   3   2     1.388432222941   120.04154600     0.00000000
 C      5   4   3     1.363130967149   120.42048709     0.00000000
 H      2   1   3     1.078246386778   119.41365700   179.97423087
 H      3   2   1     1.076245962873   119.62447231   179.95048542
 H      4   3   2     1.076633017235   120.02547574   180.00291835
 H      5   4   3     1.077566608614   119.78176989   180.05064349
 H      6   5   4     1.077039921405   120.68055736   180.08035850
 N      1   2   3     1.328754094029   120.31389673   180.06467537
 H     12   1   2     1.000792716350   121.35579483     0.00000000
 H     12   1   2     0.999367673832   121.19234060   179.95357819
 N     11   6   5     9.010567497145   146.80504479   346.95404669
 O     15  11   6     1.316219022617   114.38434734   167.80419446
 O     15  11   6     1.334624976314    43.73224630   306.03228103

---------------------------
INTERNAL COORDINATES (A.U.)
---------------------------
 C      0   0   0     0.000000000000     0.00000000     0.00000000
 C      1   0   0     2.660627436650     0.00000000     0.00000000
 C      2   1   0     2.575377866843   119.81542137     0.00000000
 C      3   2   1     2.627777275647   120.53917794   359.96333963
 C      4   3   2     2.623756656869   120.04154600     0.00000000
 C      5   4   3     2.575944212578   120.42048709     0.00000000
 H      2   1   3     2.037590375901   119.41365700   179.97423087
 H      3   2   1     2.033810122568   119.62447231   179.95048542
 H      4   3   2     2.034541549311   120.02547574   180.00291835
 H      5   4   3     2.036305781339   119.78176989   180.05064349
 H      6   5   4     2.035310486755   120.68055736   180.08035850
 N      1   2   3     2.510981337042   120.31389673   180.06467537
 H     12   1   2     1.891224150725   121.35579483     0.00000000
 H     12   1   2     1.888531210636   121.19234060   179.95357819
 N     11   6   5    17.027504880816   146.80504479   346.95404669
 O     15  11   6     2.487293485004   114.38434734   167.80419446
 O     15  11   6     2.522075696724    43.73224630   306.03228103

---------------------
BASIS SET INFORMATION
---------------------
There are 4 groups of distinct atoms

 Group   1 Type C   : 7s4p1d contracted to 3s2p1d pattern {511/31/1}
 Group   2 Type H   : 4s1p contracted to 2s1p pattern {31/1}
 Group   3 Type N   : 7s4p1d contracted to 3s2p1d pattern {511/31/1}
 Group   4 Type O   : 7s4p1d contracted to 3s2p1d pattern {511/31/1}

Atom   0C    basis set group =>   1
Atom   1C    basis set group =>   1
Atom   2C    basis set group =>   1
Atom   3C    basis set group =>   1
Atom   4C    basis set group =>   1
Atom   5C    basis set group =>   1
Atom   6H    basis set group =>   2
Atom   7H    basis set group =>   2
Atom   8H    basis set group =>   2
Atom   9H    basis set group =>   2
Atom  10H    basis set group =>   2
Atom  11N    basis set group =>   3
Atom  12H    basis set group =>   2
Atom  13H    basis set group =>   2
Atom  14N    basis set group =>   3
Atom  15O    basis set group =>   4
Atom  16O    basis set group =>   4
---------------------------------
AUXILIARY/J BASIS SET INFORMATION
---------------------------------
There are 4 groups of distinct atoms

 Group   1 Type C   : 12s5p4d2f1g contracted to 6s4p3d1f1g pattern {711111/2111/211/2/1}
 Group   2 Type H   : 5s2p1d contracted to 3s1p1d pattern {311/2/1}
 Group   3 Type N   : 12s5p4d2f1g contracted to 6s4p3d1f1g pattern {711111/2111/211/2/1}
 Group   4 Type O   : 12s5p4d2f1g contracted to 6s4p3d1f1g pattern {711111/2111/211/2/1}

Atom   0C    basis set group =>   1
Atom   1C    basis set group =>   1
Atom   2C    basis set group =>   1
Atom   3C    basis set group =>   1
Atom   4C    basis set group =>   1
Atom   5C    basis set group =>   1
Atom   6H    basis set group =>   2
Atom   7H    basis set group =>   2
Atom   8H    basis set group =>   2
Atom   9H    basis set group =>   2
Atom  10H    basis set group =>   2
Atom  11N    basis set group =>   3
Atom  12H    basis set group =>   2
Atom  13H    basis set group =>   2
Atom  14N    basis set group =>   3
Atom  15O    basis set group =>   4
Atom  16O    basis set group =>   4
------------------------------------------------------------------------------
                           ORCA GTO INTEGRAL CALCULATION
                           -- RI-GTO INTEGRALS CHOSEN --
------------------------------------------------------------------------------
------------------------------------------------------------------------------
                   ___                                                        
                  /   \      - P O W E R E D   B Y -                         
                 /     \                                                     
                 |  |  |   _    _      __       _____    __    __             
                 |  |  |  | |  | |    /  \     |  _  \  |  |  /  |          
                  \  \/   | |  | |   /    \    | | | |  |  | /  /          
                 / \  \   | |__| |  /  /\  \   | |_| |  |  |/  /          
                |  |  |   |  __  | /  /__\  \  |    /   |      \           
                |  |  |   | |  | | |   __   |  |    \   |  |\   \          
                \     /   | |  | | |  |  |  |  | |\  \  |  | \   \       
                 \___/    |_|  |_| |__|  |__|  |_| \__\ |__|  \__/        
                                                                              
                      - O R C A' S   B I G   F R I E N D -                    
                                      &                                       
                       - I N T E G R A L  F E E D E R -                       
                                                                              
 v1 FN, 2020, v2 2021                                                         
------------------------------------------------------------------------------


Reading SHARK input file opt2_2.SHARKINP.tmp ... ok
----------------------
SHARK INTEGRAL PACKAGE
----------------------

Number of atoms                             ...     17
Number of basis functions                   ...    175
Number of shells                            ...     81
Maximum angular momentum                    ...      2
Integral batch strategy                     ... SHARK/LIBINT Hybrid
RI-J (if used) integral strategy            ... SPLIT-RIJ (Revised 2003 algorithm where possible)
Printlevel                                  ...      1
Contraction scheme used                     ... SEGMENTED contraction
Coulomb Range Separation                    ... NOT USED
Exchange Range Separation                   ... NOT USED
Finite Nucleus Model                        ... NOT USED
Auxiliary Coulomb fitting basis             ... AVAILABLE
   # of basis functions in Aux-J            ...    567
   # of shells in Aux-J                     ...    185
   Maximum angular momentum in Aux-J        ...      4
Auxiliary J/K fitting basis                 ... NOT available
Auxiliary Correlation fitting basis         ... NOT available
Auxiliary 'external' fitting basis          ... NOT available
Integral threshold                          ...     2.500000e-11
Primitive cut-off                           ...     2.500000e-12
Primitive pair pre-selection threshold      ...     2.500000e-12

Calculating pre-screening integrals         ... done (  0.1 sec) Dimension = 81
Organizing shell pair data                  ... done (  0.1 sec)
Shell pair information
Total number of shell pairs                 ...      3321
Shell pairs after pre-screening             ...      2140
Total number of primitive shell pairs       ...     12241
Primitive shell pairs kept                  ...      5940
          la=0 lb=0:    658 shell pairs
          la=1 lb=0:    772 shell pairs
          la=1 lb=1:    246 shell pairs
          la=2 lb=0:    267 shell pairs
          la=2 lb=1:    163 shell pairs
          la=2 lb=2:     34 shell pairs

Calculating one electron integrals          ... done (  0.1 sec)
Calculating RI/J V-Matrix + Cholesky decomp.... done (  0.1 sec)
Calculating Nuclear repulsion               ... done (  0.0 sec) ENN=    388.249569226613 Eh

SHARK setup successfully completed in   0.5 seconds

Maximum memory used throughout the entire GTOINT-calculation: 18.7 MB
-------------------------------------------------------------------------------
                                 ORCA SCF
-------------------------------------------------------------------------------

------------
SCF SETTINGS
------------
Hamiltonian:
 Density Functional     Method          .... DFT(GTOs)
 Exchange Functional    Exchange        .... B88
   X-Alpha parameter    XAlpha          ....  0.666667
   Becke's b parameter  XBeta           ....  0.004200
 Correlation Functional Correlation     .... LYP
 LDA part of GGA corr.  LDAOpt          .... VWN-3
 Gradients option       PostSCFGGA      .... off
 Hybrid DFT is turned on
   Fraction HF Exchange ScalHFX         ....  0.200000
   Scaling of DF-GGA-X  ScalDFX         ....  0.720000
   Scaling of DF-GGA-C  ScalDFC         ....  0.810000
   Scaling of DF-LDA-C  ScalLDAC        ....  1.000000
   Perturbative correction              ....  0.000000
   Density functional embedding theory  .... OFF
   NL short-range parameter             ....  4.800000
 RI-approximation to the Coulomb term is turned on
   Number of AuxJ basis functions       .... 567
   RIJ-COSX (HFX calculated with COS-X)).... on


General Settings:
 Integral files         IntName         .... opt2_2
 Hartree-Fock type      HFTyp           .... RHF
 Total Charge           Charge          ....    1
 Multiplicity           Mult            ....    1
 Number of Electrons    NEL             ....   72
 Basis Dimension        Dim             ....  175
 Nuclear Repulsion      ENuc            ....    388.2495692266 Eh

Convergence Acceleration:
 DIIS                   CNVDIIS         .... on
   Start iteration      DIISMaxIt       ....    12
   Startup error        DIISStart       ....  0.200000
   # of expansion vecs  DIISMaxEq       ....     5
   Bias factor          DIISBfac        ....   1.050
   Max. coefficient     DIISMaxC        ....  10.000
 Trust-Rad. Augm. Hess. CNVTRAH         .... auto
   Auto Start mean grad. ratio tolernc. ....  1.125000
   Auto Start start iteration           ....    20
   Auto Start num. interpolation iter.  ....    10
   Max. Number of Micro iterations      ....    16
   Max. Number of Macro iterations      .... Maxiter - #DIIS iter
   Number of Davidson start vectors     ....     2
   Converg. threshold I  (grad. norm)   ....   1.000e-05
   Converg. threshold II (energy diff.) ....   1.000e-08
   Grad. Scal. Fac. for Micro threshold ....   0.100
   Minimum threshold for Micro iter.    ....   0.010
   NR start threshold (gradient norm)   ....   0.001
   Initial trust radius                 ....   0.400
   Minimum AH scaling param. (alpha)    ....   1.000
   Maximum AH scaling param. (alpha)    .... 1000.000
   Orbital update algorithm             .... Taylor
   White noise on init. David. guess    .... on
   Maximum white noise                  ....   0.010
   Quad. conv. algorithm                .... NR
 SOSCF                  CNVSOSCF        .... on
   Start iteration      SOSCFMaxIt      ....   150
   Startup grad/error   SOSCFStart      ....  0.003300
 Level Shifting         CNVShift        .... on
   Level shift para.    LevelShift      ....    0.2500
   Turn off err/grad.   ShiftErr        ....    0.0010
 Zerner damping         CNVZerner       .... off
 Static damping         CNVDamp         .... on
   Fraction old density DampFac         ....    0.7000
   Max. Damping (<1)    DampMax         ....    0.9800
   Min. Damping (>=0)   DampMin         ....    0.0000
   Turn off err/grad.   DampErr         ....    0.1000
 Fernandez-Rico         CNVRico         .... off

SCF Procedure:
 Maximum # iterations   MaxIter         ....   125
 SCF integral mode      SCFMode         .... Direct
   Integral package                     .... SHARK and LIBINT hybrid scheme
 Reset frequency        DirectResetFreq ....    20
 Integral Threshold     Thresh          ....  2.500e-11 Eh
 Primitive CutOff       TCut            ....  2.500e-12 Eh

Convergence Tolerance:
 Convergence Check Mode ConvCheckMode   .... Total+1el-Energy
 Convergence forced     ConvForced      .... 0
 Energy Change          TolE            ....  1.000e-08 Eh
 1-El. energy change                    ....  1.000e-05 Eh
 Orbital Gradient       TolG            ....  1.000e-05
 Orbital Rotation angle TolX            ....  1.000e-05
 DIIS Error             TolErr          ....  5.000e-07


Diagonalization of the overlap matrix:
Smallest eigenvalue                        ... 2.702e-04
Time for diagonalization                   ...    0.014 sec
Threshold for overlap eigenvalues          ... 1.000e-08
Number of eigenvalues below threshold      ... 0
Time for construction of square roots      ...    0.015 sec
Total time needed                          ...    0.029 sec

Time for model grid setup =    1.145 sec

------------------------------
INITIAL GUESS: MODEL POTENTIAL
------------------------------
Loading Hartree-Fock densities                     ... done
Calculating cut-offs                               ... done
Initializing the effective Hamiltonian             ... done
Setting up the integral package (SHARK)            ... done
Starting the Coulomb interaction                   ... done (   0.6 sec)
Reading the grid                                   ... done
Mapping shells                                     ... done
Starting the XC term evaluation                    ... done (   0.8 sec)
  promolecular density results
     # of electrons  =     72.997261660
     EX              =    -62.356090303
     EC              =     -2.488026179
     EX+EC           =    -64.844116482
Transforming the Hamiltonian                       ... done (   0.0 sec)
Diagonalizing the Hamiltonian                      ... done (   0.0 sec)
Back transforming the eigenvectors                 ... done (   0.0 sec)
Now organizing SCF variables                       ... done
                      ------------------
                      INITIAL GUESS DONE (   2.9 sec)
                      ------------------
-------------------
DFT GRID GENERATION
-------------------

General Integration Accuracy     IntAcc      ... 4.388
Radial Grid Type                 RadialGrid  ... OptM3 with GC (2021)
Angular Grid (max. ang.)         AngularGrid ... 4 (Lebedev-302)
Angular grid pruning method      GridPruning ... 4 (adaptive)
Weight generation scheme         WeightScheme... Becke
Basis function cutoff            BFCut       ... 1.0000e-11
Integration weight cutoff        WCut        ... 1.0000e-14
Angular grids for H and He will be reduced by one unit
Partially contracted basis set               ... off
Rotationally invariant grid construction     ... off

Total number of grid points                  ...    83086
Total number of batches                      ...     1310
Average number of points per batch           ...       63
Average number of grid points per atom       ...     4887
Time for grid setup =    2.737 sec

--------------------
COSX GRID GENERATION
--------------------

GRIDX 1
-------
General Integration Accuracy     IntAcc      ... 3.816
Radial Grid Type                 RadialGrid  ... OptM3 with GC (2021)
Angular Grid (max. ang.)         AngularGrid ... 1 (Lebedev-50)
Angular grid pruning method      GridPruning ... 4 (adaptive)
Weight generation scheme         WeightScheme... Becke
Basis function cutoff            BFCut       ... 1.0000e-11
Integration weight cutoff        WCut        ... 1.0000e-14
Angular grids for H and He will be reduced by one unit
Partially contracted basis set               ... on
Rotationally invariant grid construction     ... off

Total number of grid points                  ...    10612
Total number of batches                      ...      172
Average number of points per batch           ...       61
Average number of grid points per atom       ...      624
UseSFitting                                  ... on

GRIDX 2
-------
General Integration Accuracy     IntAcc      ... 4.020
Radial Grid Type                 RadialGrid  ... OptM3 with GC (2021)
Angular Grid (max. ang.)         AngularGrid ... 2 (Lebedev-110)
Angular grid pruning method      GridPruning ... 4 (adaptive)
Weight generation scheme         WeightScheme... Becke
Basis function cutoff            BFCut       ... 1.0000e-11
Integration weight cutoff        WCut        ... 1.0000e-14
Angular grids for H and He will be reduced by one unit
Partially contracted basis set               ... on
Rotationally invariant grid construction     ... off

Total number of grid points                  ...    23608
Total number of batches                      ...      376
Average number of points per batch           ...       62
Average number of grid points per atom       ...     1389
UseSFitting                                  ... on

GRIDX 3
-------
General Integration Accuracy     IntAcc      ... 4.338
Radial Grid Type                 RadialGrid  ... OptM3 with GC (2021)
Angular Grid (max. ang.)         AngularGrid ... 3 (Lebedev-194)
Angular grid pruning method      GridPruning ... 4 (adaptive)
Weight generation scheme         WeightScheme... Becke
Basis function cutoff            BFCut       ... 1.0000e-11
Integration weight cutoff        WCut        ... 1.0000e-14
Angular grids for H and He will be reduced by one unit
Partially contracted basis set               ... on
Rotationally invariant grid construction     ... off

Total number of grid points                  ...    52128
Total number of batches                      ...      824
Average number of points per batch           ...       63
Average number of grid points per atom       ...     3066
UseSFitting                                  ... on

Time for X-Grid setup             =    3.105 sec

--------------
SCF ITERATIONS
--------------
ITER       Energy         Delta-E        Max-DP      RMS-DP      [F,P]     Damp
               ***  Starting incremental Fock matrix formation  ***
  0   -491.4324890117   0.000000000000 0.27959188  0.00524551  0.2284838 0.7000
  1   -491.6623009103  -0.229811898645 0.06026020  0.00189056  0.0930593 0.7000
                               ***Turning on DIIS***
  2   -491.7845578237  -0.122256913327 0.13312316  0.00398253  0.0370887 0.0000
  3   -491.7739802015   0.010577622109 0.00839055  0.00019834  0.1021025 0.7000
  4   -491.7802443801  -0.006264178596 0.02558533  0.00065248  0.0916213 0.0000
  5   -491.7971568070  -0.016912426892 0.03372131  0.00051351  0.0664079 0.0000
  6   -491.8060871640  -0.008930356967 0.26707943  0.00996524  0.0612666 0.0000
  7   -491.3708872573   0.435199906735 0.00474946  0.00009025  0.2189601 0.7000
  8   -491.3733069814  -0.002419724110 0.00663997  0.00010663  0.2192507 0.7000
  9   -491.3781494702  -0.004842488784 0.00937632  0.00016099  0.2184763 0.7000
 10   -491.3877808278  -0.009631357660 0.00781132  0.00014078  0.2145367 0.7000
 11   -491.3957390214  -0.007958193543 0.22292468  0.00625898  0.2143884 0.7000
 12   -491.3866745655   0.009064455909 0.21198101  0.00874406  0.0884750 0.0000
 13   -491.5829363523  -0.196261786810 0.02824761  0.00045983  0.2254300 0.7000
 14   -491.6285068216  -0.045570469300 0.02658942  0.00047452  0.1999832 0.7000
 15   -491.6704931427  -0.041986321169 0.02142528  0.00041076  0.1723311 0.7000
 16   -491.7030278382  -0.032534695417 0.08672882  0.00314725  0.1489791 0.7000
 17   -491.8992247820  -0.196196943853 0.23889624  0.00748227  0.0958717 0.0000
 18   -491.4524429664   0.446781815611 0.01635251  0.00036304  0.1734373 0.7000
 19   -491.4730130395  -0.020570073068 0.01779849  0.00038935  0.1647156 0.7000
               *** Restarting incremental Fock matrix formation ***
                                   *** Resetting DIIS ***

 WARNING: the maximum gradient error descreased on average only by a factor   1.0
          during the last 20 iterations

                      *** Initiating the TRAH-SCF procedure ***


TRAH GRIDX
----------

General Integration Accuracy     IntAcc      ... 3.067
Radial Grid Type                 RadialGrid  ... OptM3 with GC (2021)
Angular Grid (max. ang.)         AngularGrid ... 1 (Lebedev-50)
Angular grid pruning method      GridPruning ... 4 (adaptive)
Weight generation scheme         WeightScheme... Becke
Basis function cutoff            BFCut       ... 1.0000e-11
Integration weight cutoff        WCut        ... 1.0000e-14
Angular grids for H and He will be reduced by one unit
Partially contracted basis set               ... on
Rotationally invariant grid construction     ... off

Total number of grid points                  ...     5630
Total number of batches                      ...       99
Average number of points per batch           ...       56
Average number of grid points per atom       ...      331


TRAH GRID
---------

General Integration Accuracy     IntAcc      ... 3.467
Radial Grid Type                 RadialGrid  ... OptM3 with GC (2021)
Angular Grid (max. ang.)         AngularGrid ... 1 (Lebedev-50)
Angular grid pruning method      GridPruning ... 4 (adaptive)
Weight generation scheme         WeightScheme... Becke
Basis function cutoff            BFCut       ... 1.0000e-11
Integration weight cutoff        WCut        ... 1.0000e-14
Angular grids for H and He will be reduced by one unit
Partially contracted basis set               ... off
Rotationally invariant grid construction     ... off

Total number of grid points                  ...    12337
Total number of batches                      ...      202
Average number of points per batch           ...       61
Average number of grid points per atom       ...      726

 --------------------------------------------------------------------------------------------
   Iter.        energy            ||Error||_2        Shift      TRadius  Mac/Mic        Rej.
 --------------------------------------------------------------------------------------------
WARNING: 76 diagonal Hessian elements are negative!
    0       -491.537441863170     1.137295e+00                     0.400 (TRAH MAcro)   No
WARNING : negative HOMO - LUMO gap : -0.705298
    0     dE    -6.695053e-02     6.501947e-01    -1.3212e-01      0.116 (TRAH MIcro)
    0     dE    -7.930021e-02     3.917068e-01    -1.5464e-01      0.160 (TRAH MIcro)
    0     dE    -7.377516e-02     1.541536e-01    -2.7364e+00      0.111 (TRAH MIcro)
    0     dE    -7.500358e-02     3.107689e-02    -2.7531e+00      0.113 (TRAH MIcro)
    0     dE    -7.624255e-02     3.490345e-02    -2.7552e+00      0.117 (TRAH MIcro)
    0     dE    -6.094130e-02     5.560416e-02    -6.5322e+00      0.076 (TRAH MIcro)
    0     dE    -6.097527e-02     2.057774e-02    -6.5371e+00      0.076 (TRAH MIcro)
    0     dE    -6.097343e-02     6.388759e-03    -6.5385e+00      0.076 (TRAH MIcro)
WARNING: 59 diagonal Hessian elements are negative!
    1       -491.598421128185     4.963408e-01                     0.480 (TRAH MAcro)   No
WARNING : negative HOMO - LUMO gap : -0.616689
    1     dE    -1.519161e-02     1.840062e-01    -3.0271e-02      0.061 (TRAH MIcro)
    1     dE    -1.856284e-02     1.371707e-01    -3.6823e-02      0.091 (TRAH MIcro)
    1     dE    -4.279221e-02     3.744397e+00    -1.4738e-01      0.480 (TRAH MIcro)
    1     dE    -1.395065e-02     4.371901e-02    -5.3191e+00      0.040 (TRAH MIcro)
    1     dE    -1.405241e-02     1.015150e-02    -5.3466e+00      0.040 (TRAH MIcro)
    1     dE    -1.405865e-02     1.172946e-03    -5.3479e+00      0.040 (TRAH MIcro)
WARNING: 52 diagonal Hessian elements are negative!
    2       -491.612488041912     2.167317e-01                     0.576 (TRAH MAcro)   No
WARNING : negative HOMO - LUMO gap : -0.577395
    2     dE    -3.618620e-03     1.052216e-01    -7.2292e-03      0.033 (TRAH MIcro)
    2     dE    -4.873156e-03     6.541824e-02    -9.7161e-03      0.056 (TRAH MIcro)
    2     dE    -5.200325e-03     7.173476e-02    -1.0362e-02      0.061 (TRAH MIcro)
    2     dE    -3.368069e-01     1.135794e+00    -2.0096e+00      0.576 (TRAH MIcro)
    2     dE    -3.394096e-03     2.189206e-02    -4.7015e+00      0.022 (TRAH MIcro)
    2     dE    -3.428345e-03     4.534234e-03    -4.7353e+00      0.022 (TRAH MIcro)
WARNING: 49 diagonal Hessian elements are negative!
    3       -491.615918123469     1.045709e-01                     0.691 (TRAH MAcro)   No
WARNING : negative HOMO - LUMO gap : -0.560454
    3     dE    -1.175684e-03     6.566556e-02    -2.3502e-03      0.022 (TRAH MIcro)
    3     dE    -1.650946e-03     4.092536e-02    -3.2972e-03      0.038 (TRAH MIcro)
    3     dE    -1.782663e-03     2.974043e-02    -3.5592e-03      0.041 (TRAH MIcro)
    3     dE    -1.369554e-03     1.180059e-02    -2.0042e+00      0.020 (TRAH MIcro)
    3     dE    -1.379343e-03     4.417458e-03    -2.0213e+00      0.020 (TRAH MIcro)
WARNING: 48 diagonal Hessian elements are negative!
    4       -491.617298480170     4.088178e-02                     0.829 (TRAH MAcro)   No
WARNING : negative HOMO - LUMO gap : -0.550751
    4     dE    -2.893844e-04     4.854470e-02    -5.7865e-04      0.014 (TRAH MIcro)
    4     dE    -1.149502e-03     8.802906e-01    -2.2586e-03      0.134 (TRAH MIcro)
    4     dE    -2.627757e-01     7.644344e-01    -2.0252e+00      0.508 (TRAH MIcro)
    4     dE    -7.692259e-01     2.361062e-01    -2.2336e+00      0.829 (TRAH MIcro)
    4     dE    -7.720135e-01     7.565457e-02    -2.2418e+00      0.829 (TRAH MIcro)
    4     dE    -7.723233e-01     1.524346e-02    -2.2427e+00      0.829 (TRAH MIcro)
    4     dE    -7.723489e-01     6.706418e-03    -2.2428e+00      0.829 (TRAH MIcro)
    4     dE    -7.723552e-01     3.465955e-03    -2.2428e+00      0.829 (TRAH MIcro)
WARNING: 1 diagonal Hessian elements are negative!
    5       -491.873367875825     1.144566e+00                     0.829 (TRAH MAcro)   No
WARNING : negative HOMO - LUMO gap : -0.007113
    5     dE    -6.753338e-02     7.244029e-01    -1.3320e-01      0.118 (TRAH MIcro)
    5     dE    -8.155277e-02     2.630862e-01    -1.5852e-01      0.170 (TRAH MIcro)
    5     dE    -8.406545e-02     7.038195e-02    -1.6281e-01      0.181 (TRAH MIcro)
    5     dE    -8.428252e-02     3.155292e-02    -1.6320e-01      0.181 (TRAH MIcro)
    5     dE    -8.433469e-02     1.039641e-02    -1.6331e-01      0.181 (TRAH MIcro)
    5     dE    -8.434073e-02     4.937217e-03    -1.6332e-01      0.181 (TRAH MIcro)
    6       -491.957244798667     3.649426e-02                     0.995 (TRAH MAcro)   No
WARNING : small    HOMO - LUMO gap : 0.010090
    6     dE    -8.232258e-05     4.235612e-02    -1.6464e-04      0.005 (TRAH MIcro)
    6     dE    -1.011347e-04     3.795105e-02    -2.0226e-04      0.007 (TRAH MIcro)
    6     dE    -1.402025e-04     2.357458e-02    -2.8037e-04      0.011 (TRAH MIcro)
    6     dE    -1.546485e-04     3.985867e-03    -3.0925e-04      0.012 (TRAH MIcro)
    6     dE    -1.554256e-04     2.359935e-03    -3.1080e-04      0.013 (TRAH MIcro)
    7       -491.957400218756     2.351415e-03                     1.194 (TRAH MAcro)   No
WARNING : small    HOMO - LUMO gap : 0.009501
    7     dE    -2.079884e-07     2.402013e-03    -4.1598e-07      0.000 (TRAH MIcro)
    7     dE    -2.533199e-07     1.944530e-03    -5.0664e-07      0.000 (TRAH MIcro)
    7     dE    -3.232811e-07     7.589557e-04    -6.4656e-07      0.000 (TRAH MIcro)
    7     dE    -3.663607e-07     2.696411e-04    -7.3272e-07      0.000 (TRAH MIcro)
    7     dE    -3.725283e-07     1.286702e-04    -7.4506e-07      0.001 (TRAH MIcro)
    8       -491.957400597527     1.286835e-04                           (NR   MAcro)
WARNING : small    HOMO - LUMO gap : 0.009503
    8     dE    -8.622651e-10     6.006981e-05                           (NR   MIcro)
    8     dE    -1.176451e-09     2.631006e-05                           (NR   MIcro)
    8     dE    -1.187906e-09     2.302743e-05                           (NR   MIcro)
    8     dE    -1.218979e-09     1.609514e-05                           (NR   MIcro)
    8     dE    -1.238617e-09     7.225133e-06                           (NR   MIcro)
    8     dE    -1.243880e-09     2.651495e-06                           (NR   MIcro)
    8     dE    -1.244230e-09     9.293753e-07                           (NR   MIcro)
    9       -491.957400598598     9.325933e-07                           (NR   MAcro)
WARNING : small    HOMO - LUMO gap : 0.009503

               *****************************************************
               *                     SUCCESS                       *
               *           SCF CONVERGED AFTER  86 CYCLES          *
               *****************************************************

Old exchange energy                            =    -12.464411645 Eh
New exchange energy                            =    -12.464424098 Eh
Exchange energy change after final integration =     -0.000012453 Eh
Total energy after final integration           =   -491.957413052 Eh
Final COS-X integration done in                =    34.432 sec

----------------
TOTAL SCF ENERGY
----------------

Total Energy       :         -491.95741305 Eh          -13386.84178 eV

Components:
Nuclear Repulsion  :          388.24956923 Eh           10564.80788 eV
Electronic Energy  :         -880.20698228 Eh          -23951.64967 eV
One Electron Energy:        -1424.99824204 Eh          -38776.17351 eV
Two Electron Energy:          544.79125977 Eh           14824.52384 eV
Max COSX asymmetry :            0.00000185 Eh               0.00005 eV

Virial components:
Potential Energy   :         -979.36252951 Eh          -26649.80928 eV
Kinetic Energy     :          487.40511645 Eh           13262.96749 eV
Virial Ratio       :            2.00933986


DFT components:
N(Alpha)           :       35.999995441749 electrons
N(Beta)            :       35.999995441749 electrons
N(Total)           :       71.999990883497 electrons
E(X)               :      -49.831955840175 Eh       
E(C)               :       -3.169498459405 Eh       
E(XC)              :      -53.001454299580 Eh       
DFET-embed. en.    :        0.000000000000 Eh       

---------------
SCF CONVERGENCE
---------------

  Last Energy change         ...   -1.0701e-09  Tolerance :   1.0000e-08
  Last Orbital Gradient      ...    9.3259e-07  Tolerance :   1.0000e-05
  Last Orbital Rotation      ...    4.3340e-05

             **** THE GBW FILE WAS UPDATED (opt2_2.gbw) ****
             **** DENSITY opt2_2.scfp WAS UPDATED ****
             **** ENERGY FILE WAS UPDATED (opt2_2.en.tmp) ****
             **** THE GBW FILE WAS UPDATED (opt2_2.gbw) ****
             **** DENSITY opt2_2.scfp WAS UPDATED ****
----------------
ORBITAL ENERGIES
----------------

  NO   OCC          E(Eh)            E(eV) 
   0   2.0000     -19.396946      -527.8177 
   1   2.0000     -19.392660      -527.7011 
   2   2.0000     -14.700660      -400.0253 
   3   2.0000     -14.544237      -395.7688 
   4   2.0000     -10.416577      -283.4495 
   5   2.0000     -10.356069      -281.8030 
   6   2.0000     -10.355086      -281.7762 
   7   2.0000     -10.354042      -281.7478 
   8   2.0000     -10.347468      -281.5689 
   9   2.0000     -10.346837      -281.5518 
  10   2.0000      -1.295631       -35.2559 
  11   2.0000      -1.183331       -32.2001 
  12   2.0000      -1.119945       -30.4753 
  13   2.0000      -1.010776       -27.5046 
  14   2.0000      -0.913676       -24.8624 
  15   2.0000      -0.894761       -24.3477 
  16   2.0000      -0.798712       -21.7341 
  17   2.0000      -0.787661       -21.4333 
  18   2.0000      -0.780145       -21.2288 
  19   2.0000      -0.708294       -19.2737 
  20   2.0000      -0.702666       -19.1205 
  21   2.0000      -0.668898       -18.2016 
  22   2.0000      -0.651829       -17.7372 
  23   2.0000      -0.633299       -17.2329 
  24   2.0000      -0.632370       -17.2077 
  25   2.0000      -0.609604       -16.5882 
  26   2.0000      -0.596034       -16.2189 
  27   2.0000      -0.589484       -16.0407 
  28   2.0000      -0.574430       -15.6310 
  29   2.0000      -0.527065       -14.3422 
  30   2.0000      -0.507811       -13.8182 
  31   2.0000      -0.493419       -13.4266 
  32   2.0000      -0.492146       -13.3920 
  33   2.0000      -0.489113       -13.3095 
  34   2.0000      -0.424523       -11.5519 
  35   2.0000      -0.361844        -9.8463 
  36   0.0000      -0.352340        -9.5877 
  37   0.0000      -0.262374        -7.1396 
  38   0.0000      -0.162855        -4.4315 
  39   0.0000      -0.152755        -4.1567 
  40   0.0000      -0.093690        -2.5494 
  41   0.0000      -0.076317        -2.0767 
  42   0.0000      -0.062919        -1.7121 
  43   0.0000      -0.060494        -1.6461 
  44   0.0000      -0.012297        -0.3346 
  45   0.0000      -0.009878        -0.2688 
  46   0.0000      -0.000083        -0.0023 
  47   0.0000       0.023264         0.6331 
  48   0.0000       0.034745         0.9454 
  49   0.0000       0.100326         2.7300 
  50   0.0000       0.120747         3.2857 
  51   0.0000       0.144555         3.9335 
  52   0.0000       0.146876         3.9967 
  53   0.0000       0.147753         4.0206 
  54   0.0000       0.166901         4.5416 
  55   0.0000       0.215542         5.8652 
  56   0.0000       0.250960         6.8290 
  57   0.0000       0.263494         7.1700 
  58   0.0000       0.264153         7.1880 
  59   0.0000       0.293433         7.9847 
  60   0.0000       0.308841         8.4040 
  61   0.0000       0.343538         9.3481 
  62   0.0000       0.353190         9.6108 
  63   0.0000       0.354225         9.6390 
  64   0.0000       0.374618        10.1939 
  65   0.0000       0.380423        10.3518 
  66   0.0000       0.384203        10.4547 
  67   0.0000       0.384272        10.4566 
  68   0.0000       0.391153        10.6438 
  69   0.0000       0.449211        12.2236 
  70   0.0000       0.454436        12.3658 
  71   0.0000       0.494904        13.4670 
  72   0.0000       0.510432        13.8896 
  73   0.0000       0.533292        14.5116 
  74   0.0000       0.535113        14.5612 
  75   0.0000       0.545305        14.8385 
  76   0.0000       0.549955        14.9650 
  77   0.0000       0.554416        15.0864 
  78   0.0000       0.556514        15.1435 
  79   0.0000       0.560047        15.2397 
  80   0.0000       0.571984        15.5645 
  81   0.0000       0.589597        16.0437 
  82   0.0000       0.602641        16.3987 
  83   0.0000       0.604923        16.4608 
  84   0.0000       0.629309        17.1244 
  85   0.0000       0.660092        17.9620 
  86   0.0000       0.682613        18.5748 
  87   0.0000       0.720011        19.5925 
  88   0.0000       0.735404        20.0114 
  89   0.0000       0.751305        20.4440 
  90   0.0000       0.766668        20.8621 
  91   0.0000       0.777291        21.1512 
  92   0.0000       0.816575        22.2201 
  93   0.0000       0.850264        23.1369 
  94   0.0000       0.865591        23.5539 
  95   0.0000       0.895102        24.3570 
  96   0.0000       0.907998        24.7079 
  97   0.0000       0.985892        26.8275 
  98   0.0000       1.016023        27.6474 
  99   0.0000       1.046909        28.4878 
 100   0.0000       1.088798        29.6277 
 101   0.0000       1.092991        29.7418 
 102   0.0000       1.094491        29.7826 
 103   0.0000       1.108117        30.1534 
 104   0.0000       1.119867        30.4731 
 105   0.0000       1.121244        30.5106 
 106   0.0000       1.150756        31.3137 
 107   0.0000       1.161106        31.5953 
 108   0.0000       1.176099        32.0033 
 109   0.0000       1.268168        34.5086 
 110   0.0000       1.352950        36.8156 
 111   0.0000       1.460730        39.7485 
 112   0.0000       1.519757        41.3547 
 113   0.0000       1.528892        41.6033 
 114   0.0000       1.568276        42.6749 
 115   0.0000       1.578739        42.9597 
 116   0.0000       1.593958        43.3738 
 117   0.0000       1.597090        43.4590 
 118   0.0000       1.601134        43.5691 
 119   0.0000       1.611521        43.8517 
 120   0.0000       1.637276        44.5526 
 121   0.0000       1.644620        44.7524 
 122   0.0000       1.655640        45.0523 
 123   0.0000       1.666284        45.3419 
 124   0.0000       1.693282        46.0766 
 125   0.0000       1.723520        46.8994 
 126   0.0000       1.773505        48.2595 
 127   0.0000       1.787428        48.6384 
 128   0.0000       1.804740        49.1095 
 129   0.0000       1.805487        49.1298 
 130   0.0000       1.832434        49.8631 
 131   0.0000       1.852346        50.4049 
 132   0.0000       1.907144        51.8960 
 133   0.0000       1.956465        53.2381 
 134   0.0000       1.957895        53.2770 
 135   0.0000       1.984069        53.9893 
 136   0.0000       1.984962        54.0136 
 137   0.0000       1.986500        54.0554 
 138   0.0000       2.041363        55.5483 
 139   0.0000       2.050177        55.7882 
 140   0.0000       2.079397        56.5833 
 141   0.0000       2.088661        56.8354 
 142   0.0000       2.096578        57.0508 
 143   0.0000       2.165931        58.9380 
 144   0.0000       2.211440        60.1763 
 145   0.0000       2.218698        60.3738 
 146   0.0000       2.228619        60.6438 
 147   0.0000       2.347997        63.8922 
 148   0.0000       2.395227        65.1774 
 149   0.0000       2.421432        65.8905 
 150   0.0000       2.422231        65.9123 
 151   0.0000       2.439087        66.3709 
 152   0.0000       2.445999        66.5590 
 153   0.0000       2.461166        66.9717 
 154   0.0000       2.471691        67.2581 
 155   0.0000       2.546614        69.2969 
 156   0.0000       2.576599        70.1128 
 157   0.0000       2.597377        70.6782 
 158   0.0000       2.603108        70.8342 
 159   0.0000       2.633756        71.6681 
 160   0.0000       2.651676        72.1558 
 161   0.0000       2.702476        73.5381 
 162   0.0000       2.752245        74.8924 
 163   0.0000       2.774369        75.4944 
 164   0.0000       2.799390        76.1753 
 165   0.0000       2.837004        77.1988 
 166   0.0000       2.951850        80.3239 
 167   0.0000       2.975995        80.9809 
 168   0.0000       2.978405        81.0465 
 169   0.0000       3.063593        83.3646 
 170   0.0000       3.073284        83.6283 
 171   0.0000       3.275195        89.1226 
 172   0.0000       3.415687        92.9456 
 173   0.0000       3.532103        96.1134 
 174   0.0000       3.544937        96.4626 

                    ********************************
                    * MULLIKEN POPULATION ANALYSIS *
                    ********************************

-----------------------
MULLIKEN ATOMIC CHARGES
-----------------------
   0 C :    0.046497
   1 C :    0.035095
   2 C :    0.041685
   3 C :    0.082610
   4 C :    0.040141
   5 C :    0.036085
   6 H :    0.009550
   7 H :    0.033016
   8 H :    0.039007
   9 H :    0.029738
  10 H :    0.004302
  11 N :    0.074096
  12 H :    0.154889
  13 H :    0.152360
  14 N :    0.350656
  15 O :   -0.054478
  16 O :   -0.075248
Sum of atomic charges:    1.0000000

--------------------------------
MULLIKEN REDUCED ORBITAL CHARGES
--------------------------------
  0 C s       :     2.994387  s :     2.994387
      pz      :     0.893454  p :     2.893555
      px      :     1.047978
      py      :     0.952123
      dz2     :     0.005285  d :     0.065561
      dxz     :     0.007736
      dyz     :     0.014904
      dx2y2   :     0.019523
      dxy     :     0.018113
  1 C s       :     3.215526  s :     3.215526
      pz      :     0.969402  p :     2.715457
      px      :     0.814710
      py      :     0.931345
      dz2     :     0.002689  d :     0.033922
      dxz     :     0.002799
      dyz     :     0.005930
      dx2y2   :     0.009883
      dxy     :     0.012622
  2 C s       :     3.165469  s :     3.165469
      pz      :     0.923245  p :     2.756068
      px      :     0.912640
      py      :     0.920183
      dz2     :     0.002812  d :     0.036779
      dxz     :     0.004374
      dyz     :     0.005363
      dx2y2   :     0.011309
      dxy     :     0.012921
  3 C s       :     3.174463  s :     3.174463
      pz      :     0.873353  p :     2.706376
      px      :     0.953358
      py      :     0.879665
      dz2     :     0.002983  d :     0.036551
      dxz     :     0.005836
      dyz     :     0.003458
      dx2y2   :     0.012499
      dxy     :     0.011775
  4 C s       :     3.164491  s :     3.164491
      pz      :     0.925148  p :     2.758496
      px      :     0.879807
      py      :     0.953541
      dz2     :     0.002683  d :     0.036872
      dxz     :     0.003233
      dyz     :     0.006620
      dx2y2   :     0.012690
      dxy     :     0.011647
  5 C s       :     3.213290  s :     3.213290
      pz      :     0.975256  p :     2.716736
      px      :     0.875481
      py      :     0.866000
      dz2     :     0.002770  d :     0.033889
      dxz     :     0.003760
      dyz     :     0.004957
      dx2y2   :     0.010923
      dxy     :     0.011479
  6 H s       :     0.966533  s :     0.966533
      pz      :     0.005288  p :     0.023917
      px      :     0.014849
      py      :     0.003780
  7 H s       :     0.943127  s :     0.943127
      pz      :     0.004429  p :     0.023856
      px      :     0.009003
      py      :     0.010424
  8 H s       :     0.937354  s :     0.937354
      pz      :     0.004045  p :     0.023639
      px      :     0.004368
      py      :     0.015226
  9 H s       :     0.946483  s :     0.946483
      pz      :     0.004769  p :     0.023779
      px      :     0.014847
      py      :     0.004163
 10 H s       :     0.971754  s :     0.971754
      pz      :     0.005064  p :     0.023945
      px      :     0.009197
      py      :     0.009684
 11 N s       :     3.273197  s :     3.273197
      pz      :     1.516476  p :     3.635859
      px      :     1.060446
      py      :     1.058936
      dz2     :     0.001475  d :     0.016848
      dxz     :     0.000677
      dyz     :     0.003034
      dx2y2   :     0.005340
      dxy     :     0.006322
 12 H s       :     0.799352  s :     0.799352
      pz      :     0.011842  p :     0.045759
      px      :     0.024901
      py      :     0.009016
 13 H s       :     0.801782  s :     0.801782
      pz      :     0.011453  p :     0.045858
      px      :     0.015840
      py      :     0.018565
 14 N s       :     3.525874  s :     3.525874
      pz      :     1.003840  p :     3.060481
      px      :     1.049672
      py      :     1.006969
      dz2     :     0.013225  d :     0.062990
      dxz     :     0.009061
      dyz     :     0.013251
      dx2y2   :     0.014659
      dxy     :     0.012794
 15 O s       :     3.919504  s :     3.919504
      pz      :     1.502045  p :     4.116432
      px      :     1.535423
      py      :     1.078964
      dz2     :     0.002408  d :     0.018542
      dxz     :     0.000762
      dyz     :     0.005657
      dx2y2   :     0.005394
      dxy     :     0.004322
 16 O s       :     3.923421  s :     3.923421
      pz      :     1.260945  p :     4.134437
      px      :     1.338849
      py      :     1.534643
      dz2     :     0.003505  d :     0.017391
      dxz     :     0.004343
      dyz     :     0.004183
      dx2y2   :     0.002249
      dxy     :     0.003111


                     *******************************
                     * LOEWDIN POPULATION ANALYSIS *
                     *******************************

----------------------
LOEWDIN ATOMIC CHARGES
----------------------
   0 C :    0.067292
   1 C :    0.002407
   2 C :    0.023440
   3 C :    0.067274
   4 C :    0.020332
   5 C :    0.001180
   6 H :    0.045027
   7 H :    0.051828
   8 H :    0.051332
   9 H :    0.050561
  10 H :    0.042700
  11 N :    0.149430
  12 H :    0.104023
  13 H :    0.102244
  14 N :    0.293950
  15 O :   -0.024749
  16 O :   -0.048271

-------------------------------
LOEWDIN REDUCED ORBITAL CHARGES
-------------------------------
  0 C s       :     2.829136  s :     2.829136
      pz      :     0.881885  p :     2.947502
      px      :     1.080955
      py      :     0.984663
      dz2     :     0.011685  d :     0.156069
      dxz     :     0.016195
      dyz     :     0.031019
      dx2y2   :     0.050623
      dxy     :     0.046547
  1 C s       :     2.853230  s :     2.853230
      pz      :     0.963727  p :     3.053837
      px      :     1.031143
      py      :     1.058967
      dz2     :     0.006522  d :     0.090526
      dxz     :     0.005351
      dyz     :     0.012970
      dx2y2   :     0.029915
      dxy     :     0.035768
  2 C s       :     2.849709  s :     2.849709
      pz      :     0.918828  p :     3.031392
      px      :     1.049770
      py      :     1.062794
      dz2     :     0.006892  d :     0.095459
      dxz     :     0.009497
      dyz     :     0.011224
      dx2y2   :     0.032068
      dxy     :     0.035778
  3 C s       :     2.861726  s :     2.861726
      pz      :     0.862854  p :     2.978291
      px      :     1.056582
      py      :     1.058855
      dz2     :     0.006983  d :     0.092709
      dxz     :     0.012929
      dyz     :     0.006505
      dx2y2   :     0.033982
      dxy     :     0.032311
  4 C s       :     2.849468  s :     2.849468
      pz      :     0.921801  p :     3.034445
      px      :     1.046250
      py      :     1.066394
      dz2     :     0.006612  d :     0.095754
      dxz     :     0.006087
      dyz     :     0.014794
      dx2y2   :     0.035319
      dxy     :     0.032942
  5 C s       :     2.853183  s :     2.853183
      pz      :     0.965133  p :     3.055202
      px      :     1.019371
      py      :     1.070698
      dz2     :     0.006679  d :     0.090435
      dxz     :     0.008318
      dyz     :     0.010157
      dx2y2   :     0.031723
      dxy     :     0.033558
  6 H s       :     0.883338  s :     0.883338
      pz      :     0.016514  p :     0.071635
      px      :     0.042753
      py      :     0.012368
  7 H s       :     0.878113  s :     0.878113
      pz      :     0.013789  p :     0.070059
      px      :     0.026670
      py      :     0.029600
  8 H s       :     0.877584  s :     0.877584
      pz      :     0.012947  p :     0.071084
      px      :     0.014323
      py      :     0.043814
  9 H s       :     0.879731  s :     0.879731
      pz      :     0.014657  p :     0.069708
      px      :     0.042280
      py      :     0.012771
 10 H s       :     0.885521  s :     0.885521
      pz      :     0.015931  p :     0.071779
      px      :     0.027713
      py      :     0.028136
 11 N s       :     3.009057  s :     3.009057
      pz      :     1.456200  p :     3.795981
      px      :     1.182339
      py      :     1.157441
      dz2     :     0.002727  d :     0.045532
      dxz     :     0.001480
      dyz     :     0.006100
      dx2y2   :     0.016217
      dxy     :     0.019008
 12 H s       :     0.772069  s :     0.772069
      pz      :     0.037836  p :     0.123907
      px      :     0.066648
      py      :     0.019423
 13 H s       :     0.773471  s :     0.773471
      pz      :     0.036673  p :     0.124285
      px      :     0.040607
      py      :     0.047005
 14 N s       :     3.322986  s :     3.322986
      pz      :     1.058555  p :     3.258333
      px      :     1.080060
      py      :     1.119718
      dz2     :     0.023109  d :     0.124731
      dxz     :     0.018720
      dyz     :     0.028949
      dx2y2   :     0.029821
      dxy     :     0.024132
 15 O s       :     3.725974  s :     3.725974
      pz      :     1.514956  p :     4.265812
      px      :     1.536551
      py      :     1.214305
      dz2     :     0.004182  d :     0.032963
      dxz     :     0.001040
      dyz     :     0.009680
      dx2y2   :     0.012240
      dxy     :     0.005821
 16 O s       :     3.737812  s :     3.737812
      pz      :     1.331052  p :     4.279582
      px      :     1.388002
      py      :     1.560528
      dz2     :     0.004689  d :     0.030877
      dxz     :     0.009747
      dyz     :     0.007768
      dx2y2   :     0.003112
      dxy     :     0.005560


                      *****************************
                      * MAYER POPULATION ANALYSIS *
                      *****************************

  NA   - Mulliken gross atomic population
  ZA   - Total nuclear charge
  QA   - Mulliken gross atomic charge
  VA   - Mayer's total valence
  BVA  - Mayer's bonded valence
  FA   - Mayer's free valence

  ATOM       NA         ZA         QA         VA         BVA        FA
  0 C      5.9535     6.0000     0.0465     4.0399     4.0399     0.0000
  1 C      5.9649     6.0000     0.0351     3.7915     3.7915    -0.0000
  2 C      5.9583     6.0000     0.0417     3.8789     3.8789    -0.0000
  3 C      5.9174     6.0000     0.0826     3.8024     3.8024    -0.0000
  4 C      5.9599     6.0000     0.0401     3.8780     3.8780     0.0000
  5 C      5.9639     6.0000     0.0361     3.7893     3.7893     0.0000
  6 H      0.9905     1.0000     0.0095     0.9923     0.9923    -0.0000
  7 H      0.9670     1.0000     0.0330     0.9825     0.9825     0.0000
  8 H      0.9610     1.0000     0.0390     0.9815     0.9815     0.0000
  9 H      0.9703     1.0000     0.0297     0.9823     0.9823     0.0000
 10 H      0.9957     1.0000     0.0043     0.9922     0.9922    -0.0000
 11 N      6.9259     7.0000     0.0741     3.5040     3.5040    -0.0000
 12 H      0.8451     1.0000     0.1549     0.9906     0.9906    -0.0000
 13 H      0.8476     1.0000     0.1524     0.9915     0.9915    -0.0000
 14 N      6.6493     7.0000     0.3507     3.5655     3.5655    -0.0000
 15 O      8.0545     8.0000    -0.0545     2.2912     2.2912    -0.0000
 16 O      8.0752     8.0000    -0.0752     2.2607     2.2607    -0.0000

  Mayer bond orders larger than 0.100000
B(  0-C ,  1-C ) :   1.1793 B(  0-C ,  5-C ) :   1.1783 B(  0-C , 11-N ) :   1.4185 
B(  1-C ,  2-C ) :   1.4817 B(  1-C ,  6-H ) :   0.9984 B(  2-C ,  3-C ) :   1.2849 
B(  2-C ,  7-H ) :   0.9880 B(  3-C ,  4-C ) :   1.2902 B(  3-C ,  8-H ) :   0.9946 
B(  4-C ,  5-C ) :   1.4775 B(  4-C ,  9-H ) :   0.9881 B(  5-C , 10-H ) :   0.9979 
B( 11-N , 12-H ) :   0.9332 B( 11-N , 13-H ) :   0.9341 B( 14-N , 15-O ) :   1.6220 
B( 14-N , 16-O ) :   1.5828 B( 15-O , 16-O ) :   0.3783 

-------
TIMINGS
-------

Total SCF time: 0 days 0 hours 9 min 57 sec 

Total time                  ....     597.609 sec
Sum of individual times     ....     582.480 sec  ( 97.5%)

Fock matrix formation       ....     572.429 sec  ( 95.8%)
  Split-RI-J                ....      71.785 sec  ( 12.5% of F)
  Chain of spheres X        ....     421.110 sec  ( 73.6% of F)
  XC integration            ....      78.688 sec  ( 13.7% of F)
    Basis function eval.    ....      26.631 sec  ( 33.8% of XC)
    Density eval.           ....      20.566 sec  ( 26.1% of XC)
    XC-Functional eval.     ....       5.448 sec  (  6.9% of XC)
    XC-Potential eval.      ....      19.635 sec  ( 25.0% of XC)
Diagonalization             ....       0.261 sec  (  0.0%)
Density matrix formation    ....       0.056 sec  (  0.0%)
Population analysis         ....       0.117 sec  (  0.0%)
Initial guess               ....       1.769 sec  (  0.3%)
Orbital Transformation      ....       0.288 sec  (  0.0%)
Orbital Orthonormalization  ....       0.000 sec  (  0.0%)
DIIS solution               ....       0.573 sec  (  0.1%)
SOSCF solution              ....       0.000 sec  (  0.0%)
Grid generation             ....       6.987 sec  (  1.2%)

Maximum memory used throughout the entire SCF-calculation: 68.4 MB


-------------------------------------------------------------------------------
                          DFT DISPERSION CORRECTION                            
                                                                               
                                 DFTD4 V2.5                                    
-------------------------------------------------------------------------------
Gaussians B3LYP functional is recognized, using regular B3LYP params
Active option DFTDOPT                   ...         5   

Starting D4
-------------------------   ----------------
Dispersion correction           -0.020595790
-------------------------   ----------------


-------------------------   --------------------
FINAL SINGLE POINT ENERGY      -491.978008841522
-------------------------   --------------------

------------------------------------------------------------------------------
                         ORCA SCF GRADIENT CALCULATION
------------------------------------------------------------------------------

 ... reading COSX grid (gridx3)
Gradient of the Kohn-Sham DFT energy:
Kohn-Sham wavefunction type      ... RKS
Hartree-Fock exchange scaling    ...    0.200
Number of operators              ...    1
Number of atoms                  ...   17
Basis set dimensions             ...  175
Integral neglect threshold       ... 2.5e-11
Integral primitive cutoff        ... 2.5e-12
SHARK Integral package           ... ON

Nuc. rep. gradient       (SHARK) ... done (  0.0 sec)
HCore & Overlap gradient (SHARK) ... done (  0.5 sec)
RI-J gradient            (SHARK) ... done (  3.6 sec)
COSX-gradient                    ... done ( 25.3 sec)
Exchange-correlation gradient    ... done
Dispersion correction            ... Starting D4


------------------- 
Dispersion Gradient 
------------------- 
   1  :   -0.000085833    0.000285930    0.000019618
   2  :   -0.000349938   -0.000040761    0.000082277
   3  :   -0.000236497   -0.000448212    0.000056688
   4  :    0.000128542   -0.000432455   -0.000029141
   5  :    0.000440080   -0.000235030   -0.000103174
   6  :    0.000311155    0.000163767   -0.000073849
   7  :   -0.000199545    0.000006397    0.000046927
   8  :   -0.000114818   -0.000140411    0.000027487
   9  :    0.000050551   -0.000167371   -0.000011287
  10  :    0.000173674   -0.000051033   -0.000040748
  11  :    0.000164359    0.000122120   -0.000039170
  12  :   -0.000155431    0.000515610    0.000034835
  13  :   -0.000204552    0.000166480    0.000048080
  14  :    0.000080385    0.000256008   -0.000019018
  15  :   -0.000000046    0.000002942   -0.000000671
  16  :    0.000022850    0.000046731   -0.000035999
  17  :   -0.000024938   -0.000050711    0.000037145

  |G| =    0.001224952

done

------------------
CARTESIAN GRADIENT
------------------

   1   C   :    0.000727338   -0.004757151   -0.000209221
   2   C   :    0.010111041    0.000730648   -0.002395268
   3   C   :    0.007498820    0.006139263   -0.001791611
   4   C   :   -0.001592371    0.008712379    0.000352837
   5   C   :   -0.010561217    0.000131122    0.002497954
   6   C   :   -0.007493495   -0.005666143    0.001859465
   7   H   :    0.009733509   -0.002121193   -0.002277347
   8   H   :    0.007393599    0.008360286   -0.001765491
   9   H   :   -0.002966919    0.010625524    0.000656373
  10   H   :   -0.009760037    0.002200058    0.002282190
  11   H   :   -0.007337841   -0.008168958    0.001745482
  12   N   :    0.000789930   -0.001030203   -0.000204967
  13   H   :    0.012676534   -0.003696868   -0.002967546
  14   H   :   -0.009076659   -0.011459608    0.002178395
  15   N   :    0.054286902   -0.058637850   -0.044538039
  16   O   :    0.030519543    0.144576308   -0.062411412
  17   O   :   -0.084968222   -0.086021879    0.107038422

Difference to translation invariance:
           :   -0.0000195455   -0.0000842636    0.0000502142

Difference to rotation invariance:
           :    0.0001022989   -0.0010008277   -0.0009435681

[...]
     31      -0.206803   0.028571  -0.045004   0.249697   0.224914   0.010030
     32      -0.087217   0.001522   0.081531   0.066182   0.063499   0.019005
     33       0.052223   0.050341  -0.053708   0.025292   0.017315  -0.059342
     34      -0.105478   0.020241  -0.028552  -0.049920   0.009313   0.116760
     35      -0.007767  -0.019070   0.020988  -0.003856  -0.006783   0.009013
     36       0.056764   0.033461  -0.041071   0.018868   0.010022  -0.092329
     37      -0.345171  -0.305471   0.212809  -0.374753  -0.099482  -0.668391
     38       0.013960   0.017395  -0.006058   0.029544   0.005943   0.096005
     39       0.253844  -0.199506   0.146593   0.288677  -0.067169   0.586009
     40      -0.253502   0.176469  -0.155296  -0.229240   0.060657  -0.300819
     41      -0.061964   0.051494  -0.035328  -0.076304   0.017241  -0.169956
     42      -0.054694  -0.001916   0.000037  -0.004944   0.000005   0.000574
     43       0.073443   0.002555  -0.000081   0.006688  -0.000043  -0.000727
     44       0.009690   0.000338  -0.000004   0.000873   0.000002  -0.000105
     45      -0.088216  -0.002906   0.000058  -0.004680   0.000028   0.000375
     46      -0.117568  -0.003966   0.000090  -0.008138   0.000046   0.000790
     47       0.026957   0.000893  -0.000019   0.001522  -0.000008  -0.000128
     48       0.136064   0.004569  -0.000079   0.009014  -0.000023  -0.000885
     49       0.053265   0.001726  -0.000020   0.002290  -0.000003  -0.000157
     50      -0.035436  -0.001188   0.000021  -0.002287   0.000005   0.000221
                 42         43         44         45         46         47    
      0       0.112859  -0.000022   0.002180   0.002183   0.000908   0.001501
      1      -0.222144   0.000074  -0.001377   0.002295  -0.001552   0.000896
      2      -0.017340   0.000008  -0.000608  -0.000960  -0.000160  -0.000595
      3      -0.065326   0.000004   0.024288  -0.071379   0.025336  -0.021453
      4       0.243905  -0.000114  -0.000829   0.004202  -0.002757   0.004165
      5      -0.000852   0.000012  -0.008175   0.023857  -0.008349   0.006897
      6       0.142609  -0.000093  -0.008092   0.015898   0.014700  -0.028468
      7      -0.170628   0.000079  -0.012244   0.022148   0.030759  -0.051567
      8      -0.032439   0.000031   0.003914  -0.007508  -0.007915   0.014570
      9      -0.040645   0.000016  -0.005937   0.002527   0.024978   0.001122
     10       0.081230  -0.000022   0.011344  -0.005753  -0.048614   0.007441
     11       0.006225   0.000003   0.000961  -0.000322  -0.003949  -0.001080
     12       0.054043   0.000056   0.030091   0.006249  -0.040685  -0.054576
     13      -0.217578   0.000087   0.000448   0.000717   0.005792   0.004656
     14       0.002086  -0.000029  -0.010293  -0.002195   0.013315   0.018154
     15      -0.156688   0.000067  -0.036731  -0.014829  -0.013107  -0.007826
     16       0.193765  -0.000031  -0.060858  -0.025772  -0.025112  -0.018523
     17       0.035012  -0.000026   0.018276   0.007491   0.006842   0.004420
     18      -0.092180   0.000017  -0.277404   0.815629  -0.278648   0.230631
     19      -0.296321   0.000056   0.016031  -0.049076   0.017768  -0.016261
     20       0.059506   0.000014   0.092734  -0.272477   0.092997  -0.076826
     21      -0.236769   0.000090   0.089683  -0.169087  -0.193142   0.334101
     22       0.067762  -0.000034   0.151121  -0.282578  -0.332518   0.568826
     23       0.074241   0.000003  -0.044833   0.084309   0.097211  -0.167553
     24      -0.048379   0.000200   0.069368  -0.033378  -0.288324   0.027209
     25       0.093468   0.000057  -0.136394   0.066629   0.567844  -0.063329
     26       0.007631  -0.000016  -0.010848   0.005125   0.045000  -0.003331
     27       0.080269   0.000109  -0.361227  -0.076749   0.462926   0.611357
     28       0.237838   0.000113   0.021047   0.003786  -0.032202  -0.039581
     29      -0.049608   0.000086   0.121088   0.025792  -0.154695  -0.204579
     30       0.287906   0.000270   0.415762   0.173069   0.156573   0.105854
     31      -0.091194  -0.000145   0.699002   0.292240   0.266142   0.182666
     32      -0.089214   0.000025  -0.207901  -0.086664  -0.078567  -0.053375
     33      -0.059876   0.000025  -0.000223  -0.000336  -0.000115  -0.000173
     34       0.117594  -0.000012   0.000022  -0.000246   0.000193  -0.000110
     35       0.009099  -0.000019   0.000073   0.000138   0.000021   0.000070
     36      -0.082692   0.000018   0.001433   0.001039  -0.001336   0.000436
     37      -0.399268  -0.000177   0.003239  -0.003133   0.002171  -0.000463
     38       0.066921   0.000071  -0.000791  -0.000060   0.000248  -0.000105
     39       0.365970   0.000266  -0.003622   0.001331  -0.000966  -0.000049
     40      -0.156467  -0.000243   0.002495   0.001328   0.002413   0.000395
     41      -0.108850   0.000042   0.000989  -0.000583   0.000094  -0.000022
     42       0.012347  -0.649613   0.000043  -0.000016   0.000103   0.000003
     43      -0.016827  -0.499095  -0.000059   0.000022  -0.000140  -0.000003
     44      -0.002172   0.180923  -0.000007   0.000003  -0.000018  -0.000001
     45       0.008008   0.219196   0.000005  -0.000002   0.000011   0.000000
     46       0.017590   0.312735   0.000044  -0.000016   0.000104   0.000002
     47      -0.002783  -0.067983  -0.000003   0.000001  -0.000008  -0.000000
     48      -0.018841   0.349431  -0.000043   0.000016  -0.000102  -0.000002
     49      -0.002870   0.124198   0.000008  -0.000003   0.000018   0.000001
     50       0.004686  -0.090411   0.000010  -0.000004   0.000024   0.000001
                 48         49         50    
      0       0.000346   0.001146  -0.000566
      1      -0.000793  -0.002236  -0.000283
      2      -0.000043  -0.000184   0.000219
      3       0.011857  -0.000084   0.000380
      4      -0.002978  -0.000934   0.000383
      5      -0.003748   0.000117  -0.000163
      6       0.022836   0.000090  -0.000070
      7       0.035521   0.000275  -0.000004
      8      -0.011134  -0.000056   0.000024
      9      -0.030481   0.000100   0.000070
     10       0.059780  -0.000183   0.000040
     11       0.004778  -0.000016  -0.000027
     12      -0.037610  -0.000270  -0.000042
     13       0.000623   0.000069  -0.000061
     14       0.012754   0.000086   0.000020
     15      -0.003949   0.000792   0.000510
     16      -0.010608  -0.000464   0.000110
     17       0.002350  -0.000225  -0.000186
     18      -0.121410   0.000150  -0.001644
     19       0.009156   0.000833   0.001108
     20       0.040388  -0.000137   0.000450
     21      -0.234994  -0.000666   0.000150
     22      -0.394105  -0.000623   0.000015
     23       0.117281   0.000287  -0.000052
     24       0.335730  -0.000520  -0.000054
     25      -0.661666   0.001044  -0.000033
     26      -0.052354   0.000081   0.000022
     27       0.406476   0.000898   0.000103
     28      -0.023551   0.000213   0.000108
     29      -0.136283  -0.000321  -0.000044
     30       0.055744  -0.000724  -0.000079
     31       0.097105   0.000397  -0.002090
     32      -0.028193   0.000207   0.000227
     33      -0.000004  -0.025409  -0.072032
     34       0.000016   0.048617  -0.039303
     35      -0.000001   0.003873   0.028270
     36      -0.000073   0.672756   0.662217
     37       0.000733  -0.047190  -0.054756
     38      -0.000044  -0.223536  -0.219121
     39      -0.000532  -0.339923   0.336874
     40       0.000449  -0.588825   0.599592
     41       0.000139   0.172920  -0.172975
     42       0.000063   0.000607  -0.000017
     43      -0.000086  -0.000822   0.000015
     44      -0.000011  -0.000107   0.000003
     45       0.000007   0.000051   0.000001
     46       0.000064   0.000600  -0.000011
     47      -0.000005  -0.000042   0.000000
     48      -0.000062  -0.000584   0.000015
     49       0.000011   0.000118  -0.000002
     50       0.000015   0.000135  -0.000003


-----------
IR SPECTRUM
-----------

 Mode   freq       eps      Int      T**2         TX        TY        TZ
       cm**-1   L/(mol*cm) km/mol    a.u.
----------------------------------------------------------------------------
  8:      4.94   0.000000    0.00  0.000000  ( 0.000000  0.000000  0.000000)
  9:      7.27   0.000054    0.27  0.002335  (-0.043644 -0.019755  0.006322)
 10:     10.49   0.000006    0.03  0.000180  (-0.003490 -0.003926  0.012341)
 11:     21.37   0.000320    1.62  0.004673  ( 0.010984 -0.000391  0.067470)
 12:    202.00   0.001405    7.10  0.002170  ( 0.014175  0.004073  0.044188)
 13:    388.07   0.000460    2.33  0.000370  ( 0.015679  0.008878 -0.006754)
 14:    394.80   0.000003    0.01  0.000002  (-0.000068  0.000003 -0.001432)
 15:    454.52   0.034064  172.15  0.023388  ( 0.042385  0.012287  0.146426)
 16:    505.41   0.001567    7.92  0.000967  ( 0.007543  0.002333  0.030084)
 17:    515.21   0.000056    0.28  0.000034  ( 0.002477  0.000627  0.005253)
 18:    532.00   0.099168  501.15  0.058170  (-0.225784 -0.081169  0.024560)
 19:    611.83   0.000010    0.05  0.000005  (-0.001488 -0.001338  0.000930)
 20:    634.64   1.456626  7361.19  0.716249  (-0.794386 -0.278668  0.086856)
 21:    671.93   0.007313   36.96  0.003397  ( 0.019923  0.005716  0.054469)
 22:    800.83   0.006953   35.14  0.002709  (-0.016150 -0.004534 -0.049275)
 23:    819.83   0.000008    0.04  0.000003  ( 0.000949  0.000254  0.001491)
 24:    836.56   0.004270   21.58  0.001593  (-0.035021 -0.018735  0.003905)
 25:    929.19   0.000988    4.99  0.000332  (-0.005487 -0.001498 -0.017309)
 26:    996.09   0.013603   68.75  0.004262  ( 0.063976  0.010750 -0.007298)
 27:   1005.78   0.000000    0.00  0.000000  (-0.000199 -0.000021 -0.000079)
 28:   1023.09   0.000007    0.04  0.000002  ( 0.001177  0.000697 -0.000525)
 29:   1028.66   0.000007    0.04  0.000002  (-0.000612 -0.000148 -0.001359)
 30:   1030.80   0.003033   15.33  0.000918  ( 0.026317  0.014749 -0.002848)
 31:   1123.08   0.001532    7.74  0.000426  (-0.016718 -0.009718  0.007199)
 32:   1174.08   0.000009    0.04  0.000002  (-0.001497 -0.000078 -0.000188)
 33:   1192.72   0.047791  241.52  0.012504  ( 0.108729  0.023015 -0.012353)
 34:   1351.17   0.000003    0.01  0.000001  (-0.000519 -0.000443  0.000402)
 35:   1368.48   1.647335  8324.95  0.375652  ( 0.583021  0.177661 -0.064619)
 36:   1386.66   0.381880  1929.86  0.085941  ( 0.276939  0.091193 -0.030494)
 37:   1398.62   0.000075    0.38  0.000017  ( 0.003966  0.000994 -0.000105)
 38:   1501.34   0.001502    7.59  0.000312  (-0.014518 -0.008243  0.005795)
 39:   1524.54   0.021065  106.46  0.004312  (-0.056356  0.032910  0.007275)
 40:   1566.63   0.000302    1.53  0.000060  (-0.006409 -0.003529  0.002574)
 41:   1631.70   0.025730  130.03  0.004921  ( 0.040147 -0.057238 -0.005740)
 42:   1667.72   0.135861  686.59  0.025422  ( 0.158269  0.006240 -0.018278)
 43:   2030.87   0.064408  325.49  0.009897  (-0.076591 -0.059582  0.021925)
 44:   3191.53   0.000836    4.23  0.000082  ( 0.008138 -0.003825 -0.000946)
 45:   3193.07   0.000136    0.69  0.000013  (-0.003393  0.001267  0.000453)
 46:   3205.45   0.001996   10.08  0.000194  ( 0.013656  0.002428 -0.001373)
 47:   3211.40   0.000005    0.03  0.000001  (-0.000673  0.000057  0.000259)
 48:   3220.56   0.000693    3.50  0.000067  ( 0.007804  0.002369 -0.000769)
 49:   3569.76   0.181318  916.31  0.015851  ( 0.123746 -0.017814 -0.014840)
 50:   3692.00   0.013102   66.21  0.001107  ( 0.027268  0.015338 -0.011341)

* The epsilon (eps) is given for a Dirac delta lineshape.
** The dipole moment derivative (T) already includes vibrational overlap.

The first frequency considered to be a vibration is 8
The total number of vibrations considered is 43


--------------------------
THERMOCHEMISTRY AT 298.15K
--------------------------

Temperature         ... 298.15 K
Pressure            ... 1.00 atm
Total Mass          ... 139.13 AMU

Throughout the following assumptions are being made:
  (1) The electronic state is orbitally nondegenerate
  (2) There are no thermally accessible electronically excited states
  (3) Hindered rotations indicated by low frequency modes are not
      treated as such but are treated as vibrations and this may
      cause some error
  (4) All equations used are the standard statistical mechanics
      equations for an ideal gas
  (5) All vibrations are strictly harmonic

freq.       4.94  E(vib)   ...       0.59 
freq.       7.27  E(vib)   ...       0.58 
freq.      10.49  E(vib)   ...       0.58 
freq.      21.37  E(vib)   ...       0.56 
freq.     202.00  E(vib)   ...       0.35 
freq.     388.07  E(vib)   ...       0.20 
freq.     394.80  E(vib)   ...       0.20 
freq.     454.52  E(vib)   ...       0.16 
freq.     505.41  E(vib)   ...       0.14 
freq.     515.21  E(vib)   ...       0.13 
freq.     532.00  E(vib)   ...       0.13 
freq.     611.83  E(vib)   ...       0.10 
freq.     634.64  E(vib)   ...       0.09 
freq.     671.93  E(vib)   ...       0.08 
freq.     800.83  E(vib)   ...       0.05 
freq.     819.83  E(vib)   ...       0.05 
freq.     836.56  E(vib)   ...       0.04 
freq.     929.19  E(vib)   ...       0.03 
freq.     996.09  E(vib)   ...       0.02 
freq.    1005.78  E(vib)   ...       0.02 
freq.    1023.09  E(vib)   ...       0.02 
freq.    1028.66  E(vib)   ...       0.02 
freq.    1030.80  E(vib)   ...       0.02 
freq.    1123.08  E(vib)   ...       0.01 
freq.    1174.08  E(vib)   ...       0.01 
freq.    1192.72  E(vib)   ...       0.01 
freq.    1351.17  E(vib)   ...       0.01 
freq.    1368.48  E(vib)   ...       0.01 
freq.    1386.66  E(vib)   ...       0.00 
freq.    1398.62  E(vib)   ...       0.00 
freq.    1501.34  E(vib)   ...       0.00 
freq.    1524.54  E(vib)   ...       0.00 
freq.    1566.63  E(vib)   ...       0.00 
freq.    1631.70  E(vib)   ...       0.00 
freq.    1667.72  E(vib)   ...       0.00 
freq.    2030.87  E(vib)   ...       0.00 
freq.    3191.53  E(vib)   ...       0.00 
freq.    3193.07  E(vib)   ...       0.00 
freq.    3205.45  E(vib)   ...       0.00 
freq.    3211.40  E(vib)   ...       0.00 
freq.    3220.56  E(vib)   ...       0.00 
freq.    3569.76  E(vib)   ...       0.00 
freq.    3692.00  E(vib)   ...       0.00 

------------
INNER ENERGY
------------

The inner energy is: U= E(el) + E(ZPE) + E(vib) + E(rot) + E(trans)
    E(el)   - is the total energy from the electronic structure calculation
              = E(kin-el) + E(nuc-el) + E(el-el) + E(nuc-nuc)
    E(ZPE)  - the the zero temperature vibrational energy from the frequency calculation
    E(vib)  - the the finite temperature correction to E(ZPE) due to population
              of excited vibrational states
    E(rot)  - is the rotational thermal energy
    E(trans)- is the translational thermal energy

Summary of contributions to the inner energy U:
Electronic energy                ...   -492.04110364 Eh
Zero point energy                ...      0.12672695 Eh      79.52 kcal/mol
Thermal vibrational correction   ...      0.00673661 Eh       4.23 kcal/mol
Thermal rotational correction    ...      0.00141627 Eh       0.89 kcal/mol
Thermal translational correction ...      0.00141627 Eh       0.89 kcal/mol
-----------------------------------------------------------------------
Total thermal energy                   -491.90480754 Eh


Summary of corrections to the electronic energy:
(perhaps to be used in another calculation)
Total thermal correction                  0.00956915 Eh       6.00 kcal/mol
Non-thermal (ZPE) correction              0.12672695 Eh      79.52 kcal/mol
-----------------------------------------------------------------------
Total correction                          0.13629610 Eh      85.53 kcal/mol


--------
ENTHALPY
--------

The enthalpy is H = U + kB*T
                kB is Boltzmann's constant
Total free energy                 ...   -491.90480754 Eh 
Thermal Enthalpy correction       ...      0.00094421 Eh       0.59 kcal/mol
-----------------------------------------------------------------------
Total Enthalpy                    ...   -491.90386333 Eh


Note: Only C1 symmetry has been detected, increase convergence thresholds 
      if your molecule has a higher symmetry. Symmetry factor of 1.0 is   
      used for the rotational entropy correction. 
 

Note: Rotational entropy computed according to Herzberg 
Infrared and Raman Spectra, Chapter V,1, Van Nostrand Reinhold, 1945 
Point Group:  C1, Symmetry Number:   1  
Rotational constants in cm-1:     0.084456     0.002447     0.002382 

Vibrational entropy computed according to the QRRHO of S. Grimme
Chem.Eur.J. 2012 18 9955


-------
ENTROPY
-------

The entropy contributions are T*S = T*(S(el)+S(vib)+S(rot)+S(trans))
     S(el)   - electronic entropy
     S(vib)  - vibrational entropy
     S(rot)  - rotational entropy
     S(trans)- translational entropy
The entropies will be listed as multiplied by the temperature to get
units of energy

Electronic entropy                ...      0.00000000 Eh      0.00 kcal/mol
Vibrational entropy               ...      0.01430911 Eh      8.98 kcal/mol
Rotational entropy                ...      0.01636749 Eh     10.27 kcal/mol
Translational entropy             ...      0.01933899 Eh     12.14 kcal/mol
-----------------------------------------------------------------------
Final entropy term                ...      0.05001559 Eh     31.39 kcal/mol

In case the symmetry of your molecule has not been determined correctly
or in case you have a reason to use a different symmetry number we print 
out the resulting rotational entropy values for sn=1,12 :
 --------------------------------------------------------
|  sn= 1 | S(rot)=       0.01636749 Eh     10.27 kcal/mol|
|  sn= 2 | S(rot)=       0.01571303 Eh      9.86 kcal/mol|
|  sn= 3 | S(rot)=       0.01533020 Eh      9.62 kcal/mol|
|  sn= 4 | S(rot)=       0.01505858 Eh      9.45 kcal/mol|
|  sn= 5 | S(rot)=       0.01484789 Eh      9.32 kcal/mol|
|  sn= 6 | S(rot)=       0.01467574 Eh      9.21 kcal/mol|
|  sn= 7 | S(rot)=       0.01453020 Eh      9.12 kcal/mol|
|  sn= 8 | S(rot)=       0.01440412 Eh      9.04 kcal/mol|
|  sn= 9 | S(rot)=       0.01429291 Eh      8.97 kcal/mol|
|  sn=10 | S(rot)=       0.01419343 Eh      8.91 kcal/mol|
|  sn=11 | S(rot)=       0.01410344 Eh      8.85 kcal/mol|
|  sn=12 | S(rot)=       0.01402129 Eh      8.80 kcal/mol|
 --------------------------------------------------------


-------------------
GIBBS FREE ENERGY
-------------------

The Gibbs free energy is G = H - T*S

Total enthalpy                    ...   -491.90386333 Eh 
Total entropy correction          ...     -0.05001559 Eh    -31.39 kcal/mol
-----------------------------------------------------------------------
Final Gibbs free energy         ...   -491.95387892 Eh

For completeness - the Gibbs free energy minus the electronic energy
G-E(el)                           ...      0.08722472 Eh     54.73 kcal/mol


Timings for individual modules:

Sum of individual times         ...    32602.360 sec (= 543.373 min)
GTO integral calculation        ...       20.821 sec (=   0.347 min)   0.1 %
SCF iterations                  ...    30699.804 sec (= 511.663 min)  94.2 %
SCF Gradient evaluation         ...     1442.828 sec (=  24.047 min)   4.4 %
Geometry relaxation             ...        7.221 sec (=   0.120 min)   0.0 %
Analytical frequency calculation...      431.686 sec (=   7.195 min)   1.3 %
                             ****ORCA TERMINATED NORMALLY****
TOTAL RUN TIME: 0 days 9 hours 3 minutes 47 seconds 971 msec
