
                                 *****************
                                 * O   R   C   A *
                                 *****************

                                            #,                                       
                                            ###                                      
                                            ####                                     
                                            #####                                    
                                            ######                                   
                                           ########,                                 
                                     ,,################,,,,,                         
                               ,,#################################,,                 
                          ,,##########################################,,             
                       ,#########################################, ''#####,          
                    ,#############################################,,   '####,        
                  ,##################################################,,,,####,       
                ,###########''''           ''''###############################       
              ,#####''   ,,,,##########,,,,          '''####'''          '####       
            ,##' ,,,,###########################,,,                        '##       
           ' ,,###''''                  '''############,,,                           
         ,,##''                                '''############,,,,        ,,,,,,###''
      ,#''                                            '''#######################'''  
     '                                                          ''''####''''         
             ,#######,   #######,   ,#######,      ##                                
            ,#'     '#,  ##    ##  ,#'     '#,    #''#        ######   ,####,        
            ##       ##  ##   ,#'  ##            #'  '#       #        #'  '#        
            ##       ##  #######   ##           ,######,      #####,   #    #        
            '#,     ,#'  ##    ##  '#,     ,#' ,#      #,         ##   #,  ,#        
             '#######'   ##     ##  '#######'  #'      '#     #####' # '####'        



                  #######################################################
                  #                        -***-                        #
                  #          Department of theory and spectroscopy      #
                  #    Directorship and core code : Frank Neese         #
                  #        Max Planck Institute fuer Kohlenforschung    #
                  #                Kaiser Wilhelm Platz 1               #
                  #                 D-45470 Muelheim/Ruhr               #
                  #                      Germany                        #
                  #                                                     #
                  #                  All rights reserved                #
                  #                        -***-                        #
                  #######################################################



                         Program Version 5.0.4 -  RELEASE  -

 With contributions from (in alphabetic order):
   Daniel Aravena         : Magnetic Suceptibility
   Michael Atanasov       : Ab Initio Ligand Field Theory (pilot matlab implementation)
   Alexander A. Auer      : GIAO ZORA, VPT2 properties, NMR spectrum
   Ute Becker             : Parallelization
   Giovanni Bistoni       : ED, misc. LED, open-shell LED, HFLD
   Martin Brehm           : Molecular dynamics
   Dmytro Bykov           : SCF Hessian
   Vijay G. Chilkuri      : MRCI spin determinant printing, contributions to CSF-ICE
   Dipayan Datta          : RHF DLPNO-CCSD density
   Achintya Kumar Dutta   : EOM-CC, STEOM-CC
   Dmitry Ganyushin       : Spin-Orbit,Spin-Spin,Magnetic field MRCI
   Miquel Garcia          : C-PCM and meta-GGA Hessian, CC/C-PCM, Gaussian charge scheme
   Yang Guo               : DLPNO-NEVPT2, F12-NEVPT2, CIM, IAO-localization
   Andreas Hansen         : Spin unrestricted coupled pair/coupled cluster methods
   Benjamin Helmich-Paris : MC-RPA, TRAH-SCF, COSX integrals
   Lee Huntington         : MR-EOM, pCC
   Robert Izsak           : Overlap fitted RIJCOSX, COSX-SCS-MP3, EOM
   Marcus Kettner         : VPT2
   Christian Kollmar      : KDIIS, OOCD, Brueckner-CCSD(T), CCSD density, CASPT2, CASPT2-K
   Simone Kossmann        : Meta GGA functionals, TD-DFT gradient, OOMP2, MP2 Hessian
   Martin Krupicka        : Initial AUTO-CI
   Lucas Lang             : DCDCAS
   Marvin Lechner         : AUTO-CI (C++ implementation), FIC-MRCC
   Dagmar Lenk            : GEPOL surface, SMD
   Dimitrios Liakos       : Extrapolation schemes; Compound Job, initial MDCI parallelization
   Dimitrios Manganas     : Further ROCIS development; embedding schemes
   Dimitrios Pantazis     : SARC Basis sets
   Anastasios Papadopoulos: AUTO-CI, single reference methods and gradients
   Taras Petrenko         : DFT Hessian,TD-DFT gradient, ASA, ECA, R-Raman, ABS, FL, XAS/XES, NRVS
   Peter Pinski           : DLPNO-MP2, DLPNO-MP2 Gradient
   Christoph Reimann      : Effective Core Potentials
   Marius Retegan         : Local ZFS, SOC
   Christoph Riplinger    : Optimizer, TS searches, QM/MM, DLPNO-CCSD(T), (RO)-DLPNO pert. Triples
   Tobias Risthaus        : Range-separated hybrids, TD-DFT gradient, RPA, STAB
   Michael Roemelt        : Original ROCIS implementation
   Masaaki Saitow         : Open-shell DLPNO-CCSD energy and density
   Barbara Sandhoefer     : DKH picture change effects
   Avijit Sen             : IP-ROCIS
   Kantharuban Sivalingam : CASSCF convergence, NEVPT2, FIC-MRCI
   Bernardo de Souza      : ESD, SOC TD-DFT
   Georgi Stoychev        : AutoAux, RI-MP2 NMR, DLPNO-MP2 response
   Willem Van den Heuvel  : Paramagnetic NMR
   Boris Wezisla          : Elementary symmetry handling
   Frank Wennmohs         : Technical directorship


 We gratefully acknowledge several colleagues who have allowed us to
 interface, adapt or use parts of their codes:
   Stefan Grimme, W. Hujo, H. Kruse, P. Pracht,  : VdW corrections, initial TS optimization,
                  C. Bannwarth, S. Ehlert          DFT functionals, gCP, sTDA/sTD-DF
   Ed Valeev, F. Pavosevic, A. Kumar             : LibInt (2-el integral package), F12 methods
   Garnet Chan, S. Sharma, J. Yang, R. Olivares  : DMRG
   Ulf Ekstrom                                   : XCFun DFT Library
   Mihaly Kallay                                 : mrcc  (arbitrary order and MRCC methods)
   Jiri Pittner, Ondrej Demel                    : Mk-CCSD
   Frank Weinhold                                : gennbo (NPA and NBO analysis)
   Christopher J. Cramer and Donald G. Truhlar   : smd solvation model
   Lars Goerigk                                  : TD-DFT with DH, B97 family of functionals
   V. Asgeirsson, H. Jonsson                     : NEB implementation
   FAccTs GmbH                                   : IRC, NEB, NEB-TS, DLPNO-Multilevel, CI-OPT
                                                   MM, QMMM, 2- and 3-layer-ONIOM, Crystal-QMMM,
                                                   LR-CPCM, SF, NACMEs, symmetry and pop. for TD-DFT,
                                                   nearIR, NL-DFT gradient (VV10), updates on ESD,
                                                   ML-optimized integration grids
   S Lehtola, MJT Oliveira, MAL Marques          : LibXC Library
   Liviu Ungur et al                             : ANISO software


 Your calculation uses the libint2 library for the computation of 2-el integrals
 For citations please refer to: http://libint.valeyev.net

 Your ORCA version has been built with support for libXC version: 5.1.0
 For citations please refer to: https://tddft.org/programs/libxc/

 This ORCA versions uses:
   CBLAS   interface :  Fast vector & matrix operations
   LAPACKE interface :  Fast linear algebra routines
   Shared memory     :  Shared parallel matrices


Your calculation utilizes the atom-pairwise dispersion correction
based on tight binding partial charges (D4)
Cite in your paper:
E.Caldeweyher, C.Bannwarth, S.Grimme, J.Chem.Phys., (2017), 147, 034112.
E.Caldeweyher, S.Ehlert, A.Hansen, H.Neugebauer, S.Grimme, J.Chem.Phys., (2018), in progress.
   

================================================================================

----- Orbital basis set information -----
Your calculation utilizes the basis: def2-SVP
   F. Weigend and R. Ahlrichs, Phys. Chem. Chem. Phys. 7, 3297 (2005).

----- AuxJ basis set information -----
Your calculation utilizes the auxiliary basis: def2/J
   F. Weigend, Phys. Chem. Chem. Phys. 8, 1057 (2006).

================================================================================
                                        WARNINGS
                       Please study these warnings very carefully!
================================================================================


WARNING: Geometry Optimization
  ===> : Switching off AutoStart
         For restart on a previous wavefunction, please use MOREAD

INFO   : the flag for use of the SHARK integral package has been found!

================================================================================
                                       INPUT FILE
================================================================================
NAME = educts_optfreq_5.inp
|  1> !B3LYP DEF2-SVP OPT FREQ D4 SOSCF
|  2> 
|  3> %geom 
|  4> convergence tight
|  5> maxiter 1000
|  6> end
|  7> 
|  8> * xyz 1 1
|  9>   C   0.44258839179760      0.57131323203787      3.44519998337857
| 10>   C   -0.22591043122698      1.20361856098884      2.35902973608921
| 11>   C   -0.18573826667829      0.65153890423122      1.09153096684281
| 12>   C   0.52797319586849     -0.55147997460816      0.86797352229176
| 13>   C   1.19643274831608     -1.19609515180021      1.93291887196247
| 14>   C   1.15598445716822     -0.64509532339265      3.19921543166711
| 15>   C   0.40131206834911      1.14299947005267      4.81543962898439
| 16>   H   1.41742322194523      1.20779086419913      5.24577276648342
| 17>   H   -0.15621102867741      0.46415094977154      5.49213619269816
| 18>   H   -0.07383131103056      2.13200316198605      4.84926609471892
| 19>   H   -0.77065226255027      2.13289182282876      2.54009557537169
| 20>   H   -0.69951731279755      1.13815158311591      0.26009772968568
| 21>   H   0.55921879451707     -0.98456176303871     -0.13452475449592
| 22>   H   1.74228902418790     -2.12398765253056      1.75011660980430
| 23>   H   1.67053526022174     -1.13320393802821      4.03072307993694
| 24>   N   -2.31817532509503     -2.32040762533373    -13.50925417081270
| 25>   O   -2.13975939026047     -1.22886114851251    -13.23968068255069
| 26>   O   -2.22484183405488     -0.55170597196724    -14.64779658205603
| 27> **                         ****END OF INPUT****
================================================================================

                       *****************************
                       * Geometry Optimization Run *
                       *****************************

Geometry optimization settings:
Update method            Update   .... BFGS
Choice of coordinates    CoordSys .... Z-matrix Internals
Initial Hessian          InHess   .... Almoef's Model

Convergence Tolerances:
Energy Change            TolE     ....  1.0000e-06 Eh
Max. Gradient            TolMAXG  ....  1.0000e-04 Eh/bohr
RMS Gradient             TolRMSG  ....  3.0000e-05 Eh/bohr
Max. Displacement        TolMAXD  ....  1.0000e-03 bohr
RMS Displacement         TolRMSD  ....  6.0000e-04 bohr
Strict Convergence                ....  False
------------------------------------------------------------------------------
                        ORCA OPTIMIZATION COORDINATE SETUP
------------------------------------------------------------------------------

The optimization will be done in new redundant internal coordinates
Making redundant internal coordinates   ...  (new redundants) done
Evaluating the initial hessian          ...  (Almloef) done
Evaluating the coordinates              ...  done
Calculating the B-matrix                .... done
Calculating the G-matrix                .... done
Diagonalizing the G-matrix              .... done
Small eigenvalue found = 2.186e-02
The first mode is                       ....   44
The number of degrees of freedom        ....   48

    -----------------------------------------------------------------
                    Redundant Internal Coordinates


    -----------------------------------------------------------------
         Definition                    Initial Value    Approx d2E/dq
    -----------------------------------------------------------------
      1. B(C   1,C   0)                  1.4235         0.552367   
      2. B(C   2,C   1)                  1.3831         0.640842   
      3. B(C   3,C   2)                  1.4166         0.566733   
      4. B(C   4,C   3)                  1.4130         0.574244   
      5. B(C   5,C   4)                  1.3816         0.644441   
      6. B(C   5,C   0)                  1.4315         0.536517   
      7. B(C   6,C   0)                  1.4853         0.440261   
      8. B(H   7,C   6)                  1.1054         0.340317   
      9. B(H   8,C   6)                  1.1089         0.335987   
     10. B(H   9,C   6)                  1.0977         0.350005   
     11. B(H  10,C   1)                  1.0923         0.357095   
     12. B(H  11,C   2)                  1.0918         0.357718   
     13. B(H  12,C   3)                  1.0925         0.356818   
     14. B(H  13,C   4)                  1.0920         0.357526   
     15. B(H  14,C   5)                  1.0929         0.356292   
     16. B(N  15,H  12)                 13.7458         0.000000   
     17. B(N  15,H  11)                 14.2890         0.000000   
     18. B(O  16,H  12)                 13.3824         0.000000   
     19. B(O  16,H  11)                 13.7812         0.000000   
     20. B(O  16,C   3)                 14.3736         0.000000   
     21. B(O  16,N  15)                  1.1384         1.263017   
     22. B(O  17,O  16)                  1.5648         0.263722   
     23. A(C   1,C   0,C   5)          118.7093         0.414336   
     24. A(C   1,C   0,C   6)          121.3249         0.400097   
     25. A(C   5,C   0,C   6)          119.9638         0.398054   
     26. A(C   0,C   1,H  10)          119.0523         0.345612   
     27. A(C   0,C   1,C   2)          120.5504         0.427687   
     28. A(C   2,C   1,H  10)          120.3972         0.354388   
     29. A(C   3,C   2,H  11)          119.6976         0.347209   
     30. A(C   1,C   2,C   3)          119.8845         0.429661   
     31. A(C   1,C   2,H  11)          120.4177         0.354492   
     32. A(C   2,C   3,C   4)          120.4547         0.421304   
     33. A(C   2,C   3,O  16)           95.8203         0.089007   
     34. A(C   4,C   3,H  12)          119.8168         0.347832   
     35. A(H  12,C   3,O  16)           23.9333         0.089005   
     36. A(C   4,C   3,O  16)          143.7120         0.089007   
     37. A(C   2,C   3,H  12)          119.7283         0.347062   
     38. A(C   5,C   4,H  13)          120.4626         0.354797   
     39. A(C   3,C   4,H  13)          119.8670         0.347948   
     40. A(C   3,C   4,C   5)          119.6704         0.431111   
     41. A(C   4,C   5,H  14)          120.3608         0.354589   
     42. A(C   0,C   5,C   4)          120.7303         0.425889   
     43. A(C   0,C   5,H  14)          118.9089         0.343796   
     44. A(H   8,C   6,H   9)          108.3686         0.286423   
     45. A(H   7,C   6,H   9)          109.4557         0.286996   
     46. A(C   0,C   6,H   9)          112.7822         0.331665   
     47. A(H   7,C   6,H   8)          105.0990         0.285173   
     48. A(C   0,C   6,H   8)          109.9577         0.329430   
     49. A(C   0,C   6,H   7)          110.8650         0.330128   
     50. A(C   3,O  16,O  17)          150.7998         0.089006   
     51. A(C   3,O  16,N  15)          107.8599         0.089008   
     52. A(N  15,O  16,O  17)          101.1466         0.412087   
     53. D(H  10,C   1,C   0,C   5)   -179.9040         0.020878   
     54. D(C   2,C   1,C   0,C   5)      0.0083         0.020878   
     55. D(C   2,C   1,C   0,C   6)   -179.4837         0.020878   
     56. D(H  10,C   1,C   0,C   6)      0.6040         0.020878   
     57. D(C   3,C   2,C   1,C   0)     -0.1368         0.028538   
     58. D(H  11,C   2,C   1,C   0)    179.9795         0.028538   
     59. D(C   3,C   2,C   1,H  10)    179.7743         0.028538   
     60. D(H  11,C   2,C   1,H  10)     -0.1094         0.028538   
     61. D(O  16,C   3,C   2,H  11)      1.1388         0.023907   
     62. D(H  12,C   3,C   2,H  11)     -0.0280         0.023907   
     63. D(H  12,C   3,C   2,C   1)   -179.9125         0.023907   
     64. D(C   4,C   3,C   2,C   1)      0.2414         0.023907   
     65. D(C   4,C   3,C   2,H  11)   -179.8741         0.023907   
     66. D(O  16,C   3,C   2,C   1)   -178.7457         0.023907   
     67. D(C   5,C   4,C   3,C   2)     -0.2145         0.024576   
     68. D(H  13,C   4,C   3,O  16)     -1.8092         0.024576   
     69. D(H  13,C   4,C   3,H  12)      0.0477         0.024576   
     70. D(H  13,C   4,C   3,C   2)    179.8937         0.024576   
     71. D(C   5,C   4,C   3,O  16)    178.0827         0.024576   
     72. D(C   5,C   4,C   3,H  12)    179.9395         0.024576   
     73. D(H  14,C   5,C   4,H  13)      0.0047         0.028882   
     74. D(C   0,C   5,C   4,H  13)    179.9757         0.028882   
     75. D(C   0,C   5,C   4,C   3)      0.0844         0.028882   
     76. D(H  14,C   5,C   0,C   6)     -0.5113         0.019661   
     77. D(H  14,C   5,C   0,C   1)    179.9896         0.019661   
     78. D(H  14,C   5,C   4,C   3)   -179.8865         0.028882   
     79. D(C   4,C   5,C   0,C   6)    179.5174         0.019661   
     80. D(C   4,C   5,C   0,C   1)      0.0183         0.019661   
     81. D(H   8,C   6,C   0,C   1)    113.7981         0.014302   
     82. D(H   7,C   6,C   0,C   5)     50.0973         0.014302   
     83. D(H   7,C   6,C   0,C   1)   -130.4171         0.014302   
     84. D(H   9,C   6,C   0,C   5)    173.2383         0.014302   
     85. D(H   9,C   6,C   0,C   1)     -7.2760         0.014302   
     86. D(H   8,C   6,C   0,C   5)    -65.6875         0.014302   
     87. D(O  17,O  16,C   3,H  12)   -137.2020         0.001500   
     88. D(O  17,O  16,C   3,C   4)   -133.2283         0.001500   
     89. D(O  17,O  16,C   3,C   2)     45.2963         0.001500   
     90. D(N  15,O  16,C   3,H  12)     35.9480         0.001500   
     91. D(N  15,O  16,C   3,C   4)     39.9217         0.001500   
     92. D(N  15,O  16,C   3,C   2)   -141.5537         0.001500   
    -----------------------------------------------------------------

Number of atoms                         .... 18
Number of degrees of freedom            .... 92

         *************************************************************
         *                GEOMETRY OPTIMIZATION CYCLE   1            *
         *************************************************************
---------------------------------
CARTESIAN COORDINATES (ANGSTROEM)
---------------------------------
  C      0.442588    0.571313    3.445200
  C     -0.225910    1.203619    2.359030
  C     -0.185738    0.651539    1.091531
  C      0.527973   -0.551480    0.867974
  C      1.196433   -1.196095    1.932919
  C      1.155984   -0.645095    3.199215
  C      0.401312    1.142999    4.815440
  H      1.417423    1.207791    5.245773
  H     -0.156211    0.464151    5.492136
  H     -0.073831    2.132003    4.849266
  H     -0.770652    2.132892    2.540096
  H     -0.699517    1.138152    0.260098
  H      0.559219   -0.984562   -0.134525
  H      1.742289   -2.123988    1.750117
  H      1.670535   -1.133204    4.030723
  N     -2.318175   -2.320408  -13.509254
  O     -2.139759   -1.228861  -13.239681
  O     -2.224842   -0.551706  -14.647797

----------------------------
CARTESIAN COORDINATES (A.U.)
----------------------------
  NO LB      ZA    FRAG     MASS         X           Y           Z
   0 C     6.0000    0    12.011    0.836371    1.079626    6.510484
   1 C     6.0000    0    12.011   -0.426909    2.274509    4.457920
   2 C     6.0000    0    12.011   -0.350994    1.231230    2.062695
   3 C     6.0000    0    12.011    0.997725   -1.042146    1.640232
   4 C     6.0000    0    12.011    2.260930   -2.260292    3.652687
   5 C     6.0000    0    12.011    2.184494   -1.219053    6.045641
   6 C     6.0000    0    12.011    0.758370    2.159956    9.099862
   7 H     1.0000    0     1.008    2.678542    2.282394    9.913074
   8 H     1.0000    0     1.008   -0.295196    0.877118   10.378633
   9 H     1.0000    0     1.008   -0.139521    4.028902    9.163785
  10 H     1.0000    0     1.008   -1.456322    4.030581    4.800085
  11 H     1.0000    0     1.008   -1.321896    2.150795    0.491513
  12 H     1.0000    0     1.008    1.056770   -1.860552   -0.254215
  13 H     1.0000    0     1.008    3.292449   -4.013755    3.307241
  14 H     1.0000    0     1.008    3.156854   -2.141445    7.616963
  15 N     7.0000    0    14.007   -4.380716   -4.384935  -25.528791
  16 O     8.0000    0    15.999   -4.043559   -2.322211  -25.019371
  17 O     8.0000    0    15.999   -4.204342   -1.042573  -27.680324

--------------------------------
INTERNAL COORDINATES (ANGSTROEM)
--------------------------------
 C      0   0   0     0.000000000000     0.00000000     0.00000000
 C      1   0   0     1.423540133436     0.00000000     0.00000000
 C      2   1   0     1.383097567148   120.55039699     0.00000000
 C      3   2   1     1.416550883530   119.88452369   359.86318380
 C      4   3   2     1.412966913169   120.45472486     0.24135264
 C      5   4   3     1.381572963068   119.67035417   359.78550861
 C      1   2   3     1.485289727967   121.32488994   180.51633087
 H      7   1   2     1.105380663142   110.86497680   229.58294534
 H      7   1   2     1.108866789361   109.95770493   113.79814367
 H      7   1   2     1.097740298709   112.78218979   352.72396094
 H      2   1   3     1.092280777144   119.05234915   180.08769739
 H      3   2   1     1.091806775639   120.41772719   179.97947930
 H      4   3   2     1.092492067645   119.72833041   180.08747276
 H      5   4   3     1.091952487002   119.86697381   179.89365092
 H      6   5   4     1.092894101794   120.36075898   180.11354549
 N     13   4   3    13.745809108491   157.72736560   355.84938244
 O     16  13   4     1.138409338699    69.12108633    42.01535634
 O     17  16  13     1.564790254892   101.14662442   175.43921785

---------------------------
INTERNAL COORDINATES (A.U.)
---------------------------
 C      0   0   0     0.000000000000     0.00000000     0.00000000
 C      1   0   0     2.690100992839     0.00000000     0.00000000
 C      2   1   0     2.613675618403   120.55039699     0.00000000
 C      3   2   1     2.676893224635   119.88452369   359.86318380
 C      4   3   2     2.670120502181   120.45472486     0.24135264
 C      5   4   3     2.610794534229   119.67035417   359.78550861
 C      1   2   3     2.806790815383   121.32488994   180.51633087
 H      7   1   2     2.088866727070   110.86497680   229.58294534
 H      7   1   2     2.095454550893   109.95770493   113.79814367
 H      7   1   2     2.074428530729   112.78218979   352.72396094
 H      2   1   3     2.064111530150   119.05234915   180.08769739
 H      3   2   1     2.063215797118   120.41772719   179.97947930
 H      4   3   2     2.064510811331   119.72833041   180.08747276
 H      5   4   3     2.063491151688   119.86697381   179.89365092
 H      6   5   4     2.065270545768   120.36075898   180.11354549
 N     13   4   3    25.975814704209   157.72736560   355.84938244
 O     16  13   4     2.151281878440    69.12108633    42.01535634
 O     17  16  13     2.957025038774   101.14662442   175.43921785

---------------------
BASIS SET INFORMATION
---------------------
There are 4 groups of distinct atoms

 Group   1 Type C   : 7s4p1d contracted to 3s2p1d pattern {511/31/1}
 Group   2 Type H   : 4s1p contracted to 2s1p pattern {31/1}
 Group   3 Type N   : 7s4p1d contracted to 3s2p1d pattern {511/31/1}
 Group   4 Type O   : 7s4p1d contracted to 3s2p1d pattern {511/31/1}

Atom   0C    basis set group =>   1
Atom   1C    basis set group =>   1
Atom   2C    basis set group =>   1
Atom   3C    basis set group =>   1
Atom   4C    basis set group =>   1
Atom   5C    basis set group =>   1
Atom   6C    basis set group =>   1
Atom   7H    basis set group =>   2
Atom   8H    basis set group =>   2
Atom   9H    basis set group =>   2
Atom  10H    basis set group =>   2
Atom  11H    basis set group =>   2
Atom  12H    basis set group =>   2
Atom  13H    basis set group =>   2
Atom  14H    basis set group =>   2
Atom  15N    basis set group =>   3
Atom  16O    basis set group =>   4
Atom  17O    basis set group =>   4
---------------------------------
AUXILIARY/J BASIS SET INFORMATION
---------------------------------
There are 4 groups of distinct atoms

 Group   1 Type C   : 12s5p4d2f1g contracted to 6s4p3d1f1g pattern {711111/2111/211/2/1}
 Group   2 Type H   : 5s2p1d contracted to 3s1p1d pattern {311/2/1}
 Group   3 Type N   : 12s5p4d2f1g contracted to 6s4p3d1f1g pattern {711111/2111/211/2/1}
 Group   4 Type O   : 12s5p4d2f1g contracted to 6s4p3d1f1g pattern {711111/2111/211/2/1}

Atom   0C    basis set group =>   1
Atom   1C    basis set group =>   1
Atom   2C    basis set group =>   1
Atom   3C    basis set group =>   1
Atom   4C    basis set group =>   1
Atom   5C    basis set group =>   1
Atom   6C    basis set group =>   1
Atom   7H    basis set group =>   2
Atom   8H    basis set group =>   2
Atom   9H    basis set group =>   2
Atom  10H    basis set group =>   2
Atom  11H    basis set group =>   2
Atom  12H    basis set group =>   2
Atom  13H    basis set group =>   2
Atom  14H    basis set group =>   2
Atom  15N    basis set group =>   3
Atom  16O    basis set group =>   4
Atom  17O    basis set group =>   4
------------------------------------------------------------------------------
                           ORCA GTO INTEGRAL CALCULATION
                           -- RI-GTO INTEGRALS CHOSEN --
------------------------------------------------------------------------------
------------------------------------------------------------------------------
                   ___                                                        
                  /   \      - P O W E R E D   B Y -                         
                 /     \                                                     
                 |  |  |   _    _      __       _____    __    __             
                 |  |  |  | |  | |    /  \     |  _  \  |  |  /  |          
                  \  \/   | |  | |   /    \    | | | |  |  | /  /          
                 / \  \   | |__| |  /  /\  \   | |_| |  |  |/  /          
                |  |  |   |  __  | /  /__\  \  |    /   |      \           
                |  |  |   | |  | | |   __   |  |    \   |  |\   \          
                \     /   | |  | | |  |  |  |  | |\  \  |  | \   \       
                 \___/    |_|  |_| |__|  |__|  |_| \__\ |__|  \__/        
                                                                              
                      - O R C A' S   B I G   F R I E N D -                    
                                      &                                       
                       - I N T E G R A L  F E E D E R -                       
                                                                              
 v1 FN, 2020, v2 2021                                                         
------------------------------------------------------------------------------


Reading SHARK input file educts_optfreq_5.SHARKINP.tmp ... ok
----------------------
SHARK INTEGRAL PACKAGE
----------------------

Number of atoms                             ...     18
Number of basis functions                   ...    180
Number of shells                            ...     84
Maximum angular momentum                    ...      2
Integral batch strategy                     ... SHARK/LIBINT Hybrid
RI-J (if used) integral strategy            ... SPLIT-RIJ (Revised 2003 algorithm where possible)
Printlevel                                  ...      1
Contraction scheme used                     ... SEGMENTED contraction
Coulomb Range Separation                    ... NOT USED
Exchange Range Separation                   ... NOT USED
Finite Nucleus Model                        ... NOT USED
Auxiliary Coulomb fitting basis             ... AVAILABLE
   # of basis functions in Aux-J            ...    578
   # of shells in Aux-J                     ...    190
   Maximum angular momentum in Aux-J        ...      4
Auxiliary J/K fitting basis                 ... NOT available
Auxiliary Correlation fitting basis         ... NOT available
Auxiliary 'external' fitting basis          ... NOT available
Integral threshold                          ...     2.500000e-11
Primitive cut-off                           ...     2.500000e-12
Primitive pair pre-selection threshold      ...     2.500000e-12

Calculating pre-screening integrals         ... done (  0.0 sec) Dimension = 84
Organizing shell pair data                  ... done (  0.0 sec)
Shell pair information
Total number of shell pairs                 ...      3570
Shell pairs after pre-screening             ...      2297
Total number of primitive shell pairs       ...     13034
Primitive shell pairs kept                  ...      6348
          la=0 lb=0:    720 shell pairs
          la=1 lb=0:    834 shell pairs
          la=1 lb=1:    262 shell pairs
          la=2 lb=0:    279 shell pairs
          la=2 lb=1:    168 shell pairs
          la=2 lb=2:     34 shell pairs

Calculating one electron integrals          ... done (  0.0 sec)
Calculating RI/J V-Matrix + Cholesky decomp.... done (  0.0 sec)
Calculating Nuclear repulsion               ... done (  0.0 sec) ENN=    366.016172961382 Eh

SHARK setup successfully completed in   0.3 seconds

Maximum memory used throughout the entire GTOINT-calculation: 19.3 MB
-------------------------------------------------------------------------------
                                 ORCA SCF
-------------------------------------------------------------------------------

------------
SCF SETTINGS
------------
Hamiltonian:
 Density Functional     Method          .... DFT(GTOs)
 Exchange Functional    Exchange        .... B88
   X-Alpha parameter    XAlpha          ....  0.666667
   Becke's b parameter  XBeta           ....  0.004200
 Correlation Functional Correlation     .... LYP
 LDA part of GGA corr.  LDAOpt          .... VWN-5
 Gradients option       PostSCFGGA      .... off
 Hybrid DFT is turned on
   Fraction HF Exchange ScalHFX         ....  0.200000
   Scaling of DF-GGA-X  ScalDFX         ....  0.720000
   Scaling of DF-GGA-C  ScalDFC         ....  0.810000
   Scaling of DF-LDA-C  ScalLDAC        ....  1.000000
   Perturbative correction              ....  0.000000
   Density functional embedding theory  .... OFF
   NL short-range parameter             ....  4.800000
 RI-approximation to the Coulomb term is turned on
   Number of AuxJ basis functions       .... 578
   RIJ-COSX (HFX calculated with COS-X)).... on


General Settings:
 Integral files         IntName         .... educts_optfreq_5
 Hartree-Fock type      HFTyp           .... RHF
 Total Charge           Charge          ....    1
 Multiplicity           Mult            ....    1
 Number of Electrons    NEL             ....   72
 Basis Dimension        Dim             ....  180
 Nuclear Repulsion      ENuc            ....    366.0161729614 Eh

Convergence Acceleration:
 DIIS                   CNVDIIS         .... on
   Start iteration      DIISMaxIt       ....    12
   Startup error        DIISStart       ....  0.200000
   # of expansion vecs  DIISMaxEq       ....     5
   Bias factor          DIISBfac        ....   1.050
   Max. coefficient     DIISMaxC        ....  10.000
 Trust-Rad. Augm. Hess. CNVTRAH         .... auto
   Auto Start mean grad. ratio tolernc. ....  1.125000
   Auto Start start iteration           ....    20
   Auto Start num. interpolation iter.  ....    10
   Max. Number of Micro iterations      ....    16
   Max. Number of Macro iterations      .... Maxiter - #DIIS iter
   Number of Davidson start vectors     ....     2
   Converg. threshold I  (grad. norm)   ....   1.000e-05
   Converg. threshold II (energy diff.) ....   1.000e-08
   Grad. Scal. Fac. for Micro threshold ....   0.100
   Minimum threshold for Micro iter.    ....   0.010
   NR start threshold (gradient norm)   ....   0.001
   Initial trust radius                 ....   0.400
   Minimum AH scaling param. (alpha)    ....   1.000
   Maximum AH scaling param. (alpha)    .... 1000.000
   Orbital update algorithm             .... Taylor
   White noise on init. David. guess    .... on
   Maximum white noise                  ....   0.010
   Quad. conv. algorithm                .... NR
 SOSCF                  CNVSOSCF        .... on
   Start iteration      SOSCFMaxIt      ....   150
   Startup grad/error   SOSCFStart      ....  0.003300
 Level Shifting         CNVShift        .... on
   Level shift para.    LevelShift      ....    0.2500
   Turn off err/grad.   ShiftErr        ....    0.0010
 Zerner damping         CNVZerner       .... off
 Static damping         CNVDamp         .... on
   Fraction old density DampFac         ....    0.7000
   Max. Damping (<1)    DampMax         ....    0.9800
   Min. Damping (>=0)   DampMin         ....    0.0000
   Turn off err/grad.   DampErr         ....    0.1000
 Fernandez-Rico         CNVRico         .... off

SCF Procedure:
 Maximum # iterations   MaxIter         ....   125
 SCF integral mode      SCFMode         .... Direct
   Integral package                     .... SHARK and LIBINT hybrid scheme
 Reset frequency        DirectResetFreq ....    20
 Integral Threshold     Thresh          ....  2.500e-11 Eh
 Primitive CutOff       TCut            ....  2.500e-12 Eh

Convergence Tolerance:
 Convergence Check Mode ConvCheckMode   .... Total+1el-Energy
 Convergence forced     ConvForced      .... 0
 Energy Change          TolE            ....  1.000e-08 Eh
 1-El. energy change                    ....  1.000e-05 Eh
 Orbital Gradient       TolG            ....  1.000e-05
 Orbital Rotation angle TolX            ....  1.000e-05
 DIIS Error             TolErr          ....  5.000e-07


Diagonalization of the overlap matrix:
Smallest eigenvalue                        ... 3.209e-04
Time for diagonalization                   ...    0.008 sec
Threshold for overlap eigenvalues          ... 1.000e-08
Number of eigenvalues below threshold      ... 0
Time for construction of square roots      ...    0.005 sec
Total time needed                          ...    0.014 sec

Time for model grid setup =    0.377 sec

------------------------------
INITIAL GUESS: MODEL POTENTIAL
------------------------------
Loading Hartree-Fock densities                     ... done
Calculating cut-offs                               ... done
Initializing the effective Hamiltonian             ... done
Setting up the integral package (SHARK)            ... done
Starting the Coulomb interaction                   ... done (   0.5 sec)
Reading the grid                                   ... done
Mapping shells                                     ... done
Starting the XC term evaluation                    ... done (   0.7 sec)
  promolecular density results
     # of electrons  =     72.994379936
     EX              =    -61.142603654
     EC              =     -2.458588188
     EX+EC           =    -63.601191842
Transforming the Hamiltonian                       ... done (   0.0 sec)
Diagonalizing the Hamiltonian                      ... done (   0.0 sec)
Back transforming the eigenvectors                 ... done (   0.0 sec)
Now organizing SCF variables                       ... done
                      ------------------
                      INITIAL GUESS DONE (   1.6 sec)
                      ------------------
-------------------
DFT GRID GENERATION
-------------------

General Integration Accuracy     IntAcc      ... 4.388
Radial Grid Type                 RadialGrid  ... OptM3 with GC (2021)
Angular Grid (max. ang.)         AngularGrid ... 4 (Lebedev-302)
Angular grid pruning method      GridPruning ... 4 (adaptive)
Weight generation scheme         WeightScheme... Becke
Basis function cutoff            BFCut       ... 1.0000e-11
Integration weight cutoff        WCut        ... 1.0000e-14
Angular grids for H and He will be reduced by one unit
Partially contracted basis set               ... off
Rotationally invariant grid construction     ... off

Total number of grid points                  ...    86365
Total number of batches                      ...     1359
Average number of points per batch           ...       63
Average number of grid points per atom       ...     4798
Time for grid setup =    4.286 sec

--------------------
COSX GRID GENERATION
--------------------

GRIDX 1
-------
General Integration Accuracy     IntAcc      ... 3.816
Radial Grid Type                 RadialGrid  ... OptM3 with GC (2021)
Angular Grid (max. ang.)         AngularGrid ... 1 (Lebedev-50)
Angular grid pruning method      GridPruning ... 4 (adaptive)
Weight generation scheme         WeightScheme... Becke
Basis function cutoff            BFCut       ... 1.0000e-11
Integration weight cutoff        WCut        ... 1.0000e-14
Angular grids for H and He will be reduced by one unit
Partially contracted basis set               ... on
Rotationally invariant grid construction     ... off

Total number of grid points                  ...    11048
Total number of batches                      ...      180
Average number of points per batch           ...       61
Average number of grid points per atom       ...      614
UseSFitting                                  ... on

GRIDX 2
-------
General Integration Accuracy     IntAcc      ... 4.020
Radial Grid Type                 RadialGrid  ... OptM3 with GC (2021)
Angular Grid (max. ang.)         AngularGrid ... 2 (Lebedev-110)
Angular grid pruning method      GridPruning ... 4 (adaptive)
Weight generation scheme         WeightScheme... Becke
Basis function cutoff            BFCut       ... 1.0000e-11
Integration weight cutoff        WCut        ... 1.0000e-14
Angular grids for H and He will be reduced by one unit
Partially contracted basis set               ... on
Rotationally invariant grid construction     ... off

Total number of grid points                  ...    24455
Total number of batches                      ...      392
Average number of points per batch           ...       62
Average number of grid points per atom       ...     1359
UseSFitting                                  ... on

GRIDX 3
-------
General Integration Accuracy     IntAcc      ... 4.338
Radial Grid Type                 RadialGrid  ... OptM3 with GC (2021)
Angular Grid (max. ang.)         AngularGrid ... 3 (Lebedev-194)
Angular grid pruning method      GridPruning ... 4 (adaptive)
Weight generation scheme         WeightScheme... Becke
Basis function cutoff            BFCut       ... 1.0000e-11
Integration weight cutoff        WCut        ... 1.0000e-14
Angular grids for H and He will be reduced by one unit
Partially contracted basis set               ... on
Rotationally invariant grid construction     ... off

Total number of grid points                  ...    53769
Total number of batches                      ...      847
Average number of points per batch           ...       63
Average number of grid points per atom       ...     2987
UseSFitting                                  ... on

Time for X-Grid setup             =    5.132 sec

--------------
SCF ITERATIONS
--------------
ITER       Energy         Delta-E        Max-DP      RMS-DP      [F,P]     Damp
               ***  Starting incremental Fock matrix formation  ***
  0   -475.0831822715   0.000000000000 0.31640428  0.00479609  0.2821048 0.7000
  1   -475.2238706953  -0.140688423834 0.09447434  0.00174709  0.1022537 0.7000
                               ***Turning on DIIS***
  2   -475.3688586707  -0.144987975437 0.17059137  0.00378712  0.0475111 0.0000
  3   -475.3618564882   0.007002182557 0.01303168  0.00025545  0.1011294 0.7000
  4   -475.3720669216  -0.010210433407 0.04371170  0.00101639  0.0969512 0.0000
  5   -475.4025389361  -0.030472014523 0.03991052  0.00076935  0.0810762 0.0000
  6   -475.4102126492  -0.007673713071 0.57439583  0.00854470  0.0610786 0.0000
  7   -474.7943297948   0.615882854376 0.00424670  0.00010062  0.3138115 0.7000
  8   -474.7948991037  -0.000569308912 0.00593996  0.00012110  0.3096026 0.7000
  9   -474.7988959670  -0.003996863263 0.01525889  0.00024652  0.3008038 0.7000
 10   -474.8127815831  -0.013885616130 0.01909273  0.00032559  0.2780048 0.7000
 11   -474.8229572109  -0.010175627765 0.25517478  0.00756905  0.2478296 0.7000
 12   -474.3413754789   0.481581731954 0.14313260  0.00271067  0.1385456 0.7000
 13   -474.6443928643  -0.303017385351 0.08395396  0.00185375  0.1164563 0.7000
 14   -474.8584040338  -0.214011169535 0.05879912  0.00130597  0.1233662 0.7000
 15   -475.0155820163  -0.157177982512 0.04568030  0.00094070  0.1108615 0.7000
 16   -475.1299283893  -0.114346372997 0.79050168  0.01238217  0.0958768 0.0000
 17   -471.2375705779   3.892357811430 0.02433665  0.00052603  0.6324313 0.7000
 18   -471.3351939513  -0.097623373434 0.02116515  0.00049934  0.6121727 0.7000
 19   -471.4227713893  -0.087577437995 0.01762714  0.00041316  0.5959968 0.7000
               *** Restarting incremental Fock matrix formation ***
                                   *** Resetting DIIS ***

 WARNING: the maximum gradient error descreased on average only by a factor   0.8
          during the last 20 iterations

                      *** Initiating the TRAH-SCF procedure ***


TRAH GRIDX
----------

General Integration Accuracy     IntAcc      ... 3.067
Radial Grid Type                 RadialGrid  ... OptM3 with GC (2021)
Angular Grid (max. ang.)         AngularGrid ... 1 (Lebedev-50)
Angular grid pruning method      GridPruning ... 4 (adaptive)
Weight generation scheme         WeightScheme... Becke
Basis function cutoff            BFCut       ... 1.0000e-11
Integration weight cutoff        WCut        ... 1.0000e-14
Angular grids for H and He will be reduced by one unit
Partially contracted basis set               ... on
Rotationally invariant grid construction     ... off

Total number of grid points                  ...     5835
Total number of batches                      ...      101
Average number of points per batch           ...       57
Average number of grid points per atom       ...      324


TRAH GRID
---------

General Integration Accuracy     IntAcc      ... 3.467
Radial Grid Type                 RadialGrid  ... OptM3 with GC (2021)
Angular Grid (max. ang.)         AngularGrid ... 1 (Lebedev-50)
Angular grid pruning method      GridPruning ... 4 (adaptive)
Weight generation scheme         WeightScheme... Becke
Basis function cutoff            BFCut       ... 1.0000e-11
Integration weight cutoff        WCut        ... 1.0000e-14
Angular grids for H and He will be reduced by one unit
Partially contracted basis set               ... off
Rotationally invariant grid construction     ... off

Total number of grid points                  ...    12739
Total number of batches                      ...      206
Average number of points per batch           ...       61
Average number of grid points per atom       ...      708

 --------------------------------------------------------------------------------------------
   Iter.        energy            ||Error||_2        Shift      TRadius  Mac/Mic        Rej.
 --------------------------------------------------------------------------------------------
WARNING: 640 diagonal Hessian elements are negative!
    0       -471.650058470805     3.740444e+00                     0.400 (TRAH MAcro)   No
WARNING : negative HOMO - LUMO gap : -2.348816
    0     dE    -6.359340e-01     1.076153e+00    -7.5479e+00      0.232 (TRAH MIcro)
    0     dE    -6.571208e-01     7.191878e-01    -7.6487e+00      0.239 (TRAH MIcro)
    0     dE    -6.733996e-01     1.043265e-01    -7.7577e+00      0.242 (TRAH MIcro)
    0     dE    -5.070907e-01     1.554488e-01    -1.4719e+01      0.165 (TRAH MIcro)
    0     dE    -5.072004e-01     8.068774e-02    -1.4724e+01      0.165 (TRAH MIcro)
    0     dE    -5.071975e-01     3.349829e-02    -1.4726e+01      0.165 (TRAH MIcro)
    0     dE    -5.071829e-01     2.629127e-02    -1.4726e+01      0.165 (TRAH MIcro)
    0     dE    -5.071334e-01     6.731766e-03    -1.4726e+01      0.165 (TRAH MIcro)
WARNING: 591 diagonal Hessian elements are negative!
    1       -472.155115339677     2.395586e+00                     0.480 (TRAH MAcro)   No
WARNING : negative HOMO - LUMO gap : -2.117625
    1     dE    -2.620269e-01     4.133352e-01    -8.3593e+00      0.145 (TRAH MIcro)
    1     dE    -2.672580e-01     3.152706e-01    -8.4237e+00      0.148 (TRAH MIcro)
    1     dE    -2.732278e-01     4.210110e-02    -8.5160e+00      0.150 (TRAH MIcro)
    1     dE    -2.733591e-01     7.564583e-03    -8.5174e+00      0.150 (TRAH MIcro)
WARNING: 551 diagonal Hessian elements are negative!
    2       -472.427659374700     1.264776e+00                     0.576 (TRAH MAcro)   No
WARNING : negative HOMO - LUMO gap : -1.934255
    2     dE    -6.948152e-01     7.383162e+00    -3.7254e+00      0.576 (TRAH MIcro)
    2     dE    -8.774359e-02     2.230888e-01    -8.0917e+00      0.094 (TRAH MIcro)
    2     dE    -8.665735e-02     6.860444e-02    -8.2418e+00      0.090 (TRAH MIcro)
    2     dE    -8.598449e-02     2.637695e-02    -8.2638e+00      0.089 (TRAH MIcro)
    2     dE    -8.593813e-02     1.626237e-02    -8.2654e+00      0.089 (TRAH MIcro)
    2     dE    -8.595734e-02     6.393315e-03    -8.2661e+00      0.089 (TRAH MIcro)
WARNING: 527 diagonal Hessian elements are negative!
    3       -472.513464186708     7.298236e-01                     0.691 (TRAH MAcro)   No
WARNING : negative HOMO - LUMO gap : -1.841329
    3     dE    -5.545357e-01     6.177216e+00    -3.8469e+00      0.497 (TRAH MIcro)
    3     dE    -5.937989e-01     1.149204e-01    -7.8599e+00      0.372 (TRAH MIcro)
    3     dE    -5.934328e-01     6.965616e-02    -7.8673e+00      0.371 (TRAH MIcro)
    3     dE    -5.875912e-01     3.542245e-02    -7.8695e+00      0.369 (TRAH MIcro)
    3     dE    -5.840913e-01     1.516887e-02    -7.8702e+00      0.368 (TRAH MIcro)
    3     dE    -5.825643e-01     5.910362e-03    -7.8704e+00      0.368 (TRAH MIcro)
WARNING: 454 diagonal Hessian elements are negative!
    4       -473.030501511364     2.277189e+00                     0.829 (TRAH MAcro)   No
WARNING : negative HOMO - LUMO gap : -1.509656
    4     dE    -2.970791e+00     1.499799e+00    -5.8909e+00      0.829 (TRAH MIcro)
    4     dE    -2.631035e+00     3.253600e-01    -6.5033e+00      0.744 (TRAH MIcro)
    4     dE    -2.641195e+00     1.329363e-01    -6.5193e+00      0.744 (TRAH MIcro)
    4     dE    -2.640685e+00     5.568674e-02    -6.5207e+00      0.744 (TRAH MIcro)
    4     dE    -2.641153e+00     1.993715e-02    -6.5209e+00      0.744 (TRAH MIcro)
    4     dE    -2.641416e+00     6.098773e-03    -6.5210e+00      0.744 (TRAH MIcro)
WARNING: 118 diagonal Hessian elements are negative!
    5       -474.696496611375     1.538254e+00                     0.829 (TRAH MAcro)   No
WARNING : negative HOMO - LUMO gap : -0.825729
    5     dE    -3.313654e-01     1.190941e+00    -5.7905e-01      0.380 (TRAH MIcro)
    5     dE    -8.538322e-01     4.597184e+00    -1.4985e+00      0.829 (TRAH MIcro)
    5     dE    -5.960886e-01     1.757127e-01    -3.3606e+00      0.490 (TRAH MIcro)
    5     dE    -7.766391e-01     9.979150e-02    -3.3802e+00      0.587 (TRAH MIcro)
    5     dE    -8.621875e-01     7.447527e-02    -3.3858e+00      0.628 (TRAH MIcro)
    5     dE    -8.460506e-01     8.203601e-02    -3.3893e+00      0.620 (TRAH MIcro)
    5     dE    -7.662873e-01     8.209603e-02    -3.3943e+00      0.580 (TRAH MIcro)
    5     dE    -7.310599e-01     4.189460e-02    -3.3970e+00      0.562 (TRAH MIcro)
    5     dE    -7.191762e-01     8.969671e-03    -3.3973e+00      0.555 (TRAH MIcro)
WARNING: 14 diagonal Hessian elements are negative!
    6       -475.224153869427     1.082428e+00                     0.829 (TRAH MAcro)   No
WARNING : negative HOMO - LUMO gap : -0.287567
    6     dE    -1.386226e-01     1.427191e+00    -2.6078e-01      0.251 (TRAH MIcro)
    6     dE    -2.636013e-01     1.023817e+00    -4.3101e-01      0.472 (TRAH MIcro)
    6     dE    -5.060334e-01     1.380615e+00    -6.8750e-01      0.829 (TRAH MIcro)
    6     dE    -3.496429e-01     1.877463e-01    -1.3529e+00      0.511 (TRAH MIcro)
    6     dE    -4.161766e-01     9.052461e-02    -1.3676e+00      0.594 (TRAH MIcro)
    6     dE    -4.239278e-01     3.950579e-02    -1.3686e+00      0.603 (TRAH MIcro)
    6     dE    -4.277996e-01     8.201636e-03    -1.3687e+00      0.607 (TRAH MIcro)
WARNING: 1 diagonal Hessian elements are negative!
    7       -475.486320494575     5.402998e-01                     0.829 (TRAH MAcro)   No
WARNING : negative HOMO - LUMO gap : -0.005090
    7     dE    -1.787522e-02     3.566243e-01    -3.5591e-02      0.067 (TRAH MIcro)
    7     dE    -3.386960e-02     2.537998e-01    -6.3952e-02      0.243 (TRAH MIcro)
    7     dE    -3.864147e-02     2.282115e-01    -7.1116e-02      0.294 (TRAH MIcro)
    7     dE    -4.239428e-02     8.178425e-02    -7.5500e-02      0.351 (TRAH MIcro)
    7     dE    -4.359983e-02     4.199437e-02    -7.6242e-02      0.379 (TRAH MIcro)
    7     dE    -4.408629e-02     1.697517e-02    -7.6467e-02      0.391 (TRAH MIcro)
    7     dE    -4.418157e-02     1.041039e-02    -7.6503e-02      0.394 (TRAH MIcro)
    7     dE    -4.421689e-02     5.331472e-03    -7.6517e-02      0.395 (TRAH MIcro)
WARNING: 1 diagonal Hessian elements are negative!
    8       -475.519960253059     2.698757e-01                     0.995 (TRAH MAcro)   No
WARNING : negative HOMO - LUMO gap : -0.001355
    8     dE    -3.655626e-03     1.421758e-01    -7.3058e-03      0.027 (TRAH MIcro)
    8     dE    -5.150980e-03     4.353283e-02    -1.0267e-02      0.059 (TRAH MIcro)
    8     dE    -5.376385e-03     2.377336e-02    -1.0694e-02      0.074 (TRAH MIcro)
    8     dE    -5.440570e-03     9.438367e-03    -1.0806e-02      0.083 (TRAH MIcro)
    9       -475.525529797827     1.627106e-02                     1.194 (TRAH MAcro)   No
WARNING : small    HOMO - LUMO gap : 0.005851
    9     dE    -2.127125e-05     1.970057e-02    -4.2542e-05      0.003 (TRAH MIcro)
    9     dE    -2.494801e-05     1.968596e-02    -4.9895e-05      0.004 (TRAH MIcro)
    9     dE    -7.818770e-05     1.354733e-02    -1.5634e-04      0.015 (TRAH MIcro)
    9     dE    -9.276845e-05     5.721460e-03    -1.8547e-04      0.020 (TRAH MIcro)
    9     dE    -9.678141e-05     5.341291e-03    -1.9347e-04      0.022 (TRAH MIcro)
    9     dE    -9.936503e-05     2.028485e-03    -1.9861e-04      0.025 (TRAH MIcro)
    9     dE    -9.974315e-05     9.623195e-04    -1.9936e-04      0.025 (TRAH MIcro)
   10       -475.525631406216     1.675552e-03                     1.433 (TRAH MAcro)   No
WARNING : small    HOMO - LUMO gap : 0.006251
   10     dE    -1.195693e-07     2.008872e-03    -2.3915e-07      0.000 (TRAH MIcro)
   10     dE    -1.396919e-07     1.689862e-03    -2.7939e-07      0.000 (TRAH MIcro)
   10     dE    -2.285853e-07     7.079911e-04    -4.5717e-07      0.000 (TRAH MIcro)
   10     dE    -3.089887e-07     5.845076e-04    -6.1798e-07      0.001 (TRAH MIcro)
   10     dE    -3.391449e-07     3.598709e-04    -6.7829e-07      0.001 (TRAH MIcro)
   10     dE    -3.492710e-07     1.899733e-04    -6.9854e-07      0.001 (TRAH MIcro)
   10     dE    -3.520436e-07     5.187907e-05    -7.0409e-07      0.001 (TRAH MIcro)
   11       -475.525631755584     5.087069e-05                           (NR   MAcro)
WARNING : small    HOMO - LUMO gap : 0.006313
   11     dE    -2.033681e-11     4.897946e-05                           (NR   MIcro)
   11     dE    -1.774765e-10     2.110473e-05                           (NR   MIcro)
   11     dE    -2.104090e-10     1.367575e-05                           (NR   MIcro)
   11     dE    -2.273067e-10     8.459613e-06                           (NR   MIcro)
   11     dE    -2.331416e-10     3.817450e-06                           (NR   MIcro)
   11     dE    -2.344638e-10     1.676274e-06                           (NR   MIcro)
   11     dE    -2.349121e-10     1.273095e-06                           (NR   MIcro)
   11     dE    -2.350921e-10     5.792577e-07                           (NR   MIcro)
   12       -475.525631755699     5.812750e-07                           (NR   MAcro)
WARNING : small    HOMO - LUMO gap : 0.006313

               *****************************************************
               *                     SUCCESS                       *
               *           SCF CONVERGED AFTER 113 CYCLES          *
               *****************************************************

Old exchange energy                            =    -12.243432621 Eh
New exchange energy                            =    -12.243453888 Eh
Exchange energy change after final integration =     -0.000021267 Eh
Total energy after final integration           =   -475.525653023 Eh
Final COS-X integration done in                =    34.013 sec

----------------
TOTAL SCF ENERGY
----------------

Total Energy       :         -475.52565302 Eh          -12939.71086 eV

Components:
Nuclear Repulsion  :          366.01617296 Eh            9959.80641 eV
Electronic Energy  :         -841.54182598 Eh          -22899.51727 eV
One Electron Energy:        -1358.32752542 Eh          -36961.97108 eV
Two Electron Energy:          516.78569943 Eh           14062.45380 eV
Max COSX asymmetry :            0.00000393 Eh               0.00011 eV

Virial components:
Potential Energy   :         -947.04519063 Eh          -25770.40978 eV
Kinetic Energy     :          471.51953761 Eh           12830.69892 eV
Virial Ratio       :            2.00849618


DFT components:
N(Alpha)           :       35.999995804758 electrons
N(Beta)            :       35.999995804758 electrons
N(Total)           :       71.999991609515 electrons
E(X)               :      -48.892724252495 Eh       
E(C)               :       -2.868991284198 Eh       
E(XC)              :      -51.761715536693 Eh       
DFET-embed. en.    :        0.000000000000 Eh       

---------------
SCF CONVERGENCE
---------------

  Last Energy change         ...   -1.1499e-10  Tolerance :   1.0000e-08
  Last Orbital Gradient      ...    5.8127e-07  Tolerance :   1.0000e-05
  Last Orbital Rotation      ...    2.4617e-05

             **** THE GBW FILE WAS UPDATED (educts_optfreq_5.gbw) ****
             **** DENSITY educts_optfreq_5.scfp WAS UPDATED ****
             **** ENERGY FILE WAS UPDATED (educts_optfreq_5.en.tmp) ****
             **** THE GBW FILE WAS UPDATED (educts_optfreq_5.gbw) ****
             **** DENSITY educts_optfreq_5.scfp WAS UPDATED ****
----------------
ORBITAL ENERGIES
----------------

  NO   OCC          E(Eh)            E(eV) 
   0   2.0000     -19.540336      -531.7196 
   1   2.0000     -19.347227      -526.4648 
   2   2.0000     -14.679994      -399.4630 
   3   2.0000     -10.367217      -282.1063 
   4   2.0000     -10.356228      -281.8073 
   5   2.0000     -10.339904      -281.3631 
   6   2.0000     -10.339013      -281.3388 
   7   2.0000     -10.336881      -281.2808 
   8   2.0000     -10.336391      -281.2675 
   9   2.0000     -10.317507      -280.7536 
  10   2.0000      -1.490435       -40.5568 
  11   2.0000      -1.076742       -29.2996 
  12   2.0000      -0.998236       -27.1634 
  13   2.0000      -0.910813       -24.7845 
  14   2.0000      -0.885862       -24.1055 
  15   2.0000      -0.863084       -23.4857 
  16   2.0000      -0.816967       -22.2308 
  17   2.0000      -0.743638       -20.2354 
  18   2.0000      -0.739874       -20.1330 
  19   2.0000      -0.728302       -19.8181 
  20   2.0000      -0.722105       -19.6495 
  21   2.0000      -0.673701       -18.3323 
  22   2.0000      -0.650481       -17.7005 
  23   2.0000      -0.609024       -16.5724 
  24   2.0000      -0.589563       -16.0428 
  25   2.0000      -0.565707       -15.3937 
  26   2.0000      -0.552954       -15.0466 
  27   2.0000      -0.551868       -15.0171 
  28   2.0000      -0.518407       -14.1066 
  29   2.0000      -0.495300       -13.4778 
  30   2.0000      -0.492138       -13.3918 
  31   2.0000      -0.481685       -13.1073 
  32   2.0000      -0.458395       -12.4736 
  33   2.0000      -0.447916       -12.1884 
  34   2.0000      -0.402675       -10.9573 
  35   2.0000      -0.375556       -10.2194 
  36   0.0000      -0.369242       -10.0476 
  37   0.0000      -0.294631        -8.0173 
  38   0.0000      -0.202127        -5.5002 
  39   0.0000      -0.159992        -4.3536 
  40   0.0000      -0.147452        -4.0124 
  41   0.0000      -0.054608        -1.4860 
  42   0.0000      -0.031130        -0.8471 
  43   0.0000      -0.020885        -0.5683 
  44   0.0000      -0.012339        -0.3358 
  45   0.0000       0.004312         0.1173 
  46   0.0000       0.019047         0.5183 
  47   0.0000       0.034003         0.9253 
  48   0.0000       0.044048         1.1986 
  49   0.0000       0.049477         1.3463 
  50   0.0000       0.096155         2.6165 
  51   0.0000       0.148680         4.0458 
  52   0.0000       0.159795         4.3482 
  53   0.0000       0.160681         4.3724 
  54   0.0000       0.175810         4.7840 
  55   0.0000       0.185105         5.0370 
  56   0.0000       0.220899         6.0110 
  57   0.0000       0.259104         7.0506 
  58   0.0000       0.281624         7.6634 
  59   0.0000       0.285082         7.7575 
  60   0.0000       0.299226         8.1424 
  61   0.0000       0.309264         8.4155 
  62   0.0000       0.318822         8.6756 
  63   0.0000       0.343947         9.3593 
  64   0.0000       0.351776         9.5723 
  65   0.0000       0.361380         9.8337 
  66   0.0000       0.373692        10.1687 
  67   0.0000       0.397876        10.8267 
  68   0.0000       0.403628        10.9833 
  69   0.0000       0.437216        11.8973 
  70   0.0000       0.460578        12.5330 
  71   0.0000       0.480391        13.0721 
  72   0.0000       0.497787        13.5455 
  73   0.0000       0.502643        13.6776 
  74   0.0000       0.504002        13.7146 
  75   0.0000       0.507152        13.8003 
  76   0.0000       0.517928        14.0935 
  77   0.0000       0.518960        14.1216 
  78   0.0000       0.540622        14.7111 
  79   0.0000       0.541841        14.7443 
  80   0.0000       0.549579        14.9548 
  81   0.0000       0.550199        14.9717 
  82   0.0000       0.559771        15.2322 
  83   0.0000       0.566494        15.4151 
  84   0.0000       0.590185        16.0598 
  85   0.0000       0.594869        16.1872 
  86   0.0000       0.602105        16.3841 
  87   0.0000       0.611664        16.6442 
  88   0.0000       0.648806        17.6549 
  89   0.0000       0.653633        17.7862 
  90   0.0000       0.676547        18.4098 
  91   0.0000       0.703455        19.1420 
  92   0.0000       0.722039        19.6477 
  93   0.0000       0.724425        19.7126 
  94   0.0000       0.774989        21.0885 
  95   0.0000       0.827534        22.5183 
  96   0.0000       0.842432        22.9237 
  97   0.0000       0.859832        23.3972 
  98   0.0000       0.912919        24.8418 
  99   0.0000       0.937696        25.5160 
 100   0.0000       0.948406        25.8074 
 101   0.0000       0.992719        27.0132 
 102   0.0000       1.040261        28.3069 
 103   0.0000       1.070137        29.1199 
 104   0.0000       1.097727        29.8707 
 105   0.0000       1.107137        30.1267 
 106   0.0000       1.133072        30.8324 
 107   0.0000       1.136558        30.9273 
 108   0.0000       1.144682        31.1484 
 109   0.0000       1.148893        31.2630 
 110   0.0000       1.162718        31.6392 
 111   0.0000       1.334341        36.3093 
 112   0.0000       1.372600        37.3503 
 113   0.0000       1.390535        37.8384 
 114   0.0000       1.414538        38.4915 
 115   0.0000       1.505231        40.9594 
 116   0.0000       1.539566        41.8937 
 117   0.0000       1.545791        42.0631 
 118   0.0000       1.580700        43.0130 
 119   0.0000       1.589350        43.2484 
 120   0.0000       1.602981        43.6193 
 121   0.0000       1.606318        43.7101 
 122   0.0000       1.624845        44.2143 
 123   0.0000       1.631657        44.3996 
 124   0.0000       1.640113        44.6297 
 125   0.0000       1.665274        45.3144 
 126   0.0000       1.672914        45.5223 
 127   0.0000       1.682761        45.7902 
 128   0.0000       1.689203        45.9656 
 129   0.0000       1.699519        46.2463 
 130   0.0000       1.724679        46.9309 
 131   0.0000       1.771791        48.2129 
 132   0.0000       1.796743        48.8918 
 133   0.0000       1.806863        49.1672 
 134   0.0000       1.839423        50.0532 
 135   0.0000       1.842919        50.1484 
 136   0.0000       1.846961        50.2584 
 137   0.0000       1.884719        51.2858 
 138   0.0000       1.903217        51.7892 
 139   0.0000       1.911542        52.0157 
 140   0.0000       1.972601        53.6772 
 141   0.0000       1.990618        54.1675 
 142   0.0000       1.996055        54.3154 
 143   0.0000       2.023315        55.0572 
 144   0.0000       2.086915        56.7878 
 145   0.0000       2.129437        57.9449 
 146   0.0000       2.143305        58.3223 
 147   0.0000       2.163225        58.8644 
 148   0.0000       2.175898        59.2092 
 149   0.0000       2.188296        59.5465 
 150   0.0000       2.211313        60.1729 
 151   0.0000       2.229814        60.6763 
 152   0.0000       2.305990        62.7492 
 153   0.0000       2.327404        63.3319 
 154   0.0000       2.342739        63.7492 
 155   0.0000       2.438104        66.3442 
 156   0.0000       2.449986        66.6675 
 157   0.0000       2.451812        66.7172 
 158   0.0000       2.462936        67.0199 
 159   0.0000       2.478950        67.4557 
 160   0.0000       2.485633        67.6375 
 161   0.0000       2.489697        67.7481 
 162   0.0000       2.581611        70.2492 
 163   0.0000       2.584453        70.3265 
 164   0.0000       2.597652        70.6857 
 165   0.0000       2.605414        70.8969 
 166   0.0000       2.665523        72.5326 
 167   0.0000       2.693415        73.2916 
 168   0.0000       2.720045        74.0162 
 169   0.0000       2.739292        74.5399 
 170   0.0000       2.796824        76.1054 
 171   0.0000       2.823139        76.8215 
 172   0.0000       2.902355        78.9771 
 173   0.0000       2.984865        81.2223 
 174   0.0000       3.028906        82.4207 
 175   0.0000       3.059831        83.2622 
 176   0.0000       3.099379        84.3384 
 177   0.0000       3.191423        86.8430 
 178   0.0000       3.453902        93.9855 
 179   0.0000       3.496871        95.1547 

                    ********************************
                    * MULLIKEN POPULATION ANALYSIS *
                    ********************************

-----------------------
MULLIKEN ATOMIC CHARGES
-----------------------
   0 C :   -0.039547
   1 C :    0.033866
   2 C :    0.046539
   3 C :    0.068404
   4 C :    0.042755
   5 C :    0.036379
   6 C :    0.063195
   7 H :    0.074523
   8 H :    0.083573
   9 H :    0.053084
  10 H :    0.026718
  11 H :    0.038608
  12 H :    0.048973
  13 H :    0.039889
  14 H :    0.028169
  15 N :    0.272044
  16 O :    0.188728
  17 O :   -0.105901
Sum of atomic charges:    1.0000000

--------------------------------
MULLIKEN REDUCED ORBITAL CHARGES
--------------------------------
  0 C s       :     3.124472  s :     3.124472
      pz      :     1.025027  p :     2.870900
      px      :     0.882351
      py      :     0.963522
      dz2     :     0.011162  d :     0.044175
      dxz     :     0.008815
      dyz     :     0.011629
      dx2y2   :     0.006544
      dxy     :     0.006025
  1 C s       :     3.210618  s :     3.210618
      pz      :     0.927683  p :     2.722257
      px      :     0.919255
      py      :     0.875320
      dz2     :     0.009741  d :     0.033260
      dxz     :     0.007026
      dyz     :     0.009170
      dx2y2   :     0.003155
      dxy     :     0.004167
  2 C s       :     3.175777  s :     3.175777
      pz      :     0.914881  p :     2.743489
      px      :     0.910948
      py      :     0.917660
      dz2     :     0.008683  d :     0.034194
      dxz     :     0.006586
      dyz     :     0.009680
      dx2y2   :     0.004265
      dxy     :     0.004981
  3 C s       :     3.194148  s :     3.194148
      pz      :     0.905846  p :     2.702718
      px      :     0.876481
      py      :     0.920390
      dz2     :     0.008741  d :     0.034731
      dxz     :     0.005213
      dyz     :     0.009282
      dx2y2   :     0.005956
      dxy     :     0.005539
  4 C s       :     3.171546  s :     3.171546
      pz      :     0.945722  p :     2.751533
      px      :     0.918131
      py      :     0.887680
      dz2     :     0.010059  d :     0.034166
      dxz     :     0.007147
      dyz     :     0.009315
      dx2y2   :     0.003340
      dxy     :     0.004305
  5 C s       :     3.218570  s :     3.218570
      pz      :     0.882838  p :     2.711844
      px      :     0.912132
      py      :     0.916874
      dz2     :     0.008607  d :     0.033208
      dxz     :     0.006509
      dyz     :     0.009341
      dx2y2   :     0.003935
      dxy     :     0.004815
  6 C s       :     2.962690  s :     2.962690
      pz      :     0.934080  p :     2.947455
      px      :     1.014736
      py      :     0.998640
      dz2     :     0.006686  d :     0.026659
      dxz     :     0.004687
      dyz     :     0.005956
      dx2y2   :     0.004904
      dxy     :     0.004427
  7 H s       :     0.901346  s :     0.901346
      pz      :     0.006002  p :     0.024131
      px      :     0.013169
      py      :     0.004959
  8 H s       :     0.891960  s :     0.891960
      pz      :     0.008431  p :     0.024467
      px      :     0.007917
      py      :     0.008119
  9 H s       :     0.923687  s :     0.923687
      pz      :     0.003835  p :     0.023229
      px      :     0.006400
      py      :     0.012994
 10 H s       :     0.950301  s :     0.950301
      pz      :     0.003453  p :     0.022981
      px      :     0.006985
      py      :     0.012543
 11 H s       :     0.938425  s :     0.938425
      pz      :     0.010525  p :     0.022967
      px      :     0.006550
      py      :     0.005892
 12 H s       :     0.928300  s :     0.928300
      pz      :     0.013947  p :     0.022727
      px      :     0.003501
      py      :     0.005279
 13 H s       :     0.937114  s :     0.937114
      pz      :     0.003500  p :     0.022997
      px      :     0.006942
      py      :     0.012554
 14 H s       :     0.948867  s :     0.948867
      pz      :     0.010335  p :     0.022963
      px      :     0.006638
      py      :     0.005991
 15 N s       :     3.879785  s :     3.879785
      pz      :     1.085022  p :     2.792701
      px      :     0.752941
      py      :     0.954738
      dz2     :     0.006369  d :     0.055469
      dxz     :     0.001381
      dyz     :     0.014930
      dx2y2   :     0.015833
      dxy     :     0.016956
 16 O s       :     3.818441  s :     3.818441
      pz      :     1.401044  p :     3.949947
      px      :     1.345270
      py      :     1.203634
      dz2     :     0.007085  d :     0.042883
      dxz     :     0.002541
      dyz     :     0.014405
      dx2y2   :     0.008787
      dxy     :     0.010064
 17 O s       :     3.981654  s :     3.981654
      pz      :     1.008662  p :     4.116695
      px      :     1.871781
      py      :     1.236252
      dz2     :     0.003310  d :     0.007552
      dxz     :     0.000817
      dyz     :     0.002713
      dx2y2   :     0.000468
      dxy     :     0.000243


                     *******************************
                     * LOEWDIN POPULATION ANALYSIS *
                     *******************************

----------------------
LOEWDIN ATOMIC CHARGES
----------------------
   0 C :    0.077340
   1 C :    0.012552
   2 C :    0.020094
   3 C :    0.087553
   4 C :    0.009812
   5 C :    0.026118
   6 C :   -0.030677
   7 H :    0.066337
   8 H :    0.074221
   9 H :    0.047367
  10 H :    0.048529
  11 H :    0.051725
  12 H :    0.052906
  13 H :    0.052238
  14 H :    0.049015
  15 N :    0.205133
  16 O :    0.284417
  17 O :   -0.134678

-------------------------------
LOEWDIN REDUCED ORBITAL CHARGES
-------------------------------
  0 C s       :     2.879293  s :     2.879293
      pz      :     1.056563  p :     2.938278
      px      :     0.884237
      py      :     0.997479
      dz2     :     0.027836  d :     0.105089
      dxz     :     0.019330
      dyz     :     0.028786
      dx2y2   :     0.013902
      dxy     :     0.015235
  1 C s       :     2.868369  s :     2.868369
      pz      :     1.050510  p :     3.031638
      px      :     0.964858
      py      :     1.016269
      dz2     :     0.028092  d :     0.087442
      dxz     :     0.017797
      dyz     :     0.025309
      dx2y2   :     0.006373
      dxy     :     0.009870
  2 C s       :     2.868022  s :     2.868022
      pz      :     1.058479  p :     3.023408
      px      :     0.953043
      py      :     1.011886
      dz2     :     0.024092  d :     0.088476
      dxz     :     0.015605
      dyz     :     0.026253
      dx2y2   :     0.009628
      dxy     :     0.012897
  3 C s       :     2.883003  s :     2.883003
      pz      :     1.049947  p :     2.942765
      px      :     0.896347
      py      :     0.996470
      dz2     :     0.022618  d :     0.086680
      dxz     :     0.012654
      dyz     :     0.024012
      dx2y2   :     0.012891
      dxy     :     0.014506
  4 C s       :     2.865674  s :     2.865674
      pz      :     1.057153  p :     3.035695
      px      :     0.962310
      py      :     1.016232
      dz2     :     0.028333  d :     0.088820
      dxz     :     0.018100
      dyz     :     0.025679
      dx2y2   :     0.006571
      dxy     :     0.010137
  5 C s       :     2.870783  s :     2.870783
      pz      :     1.057684  p :     3.016121
      px      :     0.953496
      py      :     1.004941
      dz2     :     0.023939  d :     0.086978
      dxz     :     0.015555
      dyz     :     0.026027
      dx2y2   :     0.009081
      dxy     :     0.012375
  6 C s       :     2.834161  s :     2.834161
      pz      :     1.007121  p :     3.126590
      px      :     1.061402
      py      :     1.058067
      dz2     :     0.018510  d :     0.069926
      dxz     :     0.012071
      dyz     :     0.015862
      dx2y2   :     0.012410
      dxy     :     0.011073
  7 H s       :     0.868298  s :     0.868298
      pz      :     0.016498  p :     0.065366
      px      :     0.036918
      py      :     0.011950
  8 H s       :     0.860560  s :     0.860560
      pz      :     0.023135  p :     0.065219
      px      :     0.019754
      py      :     0.022329
  9 H s       :     0.887162  s :     0.887162
      pz      :     0.010948  p :     0.065471
      px      :     0.017571
      py      :     0.036952
 10 H s       :     0.883036  s :     0.883036
      pz      :     0.010985  p :     0.068436
      px      :     0.020984
      py      :     0.036467
 11 H s       :     0.880164  s :     0.880164
      pz      :     0.030448  p :     0.068111
      px      :     0.019620
      py      :     0.018044
 12 H s       :     0.878554  s :     0.878554
      pz      :     0.040786  p :     0.068539
      px      :     0.011232
      py      :     0.016521
 13 H s       :     0.879696  s :     0.879696
      pz      :     0.011223  p :     0.068066
      px      :     0.020672
      py      :     0.036171
 14 H s       :     0.882598  s :     0.882598
      pz      :     0.030130  p :     0.068387
      px      :     0.019957
      py      :     0.018301
 15 N s       :     3.613056  s :     3.613056
      pz      :     1.098803  p :     3.076029
      px      :     0.778807
      py      :     1.198418
      dz2     :     0.013877  d :     0.105782
      dxz     :     0.002193
      dyz     :     0.027370
      dx2y2   :     0.036114
      dxy     :     0.026229
 16 O s       :     3.558490  s :     3.558490
      pz      :     1.397976  p :     4.082097
      px      :     1.316420
      py      :     1.367701
      dz2     :     0.011592  d :     0.074996
      dxz     :     0.002961
      dyz     :     0.026616
      dx2y2   :     0.019759
      dxy     :     0.014067
 17 O s       :     3.910979  s :     3.910979
      pz      :     1.091678  p :     4.211552
      px      :     1.874083
      py      :     1.245790
      dz2     :     0.005695  d :     0.012147
      dxz     :     0.001110
      dyz     :     0.004474
      dx2y2   :     0.000542
      dxy     :     0.000326


                      *****************************
                      * MAYER POPULATION ANALYSIS *
                      *****************************

  NA   - Mulliken gross atomic population
  ZA   - Total nuclear charge
  QA   - Mulliken gross atomic charge
  VA   - Mayer's total valence
  BVA  - Mayer's bonded valence
  FA   - Mayer's free valence

  ATOM       NA         ZA         QA         VA         BVA        FA
  0 C      6.0395     6.0000    -0.0395     3.9440     3.9440    -0.0000
  1 C      5.9661     6.0000     0.0339     3.8497     3.8497    -0.0000
  2 C      5.9535     6.0000     0.0465     3.8358     3.8358     0.0000
  3 C      5.9316     6.0000     0.0684     3.8068     3.8068     0.0000
  4 C      5.9572     6.0000     0.0428     3.8409     3.8409     0.0000
  5 C      5.9636     6.0000     0.0364     3.8423     3.8423    -0.0000
  6 C      5.9368     6.0000     0.0632     3.9117     3.9117    -0.0000
  7 H      0.9255     1.0000     0.0745     0.9904     0.9904     0.0000
  8 H      0.9164     1.0000     0.0836     0.9888     0.9888     0.0000
  9 H      0.9469     1.0000     0.0531     0.9973     0.9973     0.0000
 10 H      0.9733     1.0000     0.0267     0.9910     0.9910    -0.0000
 11 H      0.9614     1.0000     0.0386     0.9819     0.9819    -0.0000
 12 H      0.9510     1.0000     0.0490     0.9803     0.9803    -0.0000
 13 H      0.9601     1.0000     0.0399     0.9819     0.9819     0.0000
 14 H      0.9718     1.0000     0.0282     0.9908     0.9908    -0.0000
 15 N      6.7280     7.0000     0.2720     2.7575     2.7575    -0.0000
 16 O      7.8113     8.0000     0.1887     2.6366     2.6366    -0.0000
 17 O      8.1059     8.0000    -0.1059     1.6069     1.6069     0.0000

  Mayer bond orders larger than 0.100000
B(  0-C ,  1-C ) :   1.2608 B(  0-C ,  5-C ) :   1.2191 B(  0-C ,  6-C ) :   1.1030 
B(  0-C , 15-N ) :   0.1058 B(  0-C , 17-O ) :   0.1366 B(  1-C ,  2-C ) :   1.4592 
B(  1-C , 10-H ) :   0.9881 B(  2-C ,  3-C ) :   1.2599 B(  2-C , 11-H ) :   0.9848 
B(  3-C ,  4-C ) :   1.2774 B(  3-C , 12-H ) :   0.9838 B(  3-C , 15-N ) :   0.1138 
B(  3-C , 17-O ) :   0.1468 B(  4-C ,  5-C ) :   1.4687 B(  4-C , 13-H ) :   0.9860 
B(  5-C , 14-H ) :   0.9912 B(  6-C ,  7-H ) :   0.9279 B(  6-C ,  8-H ) :   0.9157 
B(  6-C ,  9-H ) :   0.9580 B( 15-N , 16-O ) :   1.9348 B( 15-N , 17-O ) :   0.4523 
B( 16-O , 17-O ) :   0.6764 

-------
TIMINGS
-------

Total SCF time: 0 days 0 hours 17 min 32 sec 

Total time                  ....    1052.006 sec
Sum of individual times     ....    1037.734 sec  ( 98.6%)

Fock matrix formation       ....    1024.914 sec  ( 97.4%)
  Split-RI-J                ....     135.376 sec  ( 13.2% of F)
  Chain of spheres X        ....     760.660 sec  ( 74.2% of F)
  XC integration            ....     128.501 sec  ( 12.5% of F)
    Basis function eval.    ....      42.728 sec  ( 33.3% of XC)
    Density eval.           ....      33.729 sec  ( 26.2% of XC)
    XC-Functional eval.     ....       8.558 sec  (  6.7% of XC)
    XC-Potential eval.      ....      31.831 sec  ( 24.8% of XC)
Diagonalization             ....       0.286 sec  (  0.0%)
Density matrix formation    ....       0.075 sec  (  0.0%)
Population analysis         ....       0.109 sec  (  0.0%)
Initial guess               ....       1.242 sec  (  0.1%)
Orbital Transformation      ....       0.671 sec  (  0.1%)
Orbital Orthonormalization  ....       0.000 sec  (  0.0%)
DIIS solution               ....       0.639 sec  (  0.1%)
SOSCF solution              ....       0.000 sec  (  0.0%)
Grid generation             ....       9.795 sec  (  0.9%)

Maximum memory used throughout the entire SCF-calculation: 69.7 MB


-------------------------------------------------------------------------------
                          DFT DISPERSION CORRECTION                            
                                                                               
                                 DFTD4 V2.5                                    
[...]
      9       0.007699   0.105053  -0.025338   0.001891  -0.000051  -0.000056
     10      -0.040192  -0.125135   0.075214  -0.004897   0.000122   0.000028
     11      -0.078700   0.075889   0.104989  -0.005939   0.000162  -0.000038
     12       0.046258  -0.046373  -0.014858   0.002328  -0.000186   0.000098
     13      -0.014693   0.104141  -0.082573   0.002633   0.000200  -0.000026
     14       0.143061   0.099013  -0.282754   0.016202  -0.000264   0.000056
     15      -0.046695   0.025625  -0.067318   0.006227   0.000177   0.000458
     16       0.071962  -0.086338   0.193783  -0.014282  -0.000234   0.000260
     17       0.011842  -0.132828   0.259434  -0.014151  -0.000384   0.000314
     18      -0.004024  -0.008536  -0.003446   0.000057  -0.013732  -0.074503
     19       0.037744   0.006707   0.019264  -0.000613  -0.018203  -0.042831
     20       0.057987  -0.013889   0.035479  -0.005313   0.055758  -0.005906
     21       0.014843   0.007958   0.015254  -0.006297  -0.390774   0.782412
     22      -0.164207   0.046159  -0.022006  -0.015752  -0.047571   0.066928
     23       0.056909  -0.058907   0.003109   0.002018  -0.153337   0.351351
     24       0.098550  -0.059506   0.002890   0.014295   0.430980   0.216232
     25      -0.048961   0.028000  -0.012710  -0.000721   0.530871   0.288607
     26       0.050932  -0.033266   0.007376  -0.003795  -0.515684  -0.296066
     27      -0.080674   0.008167  -0.018134  -0.003971   0.127617  -0.099054
     28      -0.002475   0.014437   0.012901  -0.002681  -0.260823   0.157898
     29      -0.143340   0.132138  -0.004617  -0.004023   0.006638   0.002290
     30      -0.084830  -0.121714  -0.148562   0.004538  -0.001629   0.001141
     31      -0.043372   0.071597   0.102989  -0.002409   0.002543  -0.002352
     32      -0.452847  -0.282626  -0.310655   0.012723   0.000878  -0.000521
     33       0.133603  -0.170690  -0.162038   0.005055   0.000632   0.000523
     34      -0.304913   0.268173   0.281710  -0.009320   0.000074   0.000557
     35      -0.303915   0.052865   0.123839  -0.004909   0.001133  -0.000619
     36      -0.023408  -0.394040   0.013260  -0.000460  -0.000301  -0.000430
     37      -0.008866   0.490101   0.037467  -0.002851   0.000605  -0.000426
     38      -0.115516  -0.228532   0.150409  -0.008764   0.001548  -0.000044
     39      -0.106576  -0.129938   0.145366  -0.004687  -0.000486   0.000261
     40      -0.011624   0.129761  -0.107684   0.003270   0.001161  -0.000545
     41      -0.456948  -0.160491   0.282665  -0.009423   0.000770  -0.000274
     42       0.116155  -0.150530   0.185282  -0.006458   0.001385  -0.002837
     43      -0.276099   0.276044  -0.322962   0.011875  -0.001251   0.000547
     44      -0.291149   0.149565  -0.149097   0.008136   0.003844  -0.003286
     45       0.000175   0.000026   0.005225   0.254253  -0.000175   0.000014
     46      -0.000708  -0.000096  -0.014136  -0.515862   0.000191  -0.000014
     47       0.000227   0.000037   0.008983   0.491625  -0.000391   0.000030
     48      -0.000170  -0.000024  -0.004403  -0.195556   0.000118  -0.000009
     49       0.000884   0.000117   0.015734   0.506809  -0.000101   0.000007
     50      -0.000158  -0.000028  -0.006363  -0.343276   0.000271  -0.000021
     51       0.000018   0.000001  -0.000169  -0.027046   0.000036  -0.000003
     52      -0.000265  -0.000033  -0.003357  -0.055175  -0.000066   0.000005
     53      -0.000040  -0.000008  -0.001484  -0.087162   0.000073  -0.000006
                 48         49         50         51         52         53    
      0      -0.000160  -0.000885  -0.001390   0.000268  -0.001162   0.000064
      1      -0.000246   0.001640   0.001536   0.000227   0.001363   0.000406
      2      -0.001618   0.000834  -0.001284   0.001583  -0.000876   0.001279
      3       0.001315  -0.007345   0.030928  -0.027455   0.016168  -0.012706
      4      -0.002522   0.011119  -0.047927   0.042930  -0.026325   0.020782
      5      -0.000591   0.001074  -0.007435   0.007651  -0.007325   0.006030
      6      -0.000114   0.008547  -0.020922   0.000918   0.025217  -0.025158
      7       0.000160  -0.007201   0.018454  -0.002574  -0.020837   0.021863
      8      -0.000022   0.014276  -0.032696  -0.003369   0.043249  -0.040227
      9      -0.000091   0.001689  -0.001061  -0.003537  -0.002371   0.002491
     10       0.000141  -0.011931   0.012170   0.025589   0.001306  -0.019261
     11       0.000015  -0.025772   0.028902   0.055555  -0.005836  -0.042525
     12       0.000041  -0.020010  -0.000985   0.010626   0.031467   0.026874
     13      -0.000043   0.030535   0.000600  -0.017916  -0.049576  -0.041600
     14       0.000134   0.003792  -0.002271  -0.006660  -0.010235  -0.006726
     15       0.000472   0.033382   0.017065   0.013512   0.010093   0.008033
     16      -0.000236  -0.028976  -0.014410  -0.011293  -0.007353  -0.005907
     17       0.000181   0.052950   0.028151   0.022621   0.019805   0.015629
     18      -0.050205   0.000238   0.001251  -0.000545   0.000520  -0.000237
     19       0.075589   0.000112  -0.001906   0.001138  -0.000761   0.000487
     20      -0.015249   0.000228   0.000360   0.000001   0.000150  -0.000176
     21       0.257103  -0.003853  -0.006146   0.000513  -0.002289   0.001190
     22       0.034500  -0.001315  -0.000809  -0.000749  -0.000278  -0.000328
     23       0.108779  -0.002718  -0.002682  -0.000828  -0.000887  -0.000033
     24      -0.092557   0.001003   0.002406  -0.000237   0.000880  -0.000759
     25      -0.089845   0.000058   0.002060  -0.000933   0.000667  -0.001330
     26       0.094271  -0.001271  -0.002285  -0.000419  -0.000645   0.000640
     27       0.431695   0.001069  -0.010809   0.006777  -0.003971   0.002671
     28      -0.836383  -0.002824   0.021132  -0.013903   0.007696  -0.005566
     29      -0.001140  -0.001438   0.000829  -0.001780   0.000199  -0.000890
     30      -0.015313   0.081514  -0.353190   0.310548  -0.183600   0.140968
     31       0.025266  -0.127185   0.551533  -0.485293   0.287666  -0.221047
     32       0.006548  -0.021682   0.095593  -0.084963   0.052290  -0.040570
     33       0.001923  -0.102174   0.242536   0.003030  -0.289278   0.274312
     34      -0.001424   0.088042  -0.209692  -0.000966   0.249117  -0.237234
     35       0.002987  -0.165486   0.390606   0.009565  -0.468987   0.441892
     36       0.000232  -0.017691   0.018441   0.037372   0.000038  -0.026942
     37      -0.000974   0.136244  -0.148219  -0.288725   0.017801   0.209507
     38      -0.001846   0.300534  -0.330093  -0.637144   0.048540   0.463049
     39       0.000355   0.234265   0.006904  -0.130946  -0.355177  -0.292385
     40      -0.000821  -0.364407  -0.009982   0.205144   0.553461   0.454915
     41      -0.000095  -0.063414   0.000344   0.039591   0.099205   0.079702
     42      -0.002634  -0.380208  -0.196684  -0.153022  -0.119047  -0.091441
     43       0.001717   0.327416   0.169111   0.131428   0.101460   0.077888
     44      -0.005146  -0.609114  -0.315892  -0.246079  -0.193616  -0.148805
     45       0.000067   0.000014  -0.000002   0.000026  -0.000002   0.000031
     46      -0.000070  -0.000014   0.000003  -0.000027   0.000002  -0.000032
     47       0.000150   0.000031  -0.000005   0.000059  -0.000004   0.000071
     48      -0.000044  -0.000009   0.000001  -0.000017   0.000001  -0.000021
     49       0.000035   0.000007  -0.000001   0.000013  -0.000001   0.000015
     50      -0.000104  -0.000021   0.000003  -0.000041   0.000003  -0.000049
     51      -0.000014  -0.000003   0.000001  -0.000006   0.000000  -0.000007
     52       0.000027   0.000006  -0.000001   0.000011  -0.000001   0.000013
     53      -0.000028  -0.000006   0.000001  -0.000011   0.000001  -0.000014


-----------
IR SPECTRUM
-----------

 Mode   freq       eps      Int      T**2         TX        TY        TZ
       cm**-1   L/(mol*cm) km/mol    a.u.
----------------------------------------------------------------------------
  9:      2.71   0.000000    0.00  0.000000  ( 0.000000  0.000000  0.000000)
 10:      4.67   0.000000    0.00  0.000000  ( 0.000000  0.000000  0.000000)
 11:     12.23   0.000876    4.43  0.022357  ( 0.117655  0.064281 -0.066199)
 12:     19.10   0.000488    2.47  0.007972  (-0.087564 -0.017225  0.002807)
 13:    180.22   0.000253    1.28  0.000437  (-0.015452 -0.013318  0.004599)
 14:    315.02   0.040795  206.16  0.040413  ( 0.047247  0.017423  0.194620)
 15:    348.09   0.001616    8.17  0.001449  (-0.009855  0.003557 -0.036597)
 16:    380.00   0.000002    0.01  0.000002  ( 0.000980 -0.000901 -0.000029)
 17:    400.78   0.524041  2648.29  0.408037  ( 0.104086  0.069178  0.626433)
 18:    440.05   0.000274    1.38  0.000194  (-0.010554 -0.007388  0.005320)
 19:    519.62   0.012123   61.27  0.007281  (-0.012559 -0.008662 -0.083952)
 20:    547.30   0.001923    9.72  0.001097  (-0.011299  0.006278 -0.030491)
 21:    627.67   0.004685   23.68  0.002329  (-0.036965 -0.024513  0.019026)
 22:    753.29   0.006730   34.01  0.002788  (-0.043013 -0.030569  0.001818)
 23:    792.59   0.018519   93.59  0.007292  ( 0.018645  0.010421  0.082676)
 24:    823.75   0.000070    0.35  0.000026  ( 0.004204  0.002269  0.001889)
 25:    935.76   0.003873   19.57  0.001292  ( 0.000371  0.002033  0.035881)
 26:    974.38   0.052844  267.05  0.016924  ( 0.020018  0.012846  0.127900)
 27:   1004.57   0.027487  138.91  0.008538  (-0.010277 -0.003518 -0.091763)
 28:   1010.58   0.002890   14.61  0.000892  ( 0.020544  0.009290 -0.019598)
 29:   1018.01   0.000255    1.29  0.000078  (-0.005763 -0.002715  0.006142)
 30:   1020.58   0.007702   38.92  0.002355  (-0.009181  0.000763 -0.047645)
 31:   1036.45   0.000079    0.40  0.000024  ( 0.000893  0.001112  0.004673)
 32:   1096.70   0.003786   19.13  0.001077  ( 0.017610 -0.018449  0.020660)
 33:   1154.83   0.007088   35.82  0.001915  ( 0.006038  0.005849  0.042950)
 34:   1197.16   0.089522  452.41  0.023336  (-0.024049 -0.015423 -0.150065)
 35:   1253.58   0.083017  419.53  0.020666  (-0.019993 -0.017071 -0.141333)
 36:   1302.01   0.031608  159.73  0.007576  ( 0.012010  0.010739  0.085535)
 37:   1352.83   0.060534  305.91  0.013964  (-0.013877 -0.008238 -0.117060)
 38:   1387.44   0.000775    3.92  0.000174  (-0.011991  0.005458 -0.000922)
 39:   1413.12   0.002027   10.24  0.000448  ( 0.015412  0.009916 -0.010572)
 40:   1415.04   0.003906   19.74  0.000861  ( 0.020828 -0.013878  0.015333)
 41:   1452.88   0.029462  148.89  0.006328  (-0.012245  0.003103 -0.078540)
 42:   1489.52   0.053635  271.05  0.011237  (-0.005451 -0.029519 -0.101665)
 43:   1518.85   0.003936   19.89  0.000809  (-0.016137  0.018602 -0.014220)
 44:   1671.55   0.539652  2727.18  0.100749  (-0.050629 -0.032662 -0.311638)
 45:   1872.57   0.776447  3923.84  0.129394  (-0.063542 -0.058633 -0.349169)
 46:   2990.62   0.107539  543.46  0.011221  (-0.011688 -0.014029 -0.104345)
 47:   3052.68   0.000674    3.41  0.000069  ( 0.004284  0.002260  0.006744)
 48:   3151.62   0.021229  107.28  0.002102  ( 0.003684  0.010262  0.044533)
 49:   3193.84   0.000865    4.37  0.000085  ( 0.000944  0.001653  0.008995)
 50:   3197.77   0.000069    0.35  0.000007  (-0.000298 -0.000410 -0.002550)
 51:   3203.60   0.002429   12.27  0.000237  ( 0.002299  0.001785  0.015103)
 52:   3212.53   0.000102    0.51  0.000010  (-0.001668  0.001846 -0.001919)
 53:   3217.44   0.003175   16.04  0.000308  ( 0.002765  0.001843  0.017230)

* The epsilon (eps) is given for a Dirac delta lineshape.
** The dipole moment derivative (T) already includes vibrational overlap.

The first frequency considered to be a vibration is 9
The total number of vibrations considered is 45


--------------------------
THERMOCHEMISTRY AT 298.15K
--------------------------

Temperature         ... 298.15 K
Pressure            ... 1.00 atm
Total Mass          ... 138.15 AMU

Throughout the following assumptions are being made:
  (1) The electronic state is orbitally nondegenerate
  (2) There are no thermally accessible electronically excited states
  (3) Hindered rotations indicated by low frequency modes are not
      treated as such but are treated as vibrations and this may
      cause some error
  (4) All equations used are the standard statistical mechanics
      equations for an ideal gas
  (5) All vibrations are strictly harmonic

freq.       2.71  E(vib)   ...       0.59 
freq.       4.67  E(vib)   ...       0.59 
freq.      12.23  E(vib)   ...       0.58 
freq.      19.10  E(vib)   ...       0.57 
freq.     180.22  E(vib)   ...       0.37 
freq.     315.02  E(vib)   ...       0.25 
freq.     348.09  E(vib)   ...       0.23 
freq.     380.00  E(vib)   ...       0.21 
freq.     400.78  E(vib)   ...       0.19 
freq.     440.05  E(vib)   ...       0.17 
freq.     519.62  E(vib)   ...       0.13 
freq.     547.30  E(vib)   ...       0.12 
freq.     627.67  E(vib)   ...       0.09 
freq.     753.29  E(vib)   ...       0.06 
freq.     792.59  E(vib)   ...       0.05 
freq.     823.75  E(vib)   ...       0.05 
freq.     935.76  E(vib)   ...       0.03 
freq.     974.38  E(vib)   ...       0.03 
freq.    1004.57  E(vib)   ...       0.02 
freq.    1010.58  E(vib)   ...       0.02 
freq.    1018.01  E(vib)   ...       0.02 
freq.    1020.58  E(vib)   ...       0.02 
freq.    1036.45  E(vib)   ...       0.02 
freq.    1096.70  E(vib)   ...       0.02 
freq.    1154.83  E(vib)   ...       0.01 
freq.    1197.16  E(vib)   ...       0.01 
freq.    1253.58  E(vib)   ...       0.01 
freq.    1302.01  E(vib)   ...       0.01 
freq.    1352.83  E(vib)   ...       0.01 
freq.    1387.44  E(vib)   ...       0.00 
freq.    1413.12  E(vib)   ...       0.00 
freq.    1415.04  E(vib)   ...       0.00 
freq.    1452.88  E(vib)   ...       0.00 
freq.    1489.52  E(vib)   ...       0.00 
freq.    1518.85  E(vib)   ...       0.00 
freq.    1671.55  E(vib)   ...       0.00 
freq.    1872.57  E(vib)   ...       0.00 
freq.    2990.62  E(vib)   ...       0.00 
freq.    3052.68  E(vib)   ...       0.00 
freq.    3151.62  E(vib)   ...       0.00 
freq.    3193.84  E(vib)   ...       0.00 
freq.    3197.77  E(vib)   ...       0.00 
freq.    3203.60  E(vib)   ...       0.00 
freq.    3212.53  E(vib)   ...       0.00 
freq.    3217.44  E(vib)   ...       0.00 

------------
INNER ENERGY
------------

The inner energy is: U= E(el) + E(ZPE) + E(vib) + E(rot) + E(trans)
    E(el)   - is the total energy from the electronic structure calculation
              = E(kin-el) + E(nuc-el) + E(el-el) + E(nuc-nuc)
    E(ZPE)  - the the zero temperature vibrational energy from the frequency calculation
    E(vib)  - the the finite temperature correction to E(ZPE) due to population
              of excited vibrational states
    E(rot)  - is the rotational thermal energy
    E(trans)- is the translational thermal energy

Summary of contributions to the inner energy U:
Electronic energy                ...   -475.54852078 Eh
Zero point energy                ...      0.13205531 Eh      82.87 kcal/mol
Thermal vibrational correction   ...      0.00714646 Eh       4.48 kcal/mol
Thermal rotational correction    ...      0.00141627 Eh       0.89 kcal/mol
Thermal translational correction ...      0.00141627 Eh       0.89 kcal/mol
-----------------------------------------------------------------------
Total thermal energy                   -475.40648647 Eh


Summary of corrections to the electronic energy:
(perhaps to be used in another calculation)
Total thermal correction                  0.00997900 Eh       6.26 kcal/mol
Non-thermal (ZPE) correction              0.13205531 Eh      82.87 kcal/mol
-----------------------------------------------------------------------
Total correction                          0.14203431 Eh      89.13 kcal/mol


--------
ENTHALPY
--------

The enthalpy is H = U + kB*T
                kB is Boltzmann's constant
Total free energy                 ...   -475.40648647 Eh 
Thermal Enthalpy correction       ...      0.00094421 Eh       0.59 kcal/mol
-----------------------------------------------------------------------
Total Enthalpy                    ...   -475.40554226 Eh


Note: Only C1 symmetry has been detected, increase convergence thresholds 
      if your molecule has a higher symmetry. Symmetry factor of 1.0 is   
      used for the rotational entropy correction. 
 

Note: Rotational entropy computed according to Herzberg 
Infrared and Raman Spectra, Chapter V,1, Van Nostrand Reinhold, 1945 
Point Group:  C1, Symmetry Number:   1  
Rotational constants in cm-1:     0.143382     0.001378     0.001365 

Vibrational entropy computed according to the QRRHO of S. Grimme
Chem.Eur.J. 2012 18 9955


-------
ENTROPY
-------

The entropy contributions are T*S = T*(S(el)+S(vib)+S(rot)+S(trans))
     S(el)   - electronic entropy
     S(vib)  - vibrational entropy
     S(rot)  - rotational entropy
     S(trans)- translational entropy
The entropies will be listed as multiplied by the temperature to get
units of energy

Electronic entropy                ...      0.00000000 Eh      0.00 kcal/mol
Vibrational entropy               ...      0.01552430 Eh      9.74 kcal/mol
Rotational entropy                ...      0.01665160 Eh     10.45 kcal/mol
Translational entropy             ...      0.01932890 Eh     12.13 kcal/mol
-----------------------------------------------------------------------
Final entropy term                ...      0.05150479 Eh     32.32 kcal/mol

In case the symmetry of your molecule has not been determined correctly
or in case you have a reason to use a different symmetry number we print 
out the resulting rotational entropy values for sn=1,12 :
 --------------------------------------------------------
|  sn= 1 | S(rot)=       0.01665160 Eh     10.45 kcal/mol|
|  sn= 2 | S(rot)=       0.01599714 Eh     10.04 kcal/mol|
|  sn= 3 | S(rot)=       0.01561431 Eh      9.80 kcal/mol|
|  sn= 4 | S(rot)=       0.01534269 Eh      9.63 kcal/mol|
|  sn= 5 | S(rot)=       0.01513200 Eh      9.50 kcal/mol|
|  sn= 6 | S(rot)=       0.01495985 Eh      9.39 kcal/mol|
|  sn= 7 | S(rot)=       0.01481431 Eh      9.30 kcal/mol|
|  sn= 8 | S(rot)=       0.01468823 Eh      9.22 kcal/mol|
|  sn= 9 | S(rot)=       0.01457702 Eh      9.15 kcal/mol|
|  sn=10 | S(rot)=       0.01447754 Eh      9.08 kcal/mol|
|  sn=11 | S(rot)=       0.01438755 Eh      9.03 kcal/mol|
|  sn=12 | S(rot)=       0.01430540 Eh      8.98 kcal/mol|
 --------------------------------------------------------


-------------------
GIBBS FREE ENERGY
-------------------

The Gibbs free energy is G = H - T*S

Total enthalpy                    ...   -475.40554226 Eh 
Total entropy correction          ...     -0.05150479 Eh    -32.32 kcal/mol
-----------------------------------------------------------------------
Final Gibbs free energy         ...   -475.45704705 Eh

For completeness - the Gibbs free energy minus the electronic energy
G-E(el)                           ...      0.09147373 Eh     57.40 kcal/mol


Timings for individual modules:

Sum of individual times         ...   183477.898 sec (=3057.965 min)
GTO integral calculation        ...       84.191 sec (=   1.403 min)   0.0 %
SCF iterations                  ...   169661.887 sec (=2827.698 min)  92.5 %
SCF Gradient evaluation         ...    12885.705 sec (= 214.762 min)   7.0 %
Geometry relaxation             ...       35.898 sec (=   0.598 min)   0.0 %
Analytical frequency calculation...      810.217 sec (=  13.504 min)   0.4 %
                             ****ORCA TERMINATED NORMALLY****
TOTAL RUN TIME: 2 days 2 hours 59 minutes 32 seconds 809 msec
