
                                 *****************
                                 * O   R   C   A *
                                 *****************

                                            #,                                       
                                            ###                                      
                                            ####                                     
                                            #####                                    
                                            ######                                   
                                           ########,                                 
                                     ,,################,,,,,                         
                               ,,#################################,,                 
                          ,,##########################################,,             
                       ,#########################################, ''#####,          
                    ,#############################################,,   '####,        
                  ,##################################################,,,,####,       
                ,###########''''           ''''###############################       
              ,#####''   ,,,,##########,,,,          '''####'''          '####       
            ,##' ,,,,###########################,,,                        '##       
           ' ,,###''''                  '''############,,,                           
         ,,##''                                '''############,,,,        ,,,,,,###''
      ,#''                                            '''#######################'''  
     '                                                          ''''####''''         
             ,#######,   #######,   ,#######,      ##                                
            ,#'     '#,  ##    ##  ,#'     '#,    #''#        ######   ,####,        
            ##       ##  ##   ,#'  ##            #'  '#       #        #'  '#        
            ##       ##  #######   ##           ,######,      #####,   #    #        
            '#,     ,#'  ##    ##  '#,     ,#' ,#      #,         ##   #,  ,#        
             '#######'   ##     ##  '#######'  #'      '#     #####' # '####'        



                  #######################################################
                  #                        -***-                        #
                  #          Department of theory and spectroscopy      #
                  #    Directorship and core code : Frank Neese         #
                  #        Max Planck Institute fuer Kohlenforschung    #
                  #                Kaiser Wilhelm Platz 1               #
                  #                 D-45470 Muelheim/Ruhr               #
                  #                      Germany                        #
                  #                                                     #
                  #                  All rights reserved                #
                  #                        -***-                        #
                  #######################################################



                         Program Version 5.0.4 -  RELEASE  -

 With contributions from (in alphabetic order):
   Daniel Aravena         : Magnetic Suceptibility
   Michael Atanasov       : Ab Initio Ligand Field Theory (pilot matlab implementation)
   Alexander A. Auer      : GIAO ZORA, VPT2 properties, NMR spectrum
   Ute Becker             : Parallelization
   Giovanni Bistoni       : ED, misc. LED, open-shell LED, HFLD
   Martin Brehm           : Molecular dynamics
   Dmytro Bykov           : SCF Hessian
   Vijay G. Chilkuri      : MRCI spin determinant printing, contributions to CSF-ICE
   Dipayan Datta          : RHF DLPNO-CCSD density
   Achintya Kumar Dutta   : EOM-CC, STEOM-CC
   Dmitry Ganyushin       : Spin-Orbit,Spin-Spin,Magnetic field MRCI
   Miquel Garcia          : C-PCM and meta-GGA Hessian, CC/C-PCM, Gaussian charge scheme
   Yang Guo               : DLPNO-NEVPT2, F12-NEVPT2, CIM, IAO-localization
   Andreas Hansen         : Spin unrestricted coupled pair/coupled cluster methods
   Benjamin Helmich-Paris : MC-RPA, TRAH-SCF, COSX integrals
   Lee Huntington         : MR-EOM, pCC
   Robert Izsak           : Overlap fitted RIJCOSX, COSX-SCS-MP3, EOM
   Marcus Kettner         : VPT2
   Christian Kollmar      : KDIIS, OOCD, Brueckner-CCSD(T), CCSD density, CASPT2, CASPT2-K
   Simone Kossmann        : Meta GGA functionals, TD-DFT gradient, OOMP2, MP2 Hessian
   Martin Krupicka        : Initial AUTO-CI
   Lucas Lang             : DCDCAS
   Marvin Lechner         : AUTO-CI (C++ implementation), FIC-MRCC
   Dagmar Lenk            : GEPOL surface, SMD
   Dimitrios Liakos       : Extrapolation schemes; Compound Job, initial MDCI parallelization
   Dimitrios Manganas     : Further ROCIS development; embedding schemes
   Dimitrios Pantazis     : SARC Basis sets
   Anastasios Papadopoulos: AUTO-CI, single reference methods and gradients
   Taras Petrenko         : DFT Hessian,TD-DFT gradient, ASA, ECA, R-Raman, ABS, FL, XAS/XES, NRVS
   Peter Pinski           : DLPNO-MP2, DLPNO-MP2 Gradient
   Christoph Reimann      : Effective Core Potentials
   Marius Retegan         : Local ZFS, SOC
   Christoph Riplinger    : Optimizer, TS searches, QM/MM, DLPNO-CCSD(T), (RO)-DLPNO pert. Triples
   Tobias Risthaus        : Range-separated hybrids, TD-DFT gradient, RPA, STAB
   Michael Roemelt        : Original ROCIS implementation
   Masaaki Saitow         : Open-shell DLPNO-CCSD energy and density
   Barbara Sandhoefer     : DKH picture change effects
   Avijit Sen             : IP-ROCIS
   Kantharuban Sivalingam : CASSCF convergence, NEVPT2, FIC-MRCI
   Bernardo de Souza      : ESD, SOC TD-DFT
   Georgi Stoychev        : AutoAux, RI-MP2 NMR, DLPNO-MP2 response
   Willem Van den Heuvel  : Paramagnetic NMR
   Boris Wezisla          : Elementary symmetry handling
   Frank Wennmohs         : Technical directorship


 We gratefully acknowledge several colleagues who have allowed us to
 interface, adapt or use parts of their codes:
   Stefan Grimme, W. Hujo, H. Kruse, P. Pracht,  : VdW corrections, initial TS optimization,
                  C. Bannwarth, S. Ehlert          DFT functionals, gCP, sTDA/sTD-DF
   Ed Valeev, F. Pavosevic, A. Kumar             : LibInt (2-el integral package), F12 methods
   Garnet Chan, S. Sharma, J. Yang, R. Olivares  : DMRG
   Ulf Ekstrom                                   : XCFun DFT Library
   Mihaly Kallay                                 : mrcc  (arbitrary order and MRCC methods)
   Jiri Pittner, Ondrej Demel                    : Mk-CCSD
   Frank Weinhold                                : gennbo (NPA and NBO analysis)
   Christopher J. Cramer and Donald G. Truhlar   : smd solvation model
   Lars Goerigk                                  : TD-DFT with DH, B97 family of functionals
   V. Asgeirsson, H. Jonsson                     : NEB implementation
   FAccTs GmbH                                   : IRC, NEB, NEB-TS, DLPNO-Multilevel, CI-OPT
                                                   MM, QMMM, 2- and 3-layer-ONIOM, Crystal-QMMM,
                                                   LR-CPCM, SF, NACMEs, symmetry and pop. for TD-DFT,
                                                   nearIR, NL-DFT gradient (VV10), updates on ESD,
                                                   ML-optimized integration grids
   S Lehtola, MJT Oliveira, MAL Marques          : LibXC Library
   Liviu Ungur et al                             : ANISO software


 Your calculation uses the libint2 library for the computation of 2-el integrals
 For citations please refer to: http://libint.valeyev.net

 Your ORCA version has been built with support for libXC version: 5.1.0
 For citations please refer to: https://tddft.org/programs/libxc/

 This ORCA versions uses:
   CBLAS   interface :  Fast vector & matrix operations
   LAPACKE interface :  Fast linear algebra routines
   Shared memory     :  Shared parallel matrices


================================================================================

----- Orbital basis set information -----
Your calculation utilizes the basis: def2-QZVPP
   F. Weigend and R. Ahlrichs, Phys. Chem. Chem. Phys. 7, 3297 (2005).

----- AuxJ basis set information -----
Your calculation utilizes the auxiliary basis: def2/J
   F. Weigend, Phys. Chem. Chem. Phys. 8, 1057 (2006).

================================================================================
                                        WARNINGS
                       Please study these warnings very carefully!
================================================================================


INFO   : the flag for use of the SHARK integral package has been found!

================================================================================
                                       INPUT FILE
================================================================================
NAME = neutral.inp
|  1> !B3LYP DEF2-QZVPP
|  2> 
|  3> %scf
|  4> convergence tight
|  5> end
|  6> 
|  7> * xyz 0 1
|  8>   C   -6.35529566713189      0.98183690763207     -0.00001504036478
|  9>   C   -7.70369862552641      0.57957456761231     -0.00000173744009
| 10>   C   -8.02102163499719     -0.77812943500883      0.00001944975110
| 11>   C   -7.00414212151022     -1.73832946214561      0.00002743447097
| 12>   C   -5.66330053841805     -1.34054476427431      0.00001396353728
| 13>   C   -5.33361031358612      0.01419348174697     -0.00000730718435
| 14>   C   -6.02185993035994      2.37866436898736     -0.00003589559077
| 15>   H   -8.49093284139212      1.33596053577513     -0.00000808213751
| 16>   H   -9.06839558616840     -1.08907636566259      0.00002985217797
| 17>   H   -7.25784524787421     -2.80130133697912      0.00004422468217
| 18>   H   -4.86880131166015     -2.09058333047744      0.00002017846662
| 19>   H   -4.28975746602226      0.33378924079070     -0.00001788378122
| 20>   N   -5.75052871535300      3.50757559200336     -0.00004915658739
| 21> **                         ****END OF INPUT****
================================================================================

                       ****************************
                       * Single Point Calculation *
                       ****************************

---------------------------------
CARTESIAN COORDINATES (ANGSTROEM)
---------------------------------
  C     -6.355296    0.981837   -0.000015
  C     -7.703699    0.579575   -0.000002
  C     -8.021022   -0.778129    0.000019
  C     -7.004142   -1.738329    0.000027
  C     -5.663301   -1.340545    0.000014
  C     -5.333610    0.014193   -0.000007
  C     -6.021860    2.378664   -0.000036
  H     -8.490933    1.335961   -0.000008
  H     -9.068396   -1.089076    0.000030
  H     -7.257845   -2.801301    0.000044
  H     -4.868801   -2.090583    0.000020
  H     -4.289757    0.333789   -0.000018
  N     -5.750529    3.507576   -0.000049

----------------------------
CARTESIAN COORDINATES (A.U.)
----------------------------
  NO LB      ZA    FRAG     MASS         X           Y           Z
   0 C     6.0000    0    12.011  -12.009768    1.855403   -0.000028
   1 C     6.0000    0    12.011  -14.557881    1.095237   -0.000003
   2 C     6.0000    0    12.011  -15.157534   -1.470452    0.000037
   3 C     6.0000    0    12.011  -13.235910   -3.284967    0.000052
   4 C     6.0000    0    12.011  -10.702087   -2.533262    0.000026
   5 C     6.0000    0    12.011  -10.079063    0.026822   -0.000014
   6 C     6.0000    0    12.011  -11.379666    4.495024   -0.000068
   7 H     1.0000    0     1.008  -16.045538    2.524600   -0.000015
   8 H     1.0000    0     1.008  -17.136784   -2.058056    0.000056
   9 H     1.0000    0     1.008  -13.715340   -5.293692    0.000084
  10 H     1.0000    0     1.008   -9.200701   -3.950630    0.000038
  11 H     1.0000    0     1.008   -8.106467    0.630770   -0.000034
  12 N     7.0000    0    14.007  -10.866924    6.628357   -0.000093

--------------------------------
INTERNAL COORDINATES (ANGSTROEM)
--------------------------------
 C      0   0   0     0.000000000000     0.00000000     0.00000000
 C      1   0   0     1.407126692442     0.00000000     0.00000000
 C      2   1   0     1.394293387893   119.76620668     0.00000000
 C      3   2   1     1.398580722421   120.20282967     0.00000000
 C      4   3   2     1.398602451375   120.11818815     0.00000000
 C      5   4   3     1.394278078446   120.20160187     0.00000000
 C      1   2   3     1.436073239006   120.03694851   180.00004523
 H      2   1   3     1.091722237340   119.53370807   179.99999648
 H      3   2   1     1.092556720442   119.69027761   179.99999447
 H      4   3   2     1.092828661454   119.93403434   179.99998947
 H      5   4   3     1.092605542796   120.12491198   180.00000148
 H      6   5   4     1.091682287425   120.70065099   179.99999658
 N      7   1   2     1.161060367881   179.91122133   179.88519101

---------------------------
INTERNAL COORDINATES (A.U.)
---------------------------
 C      0   0   0     0.000000000000     0.00000000     0.00000000
 C      1   0   0     2.659084084445     0.00000000     0.00000000
 C      2   1   0     2.634832653455   119.76620668     0.00000000
 C      3   2   1     2.642934541557   120.20282967     0.00000000
 C      4   3   2     2.642975603329   120.11818815     0.00000000
 C      5   4   3     2.634803722793   120.20160187     0.00000000
 C      1   2   3     2.713785129974   120.03694851   180.00004523
 H      2   1   3     2.063056042885   119.53370807   179.99999648
 H      3   2   1     2.064632987411   119.69027761   179.99999447
 H      4   3   2     2.065146881448   119.93403434   179.99998947
 H      5   4   3     2.064725248290   120.12491198   180.00000148
 H      6   5   4     2.062980548486   120.70065099   179.99999658
 N      7   1   2     2.194086120245   179.91122133   179.88519101

---------------------
BASIS SET INFORMATION
---------------------
There are 3 groups of distinct atoms

 Group   1 Type C   : 15s8p3d2f1g contracted to 7s4p3d2f1g pattern {8211111/5111/111/11/1}
 Group   2 Type H   : 7s3p2d1f contracted to 4s3p2d1f pattern {4111/111/11/1}
 Group   3 Type N   : 15s8p3d2f1g contracted to 7s4p3d2f1g pattern {8211111/5111/111/11/1}

Atom   0C    basis set group =>   1
Atom   1C    basis set group =>   1
Atom   2C    basis set group =>   1
Atom   3C    basis set group =>   1
Atom   4C    basis set group =>   1
Atom   5C    basis set group =>   1
Atom   6C    basis set group =>   1
Atom   7H    basis set group =>   2
Atom   8H    basis set group =>   2
Atom   9H    basis set group =>   2
Atom  10H    basis set group =>   2
Atom  11H    basis set group =>   2
Atom  12N    basis set group =>   3
---------------------------------
AUXILIARY/J BASIS SET INFORMATION
---------------------------------
There are 3 groups of distinct atoms

 Group   1 Type C   : 12s5p4d2f1g contracted to 6s4p3d1f1g pattern {711111/2111/211/2/1}
 Group   2 Type H   : 5s2p1d contracted to 3s1p1d pattern {311/2/1}
 Group   3 Type N   : 12s5p4d2f1g contracted to 6s4p3d1f1g pattern {711111/2111/211/2/1}

Atom   0C    basis set group =>   1
Atom   1C    basis set group =>   1
Atom   2C    basis set group =>   1
Atom   3C    basis set group =>   1
Atom   4C    basis set group =>   1
Atom   5C    basis set group =>   1
Atom   6C    basis set group =>   1
Atom   7H    basis set group =>   2
Atom   8H    basis set group =>   2
Atom   9H    basis set group =>   2
Atom  10H    basis set group =>   2
Atom  11H    basis set group =>   2
Atom  12N    basis set group =>   3
------------------------------------------------------------------------------
                           ORCA GTO INTEGRAL CALCULATION
                           -- RI-GTO INTEGRALS CHOSEN --
------------------------------------------------------------------------------
------------------------------------------------------------------------------
                   ___                                                        
                  /   \      - P O W E R E D   B Y -                         
                 /     \                                                     
                 |  |  |   _    _      __       _____    __    __             
                 |  |  |  | |  | |    /  \     |  _  \  |  |  /  |          
                  \  \/   | |  | |   /    \    | | | |  |  | /  /          
                 / \  \   | |__| |  /  /\  \   | |_| |  |  |/  /          
                |  |  |   |  __  | /  /__\  \  |    /   |      \           
                |  |  |   | |  | | |   __   |  |    \   |  |\   \          
                \     /   | |  | | |  |  |  |  | |\  \  |  | \   \       
                 \___/    |_|  |_| |__|  |__|  |_| \__\ |__|  \__/        
                                                                              
                      - O R C A' S   B I G   F R I E N D -                    
                                      &                                       
                       - I N T E G R A L  F E E D E R -                       
                                                                              
 v1 FN, 2020, v2 2021                                                         
------------------------------------------------------------------------------


Reading SHARK input file neutral.SHARKINP.tmp ... ok
----------------------
SHARK INTEGRAL PACKAGE
----------------------

Number of atoms                             ...     13
Number of basis functions                   ...    606
Number of shells                            ...    186
Maximum angular momentum                    ...      4
Integral batch strategy                     ... SHARK/LIBINT Hybrid
RI-J (if used) integral strategy            ... SPLIT-RIJ (Revised 2003 algorithm where possible)
Printlevel                                  ...      1
Contraction scheme used                     ... SEGMENTED contraction
Coulomb Range Separation                    ... NOT USED
Exchange Range Separation                   ... NOT USED
Finite Nucleus Model                        ... NOT USED
Auxiliary Coulomb fitting basis             ... AVAILABLE
   # of basis functions in Aux-J            ...    447
   # of shells in Aux-J                     ...    145
   Maximum angular momentum in Aux-J        ...      4
Auxiliary J/K fitting basis                 ... NOT available
Auxiliary Correlation fitting basis         ... NOT available
Auxiliary 'external' fitting basis          ... NOT available
Integral threshold                          ...     2.500000e-11
Primitive cut-off                           ...     2.500000e-12
Primitive pair pre-selection threshold      ...     2.500000e-12

Calculating pre-screening integrals         ... done (  3.6 sec) Dimension = 186
Organizing shell pair data                  ... done (  2.8 sec)
Shell pair information
Total number of shell pairs                 ...     17391
Shell pairs after pre-screening             ...     14944
Total number of primitive shell pairs       ...     44595
Primitive shell pairs kept                  ...     29342
          la=0 lb=0:   2282 shell pairs
          la=1 lb=0:   3132 shell pairs
          la=1 lb=1:   1058 shell pairs
          la=2 lb=0:   2164 shell pairs
          la=2 lb=1:   1455 shell pairs
          la=2 lb=2:    520 shell pairs
          la=3 lb=0:   1324 shell pairs
          la=3 lb=1:    892 shell pairs
          la=3 lb=2:    622 shell pairs
          la=3 lb=3:    200 shell pairs
          la=4 lb=0:    521 shell pairs
          la=4 lb=1:    348 shell pairs
          la=4 lb=2:    241 shell pairs
          la=4 lb=3:    152 shell pairs
          la=4 lb=4:     33 shell pairs

Calculating one electron integrals          ... done (  0.8 sec)
Calculating RI/J V-Matrix + Cholesky decomp.... done (  0.1 sec)
Calculating Nuclear repulsion               ... done (  0.0 sec) ENN=    298.729306774016 Eh

SHARK setup successfully completed in  14.7 seconds

Maximum memory used throughout the entire GTOINT-calculation: 537.2 MB
-------------------------------------------------------------------------------
                                 ORCA SCF
-------------------------------------------------------------------------------

------------
SCF SETTINGS
------------
Hamiltonian:
 Density Functional     Method          .... DFT(GTOs)
 Exchange Functional    Exchange        .... B88
   X-Alpha parameter    XAlpha          ....  0.666667
   Becke's b parameter  XBeta           ....  0.004200
 Correlation Functional Correlation     .... LYP
 LDA part of GGA corr.  LDAOpt          .... VWN-5
 Gradients option       PostSCFGGA      .... off
 Hybrid DFT is turned on
   Fraction HF Exchange ScalHFX         ....  0.200000
   Scaling of DF-GGA-X  ScalDFX         ....  0.720000
   Scaling of DF-GGA-C  ScalDFC         ....  0.810000
   Scaling of DF-LDA-C  ScalLDAC        ....  1.000000
   Perturbative correction              ....  0.000000
   Density functional embedding theory  .... OFF
   NL short-range parameter             ....  4.800000
 RI-approximation to the Coulomb term is turned on
   Number of AuxJ basis functions       .... 447
   RIJ-COSX (HFX calculated with COS-X)).... on


General Settings:
 Integral files         IntName         .... neutral
 Hartree-Fock type      HFTyp           .... RHF
 Total Charge           Charge          ....    0
 Multiplicity           Mult            ....    1
 Number of Electrons    NEL             ....   54
 Basis Dimension        Dim             ....  606
 Nuclear Repulsion      ENuc            ....    298.7293067740 Eh

Convergence Acceleration:
 DIIS                   CNVDIIS         .... on
   Start iteration      DIISMaxIt       ....    12
   Startup error        DIISStart       ....  0.200000
   # of expansion vecs  DIISMaxEq       ....     5
   Bias factor          DIISBfac        ....   1.050
   Max. coefficient     DIISMaxC        ....  10.000
 Trust-Rad. Augm. Hess. CNVTRAH         .... auto
   Auto Start mean grad. ratio tolernc. ....  1.125000
   Auto Start start iteration           ....    20
   Auto Start num. interpolation iter.  ....    10
   Max. Number of Micro iterations      ....    16
   Max. Number of Macro iterations      .... Maxiter - #DIIS iter
   Number of Davidson start vectors     ....     2
   Converg. threshold I  (grad. norm)   ....   1.000e-05
   Converg. threshold II (energy diff.) ....   1.000e-08
   Grad. Scal. Fac. for Micro threshold ....   0.100
   Minimum threshold for Micro iter.    ....   0.010
   NR start threshold (gradient norm)   ....   0.001
   Initial trust radius                 ....   0.400
   Minimum AH scaling param. (alpha)    ....   1.000
   Maximum AH scaling param. (alpha)    .... 1000.000
   Orbital update algorithm             .... Taylor
   White noise on init. David. guess    .... on
   Maximum white noise                  ....   0.010
   Quad. conv. algorithm                .... NR
 SOSCF                  CNVSOSCF        .... on
   Start iteration      SOSCFMaxIt      ....   150
   Startup grad/error   SOSCFStart      ....  0.003300
 Level Shifting         CNVShift        .... on
   Level shift para.    LevelShift      ....    0.2500
   Turn off err/grad.   ShiftErr        ....    0.0010
 Zerner damping         CNVZerner       .... off
 Static damping         CNVDamp         .... on
   Fraction old density DampFac         ....    0.7000
   Max. Damping (<1)    DampMax         ....    0.9800
   Min. Damping (>=0)   DampMin         ....    0.0000
   Turn off err/grad.   DampErr         ....    0.1000
 Fernandez-Rico         CNVRico         .... off

SCF Procedure:
 Maximum # iterations   MaxIter         ....   125
 SCF integral mode      SCFMode         .... Direct
   Integral package                     .... SHARK and LIBINT hybrid scheme
 Reset frequency        DirectResetFreq ....    20
 Integral Threshold     Thresh          ....  2.500e-11 Eh
 Primitive CutOff       TCut            ....  2.500e-12 Eh

Convergence Tolerance:
 Convergence Check Mode ConvCheckMode   .... Total+1el-Energy
 Convergence forced     ConvForced      .... 0
 Energy Change          TolE            ....  1.000e-08 Eh
 1-El. energy change                    ....  1.000e-05 Eh
 Orbital Gradient       TolG            ....  1.000e-05
 Orbital Rotation angle TolX            ....  1.000e-05
 DIIS Error             TolErr          ....  5.000e-07


Diagonalization of the overlap matrix:
Smallest eigenvalue                        ... 6.907e-06
Time for diagonalization                   ...    0.538 sec
Threshold for overlap eigenvalues          ... 1.000e-08
Number of eigenvalues below threshold      ... 0
Time for construction of square roots      ...    0.298 sec
Total time needed                          ...    0.840 sec

Time for model grid setup =    3.376 sec

------------------------------
INITIAL GUESS: MODEL POTENTIAL
------------------------------
Loading Hartree-Fock densities                     ... done
Calculating cut-offs                               ... done
Initializing the effective Hamiltonian             ... done
Setting up the integral package (SHARK)            ... done
Starting the Coulomb interaction                   ... done (   7.9 sec)
Reading the grid                                   ... done
Mapping shells                                     ... done
Starting the XC term evaluation                    ... done (   9.8 sec)
  promolecular density results
     # of electrons  =     53.999152564
     EX              =    -43.952402339
     EC              =     -1.803976292
     EX+EC           =    -45.756378631
Transforming the Hamiltonian                       ... done (   0.2 sec)
Diagonalizing the Hamiltonian                      ... done (   0.4 sec)
Back transforming the eigenvectors                 ... done (   0.1 sec)
Now organizing SCF variables                       ... done
                      ------------------
                      INITIAL GUESS DONE (  21.8 sec)
                      ------------------
-------------------
DFT GRID GENERATION
-------------------

General Integration Accuracy     IntAcc      ... 4.388
Radial Grid Type                 RadialGrid  ... OptM3 with GC (2021)
Angular Grid (max. ang.)         AngularGrid ... 4 (Lebedev-302)
Angular grid pruning method      GridPruning ... 4 (adaptive)
Weight generation scheme         WeightScheme... Becke
Basis function cutoff            BFCut       ... 1.0000e-11
Integration weight cutoff        WCut        ... 1.0000e-14
Angular grids for H and He will be reduced by one unit
Partially contracted basis set               ... off
Rotationally invariant grid construction     ... off

Total number of grid points                  ...    66532
Total number of batches                      ...     1045
Average number of points per batch           ...       63
Average number of grid points per atom       ...     5118
Time for grid setup =    7.695 sec

--------------------
COSX GRID GENERATION
--------------------

GRIDX 1
-------
General Integration Accuracy     IntAcc      ... 3.816
Radial Grid Type                 RadialGrid  ... OptM3 with GC (2021)
Angular Grid (max. ang.)         AngularGrid ... 1 (Lebedev-50)
Angular grid pruning method      GridPruning ... 4 (adaptive)
Weight generation scheme         WeightScheme... Becke
Basis function cutoff            BFCut       ... 1.0000e-11
Integration weight cutoff        WCut        ... 1.0000e-14
Angular grids for H and He will be reduced by one unit
Partially contracted basis set               ... on
Rotationally invariant grid construction     ... off

Total number of grid points                  ...     8501
Total number of batches                      ...      141
Average number of points per batch           ...       60
Average number of grid points per atom       ...      654
UseSFitting                                  ... on

GRIDX 2
-------
General Integration Accuracy     IntAcc      ... 4.020
Radial Grid Type                 RadialGrid  ... OptM3 with GC (2021)
Angular Grid (max. ang.)         AngularGrid ... 2 (Lebedev-110)
Angular grid pruning method      GridPruning ... 4 (adaptive)
Weight generation scheme         WeightScheme... Becke
Basis function cutoff            BFCut       ... 1.0000e-11
Integration weight cutoff        WCut        ... 1.0000e-14
Angular grids for H and He will be reduced by one unit
Partially contracted basis set               ... on
Rotationally invariant grid construction     ... off

Total number of grid points                  ...    20964
Total number of batches                      ...      334
Average number of points per batch           ...       62
Average number of grid points per atom       ...     1613
UseSFitting                                  ... on

GRIDX 3
-------
General Integration Accuracy     IntAcc      ... 4.338
Radial Grid Type                 RadialGrid  ... OptM3 with GC (2021)
Angular Grid (max. ang.)         AngularGrid ... 3 (Lebedev-194)
Angular grid pruning method      GridPruning ... 4 (adaptive)
Weight generation scheme         WeightScheme... Becke
Basis function cutoff            BFCut       ... 1.0000e-11
Integration weight cutoff        WCut        ... 1.0000e-14
Angular grids for H and He will be reduced by one unit
Partially contracted basis set               ... on
Rotationally invariant grid construction     ... off

Total number of grid points                  ...    45178
Total number of batches                      ...      712
Average number of points per batch           ...       63
Average number of grid points per atom       ...     3475
UseSFitting                                  ... on

Time for X-Grid setup             =   18.349 sec

--------------
SCF ITERATIONS
--------------
ITER       Energy         Delta-E        Max-DP      RMS-DP      [F,P]     Damp
               ***  Starting incremental Fock matrix formation  ***
  0   -324.2230789375   0.000000000000 0.04433092  0.00034107  0.2723368 0.7000
  1   -324.3233249770  -0.100246039516 0.02986580  0.00024904  0.0987355 0.7000
                               ***Turning on DIIS***
  2   -324.3599960949  -0.036671117974 0.04362140  0.00042637  0.0420772 0.0000
  3   -324.4229742585  -0.062978163509 0.02774661  0.00018794  0.0467126 0.0000
  4   -324.4338675115  -0.010893253080 0.00922845  0.00007576  0.0310094 0.0000
  5   -324.4356105804  -0.001743068816 0.00402836  0.00003076  0.0045153 0.0000
                      *** Initiating the SOSCF procedure ***
                           *** Shutting down DIIS ***
                      *** Re-Reading the Fockian *** 
                      *** Removing any level shift *** 
ITER      Energy       Delta-E        Grad      Rot      Max-DP    RMS-DP
  6   -324.43566489  -0.0000543079  0.000248  0.000248  0.001982  0.000013
               *** Restarting incremental Fock matrix formation ***
  7   -324.43566474   0.0000001493  0.000099  0.000469  0.001201  0.000011
  8   -324.43566462   0.0000001223  0.000190  0.000329  0.000213  0.000002
  9   -324.43566507  -0.0000004553  0.000027  0.000075  0.000208  0.000002
 10   -324.43566507   0.0000000034  0.000046  0.000051  0.000036  0.000000
 11   -324.43566508  -0.0000000157  0.000024  0.000034  0.000074  0.000001
 12   -324.43566508   0.0000000050  0.000017  0.000015  0.000031  0.000000
                  ***Gradient check signals convergence***
              ***Rediagonalizing the Fockian in SOSCF/NRSCF***

               *****************************************************
               *                     SUCCESS                       *
               *           SCF CONVERGED AFTER  13 CYCLES          *
               *****************************************************

Old exchange energy                            =     -8.909710846 Eh
New exchange energy                            =     -8.909704926 Eh
Exchange energy change after final integration =      0.000005920 Eh
Total energy after final integration           =   -324.435659176 Eh
Final COS-X integration done in                =   462.072 sec

----------------
TOTAL SCF ENERGY
----------------

Total Energy       :         -324.43565918 Eh           -8828.34311 eV

Components:
Nuclear Repulsion  :          298.72930677 Eh            8128.83770 eV
Electronic Energy  :         -623.16496595 Eh          -16957.18081 eV
One Electron Energy:        -1027.82208554 Eh          -27968.46084 eV
Two Electron Energy:          404.65711959 Eh           11011.28003 eV
Max COSX asymmetry :            0.00000061 Eh               0.00002 eV

Virial components:
Potential Energy   :         -647.21690751 Eh          -17611.66741 eV
Kinetic Energy     :          322.78124834 Eh            8783.32430 eV
Virial Ratio       :            2.00512549


DFT components:
N(Alpha)           :       27.000012159289 electrons
N(Beta)            :       27.000012159289 electrons
N(Total)           :       54.000024318578 electrons
E(X)               :      -35.433343809524 Eh       
E(C)               :       -2.137420836118 Eh       
E(XC)              :      -37.570764645641 Eh       
DFET-embed. en.    :        0.000000000000 Eh       

---------------
SCF CONVERGENCE
---------------

  Last Energy change         ...   -1.6041e-08  Tolerance :   1.0000e-08
  Last MAX-Density change    ...    6.6613e-16  Tolerance :   1.0000e-07
  Last RMS-Density change    ...    4.8941e-18  Tolerance :   5.0000e-09
  Last Orbital Gradient      ...    1.7482e-06  Tolerance :   1.0000e-05
  Last Orbital Rotation      ...    4.8420e-06  Tolerance :   1.0000e-05

             **** THE GBW FILE WAS UPDATED (neutral.gbw) ****
             **** DENSITY neutral.scfp WAS UPDATED ****
             **** ENERGY FILE WAS UPDATED (neutral.en.tmp) ****
             **** THE GBW FILE WAS UPDATED (neutral.gbw) ****
             **** DENSITY neutral.scfp WAS UPDATED ****
----------------
ORBITAL ENERGIES
----------------

  NO   OCC          E(Eh)            E(eV) 
   0   2.0000     -14.319766      -389.6606 
   1   2.0000     -10.235113      -278.5116 
   2   2.0000     -10.216728      -278.0113 
   3   2.0000     -10.212860      -277.9060 
   4   2.0000     -10.212848      -277.9057 
   5   2.0000     -10.208635      -277.7911 
   6   2.0000     -10.206685      -277.7380 
   7   2.0000     -10.206601      -277.7357 
   8   2.0000      -0.913005       -24.8441 
   9   2.0000      -0.882972       -24.0269 
  10   2.0000      -0.789944       -21.4955 
  11   2.0000      -0.775649       -21.1065 
  12   2.0000      -0.659291       -17.9402 
  13   2.0000      -0.634936       -17.2775 
  14   2.0000      -0.570595       -15.5267 
  15   2.0000      -0.511303       -13.9133 
  16   2.0000      -0.486663       -13.2428 
  17   2.0000      -0.463663       -12.6169 
  18   2.0000      -0.450219       -12.2511 
  19   2.0000      -0.413225       -11.2444 
  20   2.0000      -0.391077       -10.6418 
  21   2.0000      -0.379356       -10.3228 
  22   2.0000      -0.366120        -9.9626 
  23   2.0000      -0.356694        -9.7061 
  24   2.0000      -0.339331        -9.2337 
  25   2.0000      -0.285146        -7.7592 
  26   2.0000      -0.276028        -7.5111 
  27   0.0000      -0.065480        -1.7818 
  28   0.0000      -0.041604        -1.1321 
  29   0.0000       0.009408         0.2560 
  30   0.0000       0.023301         0.6340 
  31   0.0000       0.035432         0.9641 
  32   0.0000       0.040229         1.0947 
  33   0.0000       0.058291         1.5862 
  34   0.0000       0.065713         1.7881 
  35   0.0000       0.076181         2.0730 
  36   0.0000       0.089271         2.4292 
  37   0.0000       0.092127         2.5069 
  38   0.0000       0.106416         2.8957 
  39   0.0000       0.124567         3.3896 
  40   0.0000       0.131014         3.5651 
  41   0.0000       0.140609         3.8262 
  42   0.0000       0.156992         4.2720 
  43   0.0000       0.158641         4.3168 
  44   0.0000       0.159727         4.3464 
  45   0.0000       0.160911         4.3786 
  46   0.0000       0.189522         5.1572 
  47   0.0000       0.203342         5.5332 
  48   0.0000       0.211786         5.7630 
  49   0.0000       0.213455         5.8084 
  50   0.0000       0.228294         6.2122 
  51   0.0000       0.234485         6.3807 
  52   0.0000       0.237141         6.4529 
  53   0.0000       0.249240         6.7822 
  54   0.0000       0.255127         6.9424 
  55   0.0000       0.267088         7.2678 
  56   0.0000       0.281626         7.6634 
  57   0.0000       0.284780         7.7493 
  58   0.0000       0.286156         7.7867 
  59   0.0000       0.301957         8.2167 
  60   0.0000       0.318317         8.6619 
  61   0.0000       0.319172         8.6851 
  62   0.0000       0.330083         8.9820 
  63   0.0000       0.347859         9.4657 
  64   0.0000       0.362080         9.8527 
  65   0.0000       0.364092         9.9074 
  66   0.0000       0.389456        10.5976 
  67   0.0000       0.394544        10.7361 
  68   0.0000       0.411122        11.1872 
  69   0.0000       0.419428        11.4132 
  70   0.0000       0.427219        11.6252 
  71   0.0000       0.427524        11.6335 
  72   0.0000       0.428524        11.6607 
  73   0.0000       0.442817        12.0497 
  74   0.0000       0.444613        12.0985 
  75   0.0000       0.470730        12.8092 
  76   0.0000       0.476316        12.9612 
  77   0.0000       0.497417        13.5354 
  78   0.0000       0.498829        13.5738 
  79   0.0000       0.509911        13.8754 
  80   0.0000       0.536425        14.5969 
  81   0.0000       0.547728        14.9044 
  82   0.0000       0.555370        15.1124 
  83   0.0000       0.560614        15.2551 
  84   0.0000       0.562126        15.2962 
  85   0.0000       0.595533        16.2053 
  86   0.0000       0.618688        16.8353 
  87   0.0000       0.633267        17.2321 
  88   0.0000       0.637497        17.3472 
  89   0.0000       0.653474        17.7819 
  90   0.0000       0.653774        17.7901 
  91   0.0000       0.664453        18.0807 
  92   0.0000       0.691418        18.8144 
  93   0.0000       0.695675        18.9303 
  94   0.0000       0.695900        18.9364 
  95   0.0000       0.715283        19.4639 
  96   0.0000       0.718615        19.5545 
  97   0.0000       0.730173        19.8690 
  98   0.0000       0.730411        19.8755 
  99   0.0000       0.740435        20.1483 
 100   0.0000       0.742040        20.1919 
 101   0.0000       0.762150        20.7391 
 102   0.0000       0.764438        20.8014 
 103   0.0000       0.791764        21.5450 
 104   0.0000       0.807766        21.9804 
 105   0.0000       0.807893        21.9839 
 106   0.0000       0.817368        22.2417 
 107   0.0000       0.836112        22.7518 
 108   0.0000       0.841731        22.9047 
 109   0.0000       0.846806        23.0428 
 110   0.0000       0.878989        23.9185 
 111   0.0000       0.879867        23.9424 
 112   0.0000       0.881754        23.9938 
 113   0.0000       0.886927        24.1345 
 114   0.0000       0.887895        24.1608 
 115   0.0000       0.891773        24.2664 
 116   0.0000       0.895059        24.3558 
 117   0.0000       0.945506        25.7285 
 118   0.0000       0.951717        25.8975 
 119   0.0000       0.963449        26.2168 
 120   0.0000       0.983256        26.7558 
 121   0.0000       0.984017        26.7765 
 122   0.0000       0.987862        26.8811 
 123   0.0000       1.000483        27.2245 
 124   0.0000       1.003303        27.3013 
 125   0.0000       1.021032        27.7837 
 126   0.0000       1.044491        28.4220 
 127   0.0000       1.053395        28.6643 
 128   0.0000       1.067864        29.0581 
 129   0.0000       1.073941        29.2234 
 130   0.0000       1.085848        29.5474 
 131   0.0000       1.107503        30.1367 
 132   0.0000       1.123507        30.5722 
 133   0.0000       1.142359        31.0852 
 134   0.0000       1.145498        31.1706 
 135   0.0000       1.163618        31.6636 
 136   0.0000       1.168210        31.7886 
 137   0.0000       1.168431        31.7946 
 138   0.0000       1.208694        32.8902 
 139   0.0000       1.220607        33.2144 
 140   0.0000       1.229606        33.4593 
 141   0.0000       1.248566        33.9752 
 142   0.0000       1.255416        34.1616 
 143   0.0000       1.268217        34.5099 
 144   0.0000       1.268772        34.5250 
 145   0.0000       1.318899        35.8891 
 146   0.0000       1.336929        36.3797 
 147   0.0000       1.362020        37.0624 
 148   0.0000       1.371977        37.3334 
 149   0.0000       1.423917        38.7467 
 150   0.0000       1.461301        39.7640 
 151   0.0000       1.467646        39.9367 
 152   0.0000       1.485698        40.4279 
 153   0.0000       1.491903        40.5967 
 154   0.0000       1.528340        41.5882 
 155   0.0000       1.545904        42.0662 
 156   0.0000       1.552659        42.2500 
 157   0.0000       1.561301        42.4852 
 158   0.0000       1.563511        42.5453 
 159   0.0000       1.586523        43.1715 
 160   0.0000       1.609582        43.7989 
 161   0.0000       1.619635        44.0725 
 162   0.0000       1.632062        44.4107 
 163   0.0000       1.640770        44.6476 
 164   0.0000       1.663369        45.2626 
 165   0.0000       1.685675        45.8695 
 166   0.0000       1.686272        45.8858 
 167   0.0000       1.704129        46.3717 
 168   0.0000       1.711992        46.5857 
 169   0.0000       1.735830        47.2343 
 170   0.0000       1.753945        47.7273 
 171   0.0000       1.763306        47.9820 
 172   0.0000       1.764621        48.0178 
 173   0.0000       1.767219        48.0885 
 174   0.0000       1.805902        49.1411 
 175   0.0000       1.808648        49.2158 
 176   0.0000       1.831749        49.8444 
 177   0.0000       1.832083        49.8535 
 178   0.0000       1.849992        50.3409 
 179   0.0000       1.870805        50.9072 
 180   0.0000       1.900698        51.7206 
 181   0.0000       1.903983        51.8100 
 182   0.0000       1.911578        52.0167 
 183   0.0000       1.923418        52.3389 
 184   0.0000       1.928709        52.4828 
 185   0.0000       1.941417        52.8286 
 186   0.0000       1.945895        52.9505 
 187   0.0000       1.949471        53.0478 
 188   0.0000       1.967406        53.5358 
 189   0.0000       2.007745        54.6335 
 190   0.0000       2.010076        54.6969 
 191   0.0000       2.015828        54.8535 
 192   0.0000       2.032903        55.3181 
 193   0.0000       2.048245        55.7356 
 194   0.0000       2.049171        55.7608 
 195   0.0000       2.070544        56.3424 
 196   0.0000       2.085521        56.7499 
 197   0.0000       2.094647        56.9982 
 198   0.0000       2.094867        57.0042 
 199   0.0000       2.106363        57.3170 
 200   0.0000       2.123986        57.7966 
 201   0.0000       2.126330        57.8604 
 202   0.0000       2.165320        58.9213 
 203   0.0000       2.168569        59.0098 
 204   0.0000       2.177471        59.2520 
 205   0.0000       2.193264        59.6818 
 206   0.0000       2.201051        59.8936 
 207   0.0000       2.213339        60.2280 
 208   0.0000       2.222148        60.4677 
 209   0.0000       2.235526        60.8318 
 210   0.0000       2.245732        61.1095 
 211   0.0000       2.261563        61.5403 
 212   0.0000       2.265694        61.6527 
 213   0.0000       2.279264        62.0219 
 214   0.0000       2.314235        62.9735 
 215   0.0000       2.334513        63.5253 
 216   0.0000       2.351731        63.9938 
 217   0.0000       2.360313        64.2274 
 218   0.0000       2.382246        64.8242 
 219   0.0000       2.383732        64.8647 
 220   0.0000       2.394763        65.1648 
 221   0.0000       2.402089        65.3642 
 222   0.0000       2.411618        65.6234 
 223   0.0000       2.420691        65.8703 
 224   0.0000       2.431031        66.1517 
 225   0.0000       2.463959        67.0477 
 226   0.0000       2.464928        67.0741 
 227   0.0000       2.482004        67.5388 
 228   0.0000       2.490942        67.7820 
 229   0.0000       2.495155        67.8966 
 230   0.0000       2.495347        67.9018 
 231   0.0000       2.499084        68.0035 
 232   0.0000       2.535506        68.9946 
 233   0.0000       2.540071        69.1188 
 234   0.0000       2.545479        69.2660 
 235   0.0000       2.564483        69.7831 
 236   0.0000       2.582164        70.2643 
 237   0.0000       2.597830        70.6905 
 238   0.0000       2.611409        71.0601 
 239   0.0000       2.611608        71.0655 
 240   0.0000       2.622322        71.3570 
 241   0.0000       2.623038        71.3765 
 242   0.0000       2.633756        71.6682 
 243   0.0000       2.646114        72.0044 
 244   0.0000       2.652444        72.1767 
 245   0.0000       2.678427        72.8837 
 246   0.0000       2.704880        73.6035 
 247   0.0000       2.712498        73.8108 
 248   0.0000       2.727051        74.2068 
 249   0.0000       2.730413        74.2983 
 250   0.0000       2.754123        74.9435 
 251   0.0000       2.762720        75.1774 
 252   0.0000       2.763956        75.2111 
 253   0.0000       2.765023        75.2401 
 254   0.0000       2.783104        75.7321 
 255   0.0000       2.787049        75.8395 
 256   0.0000       2.805939        76.3535 
 257   0.0000       2.850967        77.5787 
 258   0.0000       2.873827        78.2008 
 259   0.0000       2.899461        78.8984 
 260   0.0000       2.906198        79.0817 
 261   0.0000       2.923880        79.5628 
 262   0.0000       2.960882        80.5697 
 263   0.0000       2.980091        81.0924 
 264   0.0000       3.016844        82.0925 
 265   0.0000       3.029269        82.4306 
 266   0.0000       3.057624        83.2022 
 267   0.0000       3.069286        83.5195 
 268   0.0000       3.081681        83.8568 
 269   0.0000       3.088381        84.0391 
 270   0.0000       3.097549        84.2886 
 271   0.0000       3.113106        84.7119 
 272   0.0000       3.156360        85.8889 
 273   0.0000       3.162465        86.0550 
 274   0.0000       3.200034        87.0774 
 275   0.0000       3.218837        87.5890 
 276   0.0000       3.283907        89.3596 
 277   0.0000       3.309040        90.0435 
 278   0.0000       3.321716        90.3885 
 279   0.0000       3.330338        90.6231 
 280   0.0000       3.340334        90.8951 
 281   0.0000       3.347384        91.0870 
 282   0.0000       3.348662        91.1217 
 283   0.0000       3.385524        92.1248 
 284   0.0000       3.404947        92.6533 
 285   0.0000       3.426718        93.2457 
 286   0.0000       3.437511        93.5394 
 287   0.0000       3.450189        93.8844 
 288   0.0000       3.462162        94.2102 
 289   0.0000       3.502892        95.3185 
 290   0.0000       3.512840        95.5892 
 291   0.0000       3.530411        96.0674 
 292   0.0000       3.531676        96.1018 
 293   0.0000       3.547812        96.5409 
 294   0.0000       3.613924        98.3399 
 295   0.0000       3.636603        98.9570 
 296   0.0000       3.637167        98.9723 
 297   0.0000       3.670314        99.8743 
 298   0.0000       3.682788       100.2138 
 299   0.0000       3.775937       102.7485 
 300   0.0000       3.789185       103.1090 
 301   0.0000       3.833062       104.3029 
 302   0.0000       3.851113       104.7941 
 303   0.0000       3.877304       105.5068 
 304   0.0000       3.884767       105.7099 
 305   0.0000       3.890175       105.8571 
 306   0.0000       3.893973       105.9604 
 307   0.0000       3.966823       107.9427 
 308   0.0000       3.980761       108.3220 
 309   0.0000       3.996571       108.7522 
 310   0.0000       4.015118       109.2569 
 311   0.0000       4.054488       110.3282 
 312   0.0000       4.058021       110.4244 
 313   0.0000       4.086332       111.1947 
 314   0.0000       4.118215       112.0623 
 315   0.0000       4.181381       113.7812 
 316   0.0000       4.241077       115.4056 
 317   0.0000       4.286647       116.6456 
 318   0.0000       4.299934       117.0071 
 319   0.0000       4.414857       120.1344 
 320   0.0000       4.462371       121.4273 
 321   0.0000       4.485025       122.0437 
 322   0.0000       4.512081       122.7800 
 323   0.0000       4.636879       126.1759 
 324   0.0000       4.681004       127.3766 
 325   0.0000       4.698582       127.8549 
 326   0.0000       4.709049       128.1397 
 327   0.0000       4.769900       129.7956 
 328   0.0000       4.772214       129.8585 
 329   0.0000       4.781540       130.1123 
 330   0.0000       4.784178       130.1841 
 331   0.0000       4.815613       131.0395 
 332   0.0000       4.833451       131.5249 
 333   0.0000       4.840776       131.7242 
 334   0.0000       4.895062       133.2014 
 335   0.0000       4.943589       134.5219 
 336   0.0000       4.971759       135.2885 
 337   0.0000       4.995348       135.9303 
 338   0.0000       5.001208       136.0898 
 339   0.0000       5.006486       136.2334 
 340   0.0000       5.018032       136.5476 
 341   0.0000       5.027803       136.8135 
 342   0.0000       5.046739       137.3288 
 343   0.0000       5.078904       138.2040 
 344   0.0000       5.137114       139.7880 
 345   0.0000       5.148581       140.1000 
 346   0.0000       5.156585       140.3178 
 347   0.0000       5.184705       141.0830 
 348   0.0000       5.194414       141.3472 
 349   0.0000       5.207924       141.7148 
 350   0.0000       5.225616       142.1962 
 351   0.0000       5.232347       142.3794 
 352   0.0000       5.236538       142.4934 
 353   0.0000       5.275576       143.5557 
 354   0.0000       5.307159       144.4151 
 355   0.0000       5.311393       144.5303 
 356   0.0000       5.331400       145.0748 
 357   0.0000       5.348195       145.5318 
 358   0.0000       5.358032       145.7995 
 359   0.0000       5.380321       146.4060 
 360   0.0000       5.399044       146.9155 
 361   0.0000       5.401216       146.9745 
 362   0.0000       5.450498       148.3156 
 363   0.0000       5.477607       149.0533 
 364   0.0000       5.482401       149.1837 
 365   0.0000       5.502800       149.7388 
 366   0.0000       5.557698       151.2326 
 367   0.0000       5.575080       151.7056 
 368   0.0000       5.588734       152.0772 
 369   0.0000       5.604421       152.5040 
 370   0.0000       5.609665       152.6468 
 371   0.0000       5.640177       153.4770 
 372   0.0000       5.651479       153.7846 
 373   0.0000       5.715275       155.5205 
 374   0.0000       5.730169       155.9258 
 375   0.0000       5.735697       156.0762 
 376   0.0000       5.784838       157.4135 
 377   0.0000       5.802889       157.9046 
 378   0.0000       5.815283       158.2419 
 379   0.0000       5.836257       158.8126 
 380   0.0000       5.837109       158.8358 
 381   0.0000       5.842823       158.9913 
 382   0.0000       5.862911       159.5379 
 383   0.0000       5.868563       159.6917 
 384   0.0000       5.889917       160.2728 
 385   0.0000       5.898083       160.4950 
 386   0.0000       5.902565       160.6170 
 387   0.0000       5.931644       161.4082 
 388   0.0000       5.943387       161.7278 
 389   0.0000       5.975010       162.5883 
 390   0.0000       5.985786       162.8815 
 391   0.0000       5.986489       162.9007 
 392   0.0000       5.997635       163.2039 
 393   0.0000       6.005770       163.4253 
 394   0.0000       6.031656       164.1297 
 395   0.0000       6.038854       164.3256 
 396   0.0000       6.042202       164.4167 
 397   0.0000       6.067922       165.1165 
 398   0.0000       6.068433       165.1305 
 399   0.0000       6.072797       165.2492 
 400   0.0000       6.082647       165.5172 
 401   0.0000       6.104103       166.1011 
 402   0.0000       6.113852       166.3664 
 403   0.0000       6.117356       166.4617 
 404   0.0000       6.140766       167.0987 
 405   0.0000       6.167823       167.8350 
 406   0.0000       6.193586       168.5360 
 407   0.0000       6.202838       168.7878 
 408   0.0000       6.208372       168.9384 
 409   0.0000       6.208990       168.9552 
 410   0.0000       6.234200       169.6412 
 411   0.0000       6.245545       169.9499 
 412   0.0000       6.257006       170.2618 
 413   0.0000       6.260953       170.3692 
 414   0.0000       6.267030       170.5346 
 415   0.0000       6.276269       170.7860 
 416   0.0000       6.280616       170.9043 
 417   0.0000       6.298260       171.3844 
 418   0.0000       6.307518       171.6363 
 419   0.0000       6.359098       173.0398 
 420   0.0000       6.370708       173.3558 
 421   0.0000       6.387951       173.8250 
 422   0.0000       6.393445       173.9745 
 423   0.0000       6.405715       174.3084 
 424   0.0000       6.429564       174.9573 
 425   0.0000       6.434031       175.0789 
 426   0.0000       6.442744       175.3160 
 427   0.0000       6.524397       177.5379 
 428   0.0000       6.540589       177.9785 
 429   0.0000       6.554061       178.3451 
 430   0.0000       6.568938       178.7499 
 431   0.0000       6.575433       178.9266 
 432   0.0000       6.596383       179.4967 
 433   0.0000       6.601183       179.6273 
 434   0.0000       6.604343       179.7133 
 435   0.0000       6.629334       180.3933 
 436   0.0000       6.633611       180.5097 
 437   0.0000       6.642235       180.7444 
 438   0.0000       6.671188       181.5322 
 439   0.0000       6.698764       182.2826 
 440   0.0000       6.702566       182.3861 
 441   0.0000       6.706558       182.4947 
 442   0.0000       6.721098       182.8904 
 443   0.0000       6.759763       183.9425 
 444   0.0000       6.796303       184.9368 
 445   0.0000       6.805238       185.1799 
 446   0.0000       6.853270       186.4870 
 447   0.0000       6.856909       186.5860 
 448   0.0000       6.860387       186.6806 
 449   0.0000       6.861503       186.7110 
 450   0.0000       6.913841       188.1352 
 451   0.0000       6.922614       188.3739 
 452   0.0000       6.922995       188.3843 
 453   0.0000       6.930645       188.5925 
 454   0.0000       6.938921       188.8176 
 455   0.0000       7.012954       190.8322 
 456   0.0000       7.045071       191.7061 
 457   0.0000       7.048005       191.7860 
 458   0.0000       7.091274       192.9634 
 459   0.0000       7.121836       193.7950 
 460   0.0000       7.131796       194.0660 
 461   0.0000       7.171657       195.1507 
 462   0.0000       7.223197       196.5532 
 463   0.0000       7.252570       197.3525 
 464   0.0000       7.261413       197.5931 
 465   0.0000       7.275036       197.9638 
 466   0.0000       7.324889       199.3204 
 467   0.0000       7.339092       199.7068 
 468   0.0000       7.343884       199.8372 
 469   0.0000       7.367001       200.4663 
 470   0.0000       7.405443       201.5124 
 471   0.0000       7.409464       201.6218 
 472   0.0000       7.423700       202.0091 
 473   0.0000       7.429619       202.1702 
 474   0.0000       7.454193       202.8389 
 475   0.0000       7.488191       203.7640 
 476   0.0000       7.495542       203.9641 
 477   0.0000       7.519958       204.6285 
 478   0.0000       7.542550       205.2432 
 479   0.0000       7.552996       205.5275 
 480   0.0000       7.553615       205.5443 
 481   0.0000       7.627827       207.5637 
 482   0.0000       7.636367       207.7961 
 483   0.0000       7.675770       208.8683 
 484   0.0000       7.682204       209.0434 
 485   0.0000       7.731437       210.3831 
 486   0.0000       7.742173       210.6752 
 487   0.0000       7.821002       212.8203 
 488   0.0000       7.821051       212.8216 
 489   0.0000       7.834485       213.1872 
 490   0.0000       7.854890       213.7424 
 491   0.0000       7.908405       215.1986 
 492   0.0000       7.937894       216.0011 
 493   0.0000       7.952919       216.4099 
 494   0.0000       7.957886       216.5451 
 495   0.0000       8.041342       218.8160 
 496   0.0000       8.063989       219.4323 
 497   0.0000       8.069097       219.5713 
 498   0.0000       8.090821       220.1624 
 499   0.0000       8.108741       220.6501 
 500   0.0000       8.124239       221.0718 
 501   0.0000       8.159375       222.0279 
 502   0.0000       8.162718       222.1188 
 503   0.0000       8.202631       223.2049 
 504   0.0000       8.204225       223.2483 
 505   0.0000       8.216725       223.5885 
 506   0.0000       8.231995       224.0040 
 507   0.0000       8.255958       224.6560 
 508   0.0000       8.263468       224.8604 
 509   0.0000       8.266859       224.9527 
 510   0.0000       8.278983       225.2826 
 511   0.0000       8.296961       225.7718 
 512   0.0000       8.320978       226.4253 
 513   0.0000       8.333092       226.7550 
 514   0.0000       8.358542       227.4475 
 515   0.0000       8.359757       227.4806 
 516   0.0000       8.362434       227.5534 
 517   0.0000       8.375433       227.9071 
 518   0.0000       8.389541       228.2910 
 519   0.0000       8.416877       229.0349 
 520   0.0000       8.431668       229.4373 
 521   0.0000       8.448887       229.9059 
 522   0.0000       8.469622       230.4701 
 523   0.0000       8.473782       230.5833 
 524   0.0000       8.474151       230.5934 
 525   0.0000       8.476808       230.6657 
 526   0.0000       8.487501       230.9566 
 527   0.0000       8.505581       231.4486 
 528   0.0000       8.573734       233.3032 
 529   0.0000       8.593353       233.8370 
 530   0.0000       8.606093       234.1837 
 531   0.0000       8.653233       235.4664 
 532   0.0000       8.653904       235.4847 
 533   0.0000       8.659580       235.6392 
 534   0.0000       8.670320       235.9314 
 535   0.0000       8.724565       237.4075 
 536   0.0000       8.725488       237.4326 
 537   0.0000       8.766428       238.5466 
 538   0.0000       8.813515       239.8279 
 539   0.0000       8.834199       240.3908 
 540   0.0000       8.874557       241.4890 
 541   0.0000       8.899566       242.1695 
 542   0.0000       8.936075       243.1630 
 543   0.0000       8.946787       243.4545 
 544   0.0000       8.959808       243.8088 
 545   0.0000       8.991711       244.6769 
 546   0.0000       9.012283       245.2367 
 547   0.0000       9.055353       246.4087 
 548   0.0000       9.279849       252.5175 
 549   0.0000       9.409508       256.0457 
 550   0.0000       9.451764       257.1956 
 551   0.0000       9.492258       258.2975 
 552   0.0000       9.495991       258.3991 
 553   0.0000       9.554074       259.9796 
 554   0.0000       9.586776       260.8694 
 555   0.0000       9.641732       262.3649 
 556   0.0000       9.664445       262.9829 
 557   0.0000       9.689871       263.6748 
 558   0.0000       9.750620       265.3279 
 559   0.0000       9.752898       265.3898 
 560   0.0000       9.789878       266.3961 
 561   0.0000       9.807314       266.8706 
 562   0.0000       9.822379       267.2805 
 563   0.0000       9.923026       270.0193 
 564   0.0000       9.944589       270.6060 
 565   0.0000       9.957519       270.9579 
 566   0.0000       9.966048       271.1899 
 567   0.0000      10.004128       272.2262 
 568   0.0000      10.062881       273.8249 
 569   0.0000      10.146168       276.0913 
 570   0.0000      10.192538       277.3531 
 571   0.0000      10.206711       277.7387 
 572   0.0000      10.253128       279.0018 
 573   0.0000      10.265526       279.3392 
 574   0.0000      10.332994       281.1751 
 575   0.0000      10.490470       285.4602 
 576   0.0000      10.621998       289.0392 
 577   0.0000      10.662300       290.1359 
 578   0.0000      10.733701       292.0789 
 579   0.0000      10.840504       294.9851 
 580   0.0000      11.263065       306.4836 
 581   0.0000      11.549220       314.2703 
 582   0.0000      11.703409       318.4660 
 583   0.0000      12.033290       327.4425 
 584   0.0000      12.045908       327.7858 
 585   0.0000      12.538834       341.1990 
 586   0.0000      12.648913       344.1944 
 587   0.0000      12.815858       348.7372 
 588   0.0000      13.028776       354.5310 
 589   0.0000      13.140278       357.5651 
 590   0.0000      27.829827       757.2881 
 591   0.0000      28.302154       770.1408 
 592   0.0000      28.450426       774.1755 
 593   0.0000      28.743695       782.1557 
 594   0.0000      28.941080       787.5268 
 595   0.0000      29.171174       793.7880 
 596   0.0000      29.406676       800.1963 
 597   0.0000      37.906040      1031.4758 
 598   0.0000     146.902941      3997.4323 
 599   0.0000     147.354334      4009.7153 
 600   0.0000     147.490695      4013.4259 
 601   0.0000     147.759086      4020.7291 
 602   0.0000     147.944055      4025.7624 
 603   0.0000     148.214620      4033.1248 
 604   0.0000     148.483644      4040.4454 
 605   0.0000     197.173580      5365.3659 

                    ********************************
                    * MULLIKEN POPULATION ANALYSIS *
                    ********************************

-----------------------
MULLIKEN ATOMIC CHARGES
-----------------------
   0 C :    0.232860
   1 C :   -0.080434
   2 C :   -0.055588
   3 C :   -0.035304
   4 C :   -0.057666
   5 C :   -0.078833
   6 C :   -0.122826
   7 H :    0.084037
   8 H :    0.067705
   9 H :    0.067254
  10 H :    0.068625
  11 H :    0.083761
  12 N :   -0.173590
Sum of atomic charges:    0.0000000

--------------------------------
MULLIKEN REDUCED ORBITAL CHARGES
--------------------------------
  0 C s       :     3.301867  s :     3.301867
      pz      :     0.970973  p :     2.303567
      px      :     0.724376
      py      :     0.608218
      dz2     :     0.002033  d :     0.136658
      dxz     :     0.032508
      dyz     :     0.017210
      dx2y2   :     0.051739
      dxy     :     0.033168
      f0      :     0.002729  f :     0.023419
      f+1     :     0.000714
      f-1     :     0.000607
      f+2     :     0.002063
      f-2     :     0.002776
      f+3     :     0.008115
      f-3     :     0.006415
      g0      :     0.000059  g :     0.001629
      g+1     :     0.000158
      g-1     :     0.000157
      g+2     :     0.000104
      g-2     :     0.000105
      g+3     :     0.000108
      g-3     :     0.000149
      g+4     :     0.000412
      g-4     :     0.000377
  1 C s       :     3.363979  s :     3.363979
      pz      :     0.920890  p :     2.600831
      px      :     0.838739
      py      :     0.841202
      dz2     :     0.002398  d :     0.099153
      dxz     :     0.018490
      dyz     :     0.020008
      dx2y2   :     0.016299
      dxy     :     0.041958
      f0      :     0.001703  f :     0.015381
      f+1     :     0.000423
      f-1     :     0.000328
      f+2     :     0.003016
      f-2     :     0.000887
      f+3     :     0.005426
      f-3     :     0.003598
      g0      :     0.000048  g :     0.001090
      g+1     :     0.000111
      g-1     :     0.000111
      g+2     :     0.000083
      g-2     :     0.000051
      g+3     :     0.000064
      g-3     :     0.000098
      g+4     :     0.000278
      g-4     :     0.000245
  2 C s       :     3.309958  s :     3.309958
      pz      :     0.928115  p :     2.615329
      px      :     0.869780
      py      :     0.817434
      dz2     :     0.001963  d :     0.113980
      dxz     :     0.008668
      dyz     :     0.026916
      dx2y2   :     0.043982
      dxy     :     0.032451
      f0      :     0.001632  f :     0.015214
      f+1     :     0.000388
      f-1     :     0.000482
      f+2     :     0.001339
      f-2     :     0.002201
      f+3     :     0.005064
      f-3     :     0.004108
      g0      :     0.000046  g :     0.001107
      g+1     :     0.000069
      g-1     :     0.000137
      g+2     :     0.000061
      g-2     :     0.000077
      g+3     :     0.000066
      g-3     :     0.000095
      g+4     :     0.000263
      g-4     :     0.000291
  3 C s       :     3.321349  s :     3.321349
      pz      :     0.912449  p :     2.591920
      px      :     0.828241
      py      :     0.851229
      dz2     :     0.002561  d :     0.105881
      dxz     :     0.029405
      dyz     :     0.008205
      dx2y2   :     0.041664
      dxy     :     0.024046
      f0      :     0.001622  f :     0.015043
      f+1     :     0.000478
      f-1     :     0.000335
      f+2     :     0.001116
      f-2     :     0.002540
      f+3     :     0.004948
      f-3     :     0.004004
      g0      :     0.000045  g :     0.001111
      g+1     :     0.000144
      g-1     :     0.000067
      g+2     :     0.000058
      g-2     :     0.000080
      g+3     :     0.000067
      g-3     :     0.000093
      g+4     :     0.000272
      g-4     :     0.000286
  4 C s       :     3.310786  s :     3.310786
      pz      :     0.928402  p :     2.616652
      px      :     0.845108
      py      :     0.843142
      dz2     :     0.001991  d :     0.113901
      dxz     :     0.017714
      dyz     :     0.017916
      dx2y2   :     0.021481
      dxy     :     0.054799
      f0      :     0.001646  f :     0.015218
      f+1     :     0.000428
      f-1     :     0.000445
      f+2     :     0.002885
      f-2     :     0.000658
      f+3     :     0.005052
      f-3     :     0.004105
      g0      :     0.000046  g :     0.001108
      g+1     :     0.000100
      g-1     :     0.000107
      g+2     :     0.000089
      g-2     :     0.000050
      g+3     :     0.000070
      g-3     :     0.000093
      g+4     :     0.000298
      g-4     :     0.000256
  5 C s       :     3.362893  s :     3.362893
      pz      :     0.920660  p :     2.600455
      px      :     0.859093
      py      :     0.820703
      dz2     :     0.002386  d :     0.099042
      dxz     :     0.009173
      dyz     :     0.029305
      dx2y2   :     0.031947
      dxy     :     0.026232
      f0      :     0.001692  f :     0.015352
      f+1     :     0.000324
      f-1     :     0.000429
      f+2     :     0.001422
      f-2     :     0.002477
      f+3     :     0.004467
      f-3     :     0.004542
      g0      :     0.000048  g :     0.001090
      g+1     :     0.000074
      g-1     :     0.000147
      g+2     :     0.000055
      g-2     :     0.000080
      g+3     :     0.000072
      g-3     :     0.000090
      g+4     :     0.000259
      g-4     :     0.000265
  6 C s       :     3.330623  s :     3.330623
      pz      :     0.905570  p :     2.712710
      px      :     0.915231
      py      :     0.891908
      dz2     :     0.002950  d :     0.066218
      dxz     :     0.002440
      dyz     :     0.035728
      dx2y2   :     0.011228
      dxy     :     0.013872
      f0      :     0.002229  f :     0.011176
      f+1     :     0.000376
      f-1     :     0.000534
      f+2     :     0.002541
      f-2     :     0.000755
      f+3     :     0.002621
      f-3     :     0.002119
      g0      :     0.000054  g :     0.002100
      g+1     :     0.000027
      g-1     :     0.000454
      g+2     :     0.000118
      g-2     :     0.000111
      g+3     :     0.000150
      g-3     :     0.000205
      g+4     :     0.000572
      g-4     :     0.000409
  7 H s       :     0.875955  s :     0.875955
      pz      :     0.015841  p :     0.034790
      px      :     0.008751
      py      :     0.010198
      dz2     :     0.000145  d :     0.004927
      dxz     :     0.001126
      dyz     :     0.001055
      dx2y2   :     0.002200
      dxy     :     0.000401
      f0      :     0.000055  f :     0.000290
      f+1     :     0.000011
      f-1     :     0.000008
      f+2     :     0.000003
      f-2     :     0.000077
      f+3     :     0.000074
      f-3     :     0.000062
  8 H s       :     0.892519  s :     0.892519
      pz      :     0.016236  p :     0.034618
      px      :     0.007301
      py      :     0.011081
      dz2     :     0.000153  d :     0.004867
      dxz     :     0.001916
      dyz     :     0.000227
      dx2y2   :     0.000930
      dxy     :     0.001641
      f0      :     0.000056  f :     0.000291
      f+1     :     0.000010
      f-1     :     0.000008
      f+2     :     0.000054
      f-2     :     0.000025
      f+3     :     0.000076
      f-3     :     0.000060
  9 H s       :     0.893781  s :     0.893781
      pz      :     0.015912  p :     0.033866
      px      :     0.011314
      py      :     0.006640
      dz2     :     0.000140  d :     0.004809
      dxz     :     0.000164
      dyz     :     0.001936
      dx2y2   :     0.000756
      dxy     :     0.001813
      f0      :     0.000055  f :     0.000290
      f+1     :     0.000008
      f-1     :     0.000010
      f+2     :     0.000061
      f-2     :     0.000018
      f+3     :     0.000077
      f-3     :     0.000061
 10 H s       :     0.891732  s :     0.891732
      pz      :     0.016215  p :     0.034508
      px      :     0.009060
      py      :     0.009234
      dz2     :     0.000152  d :     0.004846
      dxz     :     0.001116
      dyz     :     0.001020
      dx2y2   :     0.002159
      dxy     :     0.000400
      f0      :     0.000056  f :     0.000289
      f+1     :     0.000009
      f-1     :     0.000009
      f+2     :     0.000003
      f-2     :     0.000076
      f+3     :     0.000076
      f-3     :     0.000060
 11 H s       :     0.876142  s :     0.876142
      pz      :     0.015852  p :     0.034863
      px      :     0.006717
      py      :     0.012294
      dz2     :     0.000145  d :     0.004943
      dxz     :     0.001945
      dyz     :     0.000241
      dx2y2   :     0.000967
      dxy     :     0.001644
      f0      :     0.000056  f :     0.000292
      f+1     :     0.000012
      f-1     :     0.000008
      f+2     :     0.000053
      f-2     :     0.000027
      f+3     :     0.000078
      f-3     :     0.000058
 12 N s       :     3.677243  s :     3.677243
      pz      :     1.080504  p :     3.436469
      px      :     1.073290
      py      :     1.282674
      dz2     :     0.002569  d :     0.054903
      dxz     :     0.001198
      dyz     :     0.020634
      dx2y2   :     0.010758
      dxy     :     0.019744
      f0      :     0.000783  f :     0.004540
      f+1     :     0.000136
      f-1     :     0.000179
      f+2     :     0.001009
      f-2     :     0.000264
      f+3     :     0.001207
      f-3     :     0.000962
      g0      :     0.000013  g :     0.000436
      g+1     :     0.000005
      g-1     :     0.000095
      g+2     :     0.000027
      g-2     :     0.000023
      g+3     :     0.000033
      g-3     :     0.000045
      g+4     :     0.000113
      g-4     :     0.000082


                     *******************************
                     * LOEWDIN POPULATION ANALYSIS *
                     *******************************

----------------------
LOEWDIN ATOMIC CHARGES
----------------------
   0 C :   -0.149775
   1 C :    0.102313
   2 C :    0.074523
   3 C :    0.078265
   4 C :    0.074502
   5 C :    0.102403
   6 C :   -0.235392
   7 H :   -0.042477
   8 H :   -0.051117
   9 H :   -0.051346
  10 H :   -0.051058
  11 H :   -0.042512
  12 N :    0.191671

-------------------------------
LOEWDIN REDUCED ORBITAL CHARGES
-------------------------------
  0 C s       :     2.582554  s :     2.582554
      pz      :     0.797960  p :     2.754210
      px      :     1.003889
      py      :     0.952360
      dz2     :     0.048756  d :     0.645964
      dxz     :     0.096693
      dyz     :     0.077391
      dx2y2   :     0.224350
      dxy     :     0.198774
      f0      :     0.010528  f :     0.151887
      f+1     :     0.008459
      f-1     :     0.009401
      f+2     :     0.016284
      f-2     :     0.019983
      f+3     :     0.047349
      f-3     :     0.039881
      g0      :     0.000413  g :     0.015161
      g+1     :     0.001493
      g-1     :     0.001525
      g+2     :     0.001512
      g-2     :     0.001404
      g+3     :     0.000637
      g-3     :     0.000876
      g+4     :     0.003624
      g-4     :     0.003677
  1 C s       :     2.590466  s :     2.590466
      pz      :     0.751416  p :     2.687029
      px      :     0.956874
      py      :     0.978739
      dz2     :     0.039186  d :     0.497475
      dxz     :     0.056632
      dyz     :     0.060920
      dx2y2   :     0.140334
      dxy     :     0.200403
      f0      :     0.006416  f :     0.111431
      f+1     :     0.007180
      f-1     :     0.007375
      f+2     :     0.021284
      f-2     :     0.005710
      f+3     :     0.034855
      f-3     :     0.028611
      g0      :     0.000367  g :     0.011287
      g+1     :     0.001085
      g-1     :     0.001126
      g+2     :     0.001228
      g-2     :     0.001244
      g+3     :     0.000354
      g-3     :     0.000550
      g+4     :     0.003310
      g-4     :     0.002023
  2 C s       :     2.595157  s :     2.595157
      pz      :     0.766206  p :     2.714103
      px      :     0.952946
      py      :     0.994951
      dz2     :     0.037663  d :     0.494949
      dxz     :     0.026294
      dyz     :     0.085902
      dx2y2   :     0.186344
      dxy     :     0.158747
      f0      :     0.006240  f :     0.110006
      f+1     :     0.006747
      f-1     :     0.007497
      f+2     :     0.009914
      f-2     :     0.015359
      f+3     :     0.034708
      f-3     :     0.029541
      g0      :     0.000363  g :     0.011263
      g+1     :     0.000700
      g-1     :     0.001375
      g+2     :     0.001250
      g-2     :     0.001241
      g+3     :     0.000361
      g-3     :     0.000511
      g+4     :     0.002217
      g-4     :     0.003246
  3 C s       :     2.596747  s :     2.596747
      pz      :     0.753319  p :     2.705075
      px      :     0.999264
      py      :     0.952492
      dz2     :     0.037982  d :     0.498608
      dxz     :     0.090406
      dyz     :     0.024492
      dx2y2   :     0.191767
      dxy     :     0.153961
      f0      :     0.006197  f :     0.110131
      f+1     :     0.007465
      f-1     :     0.006713
      f+2     :     0.008219
      f-2     :     0.017415
      f+3     :     0.034576
      f-3     :     0.029547
      g0      :     0.000356  g :     0.011173
      g+1     :     0.001415
      g-1     :     0.000679
      g+2     :     0.001235
      g-2     :     0.001238
      g+3     :     0.000363
      g-3     :     0.000494
      g+4     :     0.002479
      g-4     :     0.002914
  4 C s       :     2.595174  s :     2.595174
      pz      :     0.766218  p :     2.714146
      px      :     0.973759
      py      :     0.974168
      dz2     :     0.037659  d :     0.494914
      dxz     :     0.054327
      dyz     :     0.057860
      dx2y2   :     0.140984
      dxy     :     0.204085
      f0      :     0.006240  f :     0.110002
      f+1     :     0.007099
      f-1     :     0.007144
      f+2     :     0.019984
      f-2     :     0.005290
      f+3     :     0.034520
      f-3     :     0.029725
      g0      :     0.000363  g :     0.011263
      g+1     :     0.001002
      g-1     :     0.001072
      g+2     :     0.001257
      g-2     :     0.001233
      g+3     :     0.000378
      g-3     :     0.000494
      g+4     :     0.003460
      g-4     :     0.002002
  5 C s       :     2.590452  s :     2.590452
      pz      :     0.751393  p :     2.686939
      px      :     0.946464
      py      :     0.989082
      dz2     :     0.039189  d :     0.497490
      dxz     :     0.026836
      dyz     :     0.090716
      dx2y2   :     0.179019
      dxy     :     0.161731
      f0      :     0.006415  f :     0.111429
      f+1     :     0.006688
      f-1     :     0.007869
      f+2     :     0.009740
      f-2     :     0.017251
      f+3     :     0.033437
      f-3     :     0.030030
      g0      :     0.000367  g :     0.011286
      g+1     :     0.000721
      g-1     :     0.001489
      g+2     :     0.001197
      g-2     :     0.001274
      g+3     :     0.000416
      g-3     :     0.000488
      g+4     :     0.002246
      g-4     :     0.003087
  6 C s       :     2.718336  s :     2.718336
      pz      :     0.811147  p :     2.826469
      px      :     0.815265
      py      :     1.200057
      dz2     :     0.054979  d :     0.545142
      dxz     :     0.010576
      dyz     :     0.161886
      dx2y2   :     0.157467
      dxy     :     0.160234
      f0      :     0.013109  f :     0.117394
      f+1     :     0.003175
      f-1     :     0.015877
      f+2     :     0.017271
      f-2     :     0.004846
      f+3     :     0.032204
      f-3     :     0.030914
      g0      :     0.000925  g :     0.028051
      g+1     :     0.000330
      g-1     :     0.005631
      g+2     :     0.001903
      g-2     :     0.001513
      g+3     :     0.001961
      g-3     :     0.002679
      g+4     :     0.007437
      g-4     :     0.005673
  7 H s       :     0.786730  s :     0.786730
      pz      :     0.050930  p :     0.183842
      px      :     0.066520
      py      :     0.066392
      dz2     :     0.004738  d :     0.062708
      dxz     :     0.010176
      dyz     :     0.009686
      dx2y2   :     0.023452
      dxy     :     0.014657
      f0      :     0.000989  f :     0.009197
      f+1     :     0.000629
      f-1     :     0.000582
      f+2     :     0.000042
      f-2     :     0.001655
      f+3     :     0.002727
      f-3     :     0.002573
  8 H s       :     0.794088  s :     0.794088
      pz      :     0.051740  p :     0.185302
      px      :     0.087824
      py      :     0.045738
      dz2     :     0.004709  d :     0.062571
      dxz     :     0.017965
      dyz     :     0.001868
      dx2y2   :     0.017132
      dxy     :     0.020896
      f0      :     0.000992  f :     0.009156
      f+1     :     0.000906
      f-1     :     0.000296
      f+2     :     0.001161
      f-2     :     0.000520
      f+3     :     0.002754
      f-3     :     0.002526
  9 H s       :     0.795002  s :     0.795002
      pz      :     0.050720  p :     0.184924
      px      :     0.044745
      py      :     0.089459
      dz2     :     0.004710  d :     0.062306
      dxz     :     0.001306
      dyz     :     0.018132
      dx2y2   :     0.016287
      dxy     :     0.021872
      f0      :     0.000971  f :     0.009114
      f+1     :     0.000276
      f-1     :     0.000926
      f+2     :     0.001290
      f-2     :     0.000358
      f+3     :     0.002760
      f-3     :     0.002532
 10 H s       :     0.794062  s :     0.794062
      pz      :     0.051726  p :     0.185279
      px      :     0.068375
      py      :     0.065178
      dz2     :     0.004709  d :     0.062564
      dxz     :     0.010423
      dyz     :     0.009408
      dx2y2   :     0.023681
      dxy     :     0.014343
      f0      :     0.000992  f :     0.009153
      f+1     :     0.000621
      f-1     :     0.000581
      f+2     :     0.000040
      f-2     :     0.001640
      f+3     :     0.002753
      f-3     :     0.002525
 11 H s       :     0.786740  s :     0.786740
      pz      :     0.050938  p :     0.183859
      px      :     0.087834
      py      :     0.045087
      dz2     :     0.004738  d :     0.062713
      dxz     :     0.017851
      dyz     :     0.002014
      dx2y2   :     0.017593
      dxy     :     0.020518
      f0      :     0.000989  f :     0.009199
      f+1     :     0.000919
      f-1     :     0.000293
      f+2     :     0.001151
      f-2     :     0.000547
      f+3     :     0.002799
      f-3     :     0.002501
 12 N s       :     3.180447  s :     3.180447
      pz      :     0.988176  p :     3.454792
      px      :     1.000884
      py      :     1.465732
      dz2     :     0.013955  d :     0.130286
      dxz     :     0.002039
      dyz     :     0.035219
      dx2y2   :     0.041165
      dxy     :     0.037908
      f0      :     0.004669  f :     0.037662
      f+1     :     0.001002
      f-1     :     0.004644
      f+2     :     0.006127
      f-2     :     0.001596
      f+3     :     0.010077
      f-3     :     0.009547
      g0      :     0.000313  g :     0.005141
      g+1     :     0.000045
      g-1     :     0.000780
      g+2     :     0.000590
      g-2     :     0.000288
      g+3     :     0.000270
      g-3     :     0.000368
      g+4     :     0.001250
      g-4     :     0.001236


                      *****************************
                      * MAYER POPULATION ANALYSIS *
                      *****************************

  NA   - Mulliken gross atomic population
  ZA   - Total nuclear charge
  QA   - Mulliken gross atomic charge
  VA   - Mayer's total valence
  BVA  - Mayer's bonded valence
  FA   - Mayer's free valence

  ATOM       NA         ZA         QA         VA         BVA        FA
  0 C      5.7671     6.0000     0.2329     3.5294     3.5294     0.0000
  1 C      6.0804     6.0000    -0.0804     3.7030     3.7030     0.0000
  2 C      6.0556     6.0000    -0.0556     3.7986     3.7986     0.0000
  3 C      6.0353     6.0000    -0.0353     3.7857     3.7857     0.0000
  4 C      6.0577     6.0000    -0.0577     3.8007     3.8007     0.0000
  5 C      6.0788     6.0000    -0.0788     3.7024     3.7024     0.0000
  6 C      6.1228     6.0000    -0.1228     3.8629     3.8629     0.0000
  7 H      0.9160     1.0000     0.0840     0.9987     0.9987     0.0000
  8 H      0.9323     1.0000     0.0677     1.0000     1.0000     0.0000
  9 H      0.9327     1.0000     0.0673     0.9976     0.9976     0.0000
 10 H      0.9314     1.0000     0.0686     0.9999     0.9999     0.0000
 11 H      0.9162     1.0000     0.0838     0.9987     0.9987     0.0000
 12 N      7.1736     7.0000    -0.1736     3.0320     3.0320     0.0000

  Mayer bond orders larger than 0.100000
B(  0-C ,  1-C ) :   1.2349 B(  0-C ,  5-C ) :   1.2340 B(  0-C ,  6-C ) :   0.9080 
B(  1-C ,  2-C ) :   1.3317 B(  1-C ,  7-H ) :   0.9574 B(  2-C ,  3-C ) :   1.3168 
B(  2-C ,  8-H ) :   0.9664 B(  3-C ,  4-C ) :   1.3175 B(  3-C ,  9-H ) :   0.9652 
B(  4-C ,  5-C ) :   1.3324 B(  4-C , 10-H ) :   0.9666 B(  5-C , 11-H ) :   0.9573 
B(  6-C , 12-N ) :   2.9327 

-------
TIMINGS
-------

Total SCF time: 0 days 0 hours 51 min 44 sec 

Total time                  ....    3104.269 sec
Sum of individual times     ....    3030.900 sec  ( 97.6%)

Fock matrix formation       ....    2974.023 sec  ( 95.8%)
  Split-RI-J                ....     185.184 sec  (  6.2% of F)
  Chain of spheres X        ....    2431.011 sec  ( 81.7% of F)
  XC integration            ....     319.039 sec  ( 10.7% of F)
    Basis function eval.    ....      55.785 sec  ( 17.5% of XC)
    Density eval.           ....     104.183 sec  ( 32.7% of XC)
    XC-Functional eval.     ....       3.614 sec  (  1.1% of XC)
    XC-Potential eval.      ....     115.789 sec  ( 36.3% of XC)
Diagonalization             ....       3.904 sec  (  0.1%)
Density matrix formation    ....       0.380 sec  (  0.0%)
Population analysis         ....       0.619 sec  (  0.0%)
Initial guess               ....      18.396 sec  (  0.6%)
Orbital Transformation      ....       0.000 sec  (  0.0%)
Orbital Orthonormalization  ....       0.000 sec  (  0.0%)
DIIS solution               ....       1.777 sec  (  0.1%)
SOSCF solution              ....       2.381 sec  (  0.1%)
Grid generation             ....      29.420 sec  (  0.9%)

Maximum memory used throughout the entire SCF-calculation: 640.3 MB

-------------------------   --------------------
FINAL SINGLE POINT ENERGY      -324.435659175667
-------------------------   --------------------


                            ***************************************
                            *     ORCA property calculations      *
                            ***************************************

                                    ---------------------
                                    Active property flags
                                    ---------------------
   (+) Dipole Moment


------------------------------------------------------------------------------
                       ORCA ELECTRIC PROPERTIES CALCULATION
------------------------------------------------------------------------------

Dipole Moment Calculation                       ... on
Quadrupole Moment Calculation                   ... off
Polarizability Calculation                      ... off
GBWName                                         ... neutral.gbw
Electron density                                ... neutral.scfp
The origin for moment calculation is the CENTER OF MASS  = (-12.250812,  0.842082 -0.000011)

-------------
DIPOLE MOMENT
-------------
                                X             Y             Z
Electronic contribution:      1.02813       4.30891      -0.00007
Nuclear contribution   :     -1.46091      -6.11812       0.00009
                        -----------------------------------------
Total Dipole Moment    :     -0.43278      -1.80921       0.00002
                        -----------------------------------------
Magnitude (a.u.)       :      1.86025
Magnitude (Debye)      :      4.72839



--------------------
Rotational spectrum 
--------------------
 
Rotational constants in cm-1:     0.187863     0.051251     0.040266 
Rotational constants in MHz :  5631.980927  1536.463194  1207.142200 

 Dipole components along the rotational axes: 
x,y,z [a.u.] :    -1.860253    -0.000395    -0.000002 
x,y,z [Debye]:    -4.728387    -0.001003    -0.000006 

 

Timings for individual modules:

Sum of individual times         ...     3123.926 sec (=  52.065 min)
GTO integral calculation        ...       16.550 sec (=   0.276 min)   0.5 %
SCF iterations                  ...     3107.376 sec (=  51.790 min)  99.5 %
                             ****ORCA TERMINATED NORMALLY****
TOTAL RUN TIME: 0 days 0 hours 52 minutes 8 seconds 309 msec
