
                                 *****************
                                 * O   R   C   A *
                                 *****************

                                            #,                                       
                                            ###                                      
                                            ####                                     
                                            #####                                    
                                            ######                                   
                                           ########,                                 
                                     ,,################,,,,,                         
                               ,,#################################,,                 
                          ,,##########################################,,             
                       ,#########################################, ''#####,          
                    ,#############################################,,   '####,        
                  ,##################################################,,,,####,       
                ,###########''''           ''''###############################       
              ,#####''   ,,,,##########,,,,          '''####'''          '####       
            ,##' ,,,,###########################,,,                        '##       
           ' ,,###''''                  '''############,,,                           
         ,,##''                                '''############,,,,        ,,,,,,###''
      ,#''                                            '''#######################'''  
     '                                                          ''''####''''         
             ,#######,   #######,   ,#######,      ##                                
            ,#'     '#,  ##    ##  ,#'     '#,    #''#        ######   ,####,        
            ##       ##  ##   ,#'  ##            #'  '#       #        #'  '#        
            ##       ##  #######   ##           ,######,      #####,   #    #        
            '#,     ,#'  ##    ##  '#,     ,#' ,#      #,         ##   #,  ,#        
             '#######'   ##     ##  '#######'  #'      '#     #####' # '####'        



                  #######################################################
                  #                        -***-                        #
                  #          Department of theory and spectroscopy      #
                  #    Directorship and core code : Frank Neese         #
                  #        Max Planck Institute fuer Kohlenforschung    #
                  #                Kaiser Wilhelm Platz 1               #
                  #                 D-45470 Muelheim/Ruhr               #
                  #                      Germany                        #
                  #                                                     #
                  #                  All rights reserved                #
                  #                        -***-                        #
                  #######################################################



                         Program Version 5.0.4 -  RELEASE  -

 With contributions from (in alphabetic order):
   Daniel Aravena         : Magnetic Suceptibility
   Michael Atanasov       : Ab Initio Ligand Field Theory (pilot matlab implementation)
   Alexander A. Auer      : GIAO ZORA, VPT2 properties, NMR spectrum
   Ute Becker             : Parallelization
   Giovanni Bistoni       : ED, misc. LED, open-shell LED, HFLD
   Martin Brehm           : Molecular dynamics
   Dmytro Bykov           : SCF Hessian
   Vijay G. Chilkuri      : MRCI spin determinant printing, contributions to CSF-ICE
   Dipayan Datta          : RHF DLPNO-CCSD density
   Achintya Kumar Dutta   : EOM-CC, STEOM-CC
   Dmitry Ganyushin       : Spin-Orbit,Spin-Spin,Magnetic field MRCI
   Miquel Garcia          : C-PCM and meta-GGA Hessian, CC/C-PCM, Gaussian charge scheme
   Yang Guo               : DLPNO-NEVPT2, F12-NEVPT2, CIM, IAO-localization
   Andreas Hansen         : Spin unrestricted coupled pair/coupled cluster methods
   Benjamin Helmich-Paris : MC-RPA, TRAH-SCF, COSX integrals
   Lee Huntington         : MR-EOM, pCC
   Robert Izsak           : Overlap fitted RIJCOSX, COSX-SCS-MP3, EOM
   Marcus Kettner         : VPT2
   Christian Kollmar      : KDIIS, OOCD, Brueckner-CCSD(T), CCSD density, CASPT2, CASPT2-K
   Simone Kossmann        : Meta GGA functionals, TD-DFT gradient, OOMP2, MP2 Hessian
   Martin Krupicka        : Initial AUTO-CI
   Lucas Lang             : DCDCAS
   Marvin Lechner         : AUTO-CI (C++ implementation), FIC-MRCC
   Dagmar Lenk            : GEPOL surface, SMD
   Dimitrios Liakos       : Extrapolation schemes; Compound Job, initial MDCI parallelization
   Dimitrios Manganas     : Further ROCIS development; embedding schemes
   Dimitrios Pantazis     : SARC Basis sets
   Anastasios Papadopoulos: AUTO-CI, single reference methods and gradients
   Taras Petrenko         : DFT Hessian,TD-DFT gradient, ASA, ECA, R-Raman, ABS, FL, XAS/XES, NRVS
   Peter Pinski           : DLPNO-MP2, DLPNO-MP2 Gradient
   Christoph Reimann      : Effective Core Potentials
   Marius Retegan         : Local ZFS, SOC
   Christoph Riplinger    : Optimizer, TS searches, QM/MM, DLPNO-CCSD(T), (RO)-DLPNO pert. Triples
   Tobias Risthaus        : Range-separated hybrids, TD-DFT gradient, RPA, STAB
   Michael Roemelt        : Original ROCIS implementation
   Masaaki Saitow         : Open-shell DLPNO-CCSD energy and density
   Barbara Sandhoefer     : DKH picture change effects
   Avijit Sen             : IP-ROCIS
   Kantharuban Sivalingam : CASSCF convergence, NEVPT2, FIC-MRCI
   Bernardo de Souza      : ESD, SOC TD-DFT
   Georgi Stoychev        : AutoAux, RI-MP2 NMR, DLPNO-MP2 response
   Willem Van den Heuvel  : Paramagnetic NMR
   Boris Wezisla          : Elementary symmetry handling
   Frank Wennmohs         : Technical directorship


 We gratefully acknowledge several colleagues who have allowed us to
 interface, adapt or use parts of their codes:
   Stefan Grimme, W. Hujo, H. Kruse, P. Pracht,  : VdW corrections, initial TS optimization,
                  C. Bannwarth, S. Ehlert          DFT functionals, gCP, sTDA/sTD-DF
   Ed Valeev, F. Pavosevic, A. Kumar             : LibInt (2-el integral package), F12 methods
   Garnet Chan, S. Sharma, J. Yang, R. Olivares  : DMRG
   Ulf Ekstrom                                   : XCFun DFT Library
   Mihaly Kallay                                 : mrcc  (arbitrary order and MRCC methods)
   Jiri Pittner, Ondrej Demel                    : Mk-CCSD
   Frank Weinhold                                : gennbo (NPA and NBO analysis)
   Christopher J. Cramer and Donald G. Truhlar   : smd solvation model
   Lars Goerigk                                  : TD-DFT with DH, B97 family of functionals
   V. Asgeirsson, H. Jonsson                     : NEB implementation
   FAccTs GmbH                                   : IRC, NEB, NEB-TS, DLPNO-Multilevel, CI-OPT
                                                   MM, QMMM, 2- and 3-layer-ONIOM, Crystal-QMMM,
                                                   LR-CPCM, SF, NACMEs, symmetry and pop. for TD-DFT,
                                                   nearIR, NL-DFT gradient (VV10), updates on ESD,
                                                   ML-optimized integration grids
   S Lehtola, MJT Oliveira, MAL Marques          : LibXC Library
   Liviu Ungur et al                             : ANISO software


 Your calculation uses the libint2 library for the computation of 2-el integrals
 For citations please refer to: http://libint.valeyev.net

 Your ORCA version has been built with support for libXC version: 5.1.0
 For citations please refer to: https://tddft.org/programs/libxc/

 This ORCA versions uses:
   CBLAS   interface :  Fast vector & matrix operations
   LAPACKE interface :  Fast linear algebra routines
   Shared memory     :  Shared parallel matrices


Your calculation utilizes the atom-pairwise dispersion correction
based on tight binding partial charges (D4)
Cite in your paper:
E.Caldeweyher, C.Bannwarth, S.Grimme, J.Chem.Phys., (2017), 147, 034112.
E.Caldeweyher, S.Ehlert, A.Hansen, H.Neugebauer, S.Grimme, J.Chem.Phys., (2018), in progress.
   

================================================================================

----- Orbital basis set information -----
Your calculation utilizes the basis: def2-SVP
   F. Weigend and R. Ahlrichs, Phys. Chem. Chem. Phys. 7, 3297 (2005).

----- AuxJ basis set information -----
Your calculation utilizes the auxiliary basis: def2/J
   F. Weigend, Phys. Chem. Chem. Phys. 8, 1057 (2006).

================================================================================
                                        WARNINGS
                       Please study these warnings very carefully!
================================================================================


WARNING: Geometry Optimization
  ===> : Switching off AutoStart
         For restart on a previous wavefunction, please use MOREAD

INFO   : the flag for use of the SHARK integral package has been found!

================================================================================
                                       INPUT FILE
================================================================================
NAME = opt4.inp
|  1> !B3LYP DEF2-SVP OPT FREQ D4 SOSCF
|  2> 
|  3> %geom
|  4> maxIter 1000
|  5> end
|  6> 
|  7> * xyz 1 1
|  8>   C   -2.77404408552893      1.40823556784416     -1.58275628446142
|  9>   C   -3.68855652445609      0.41776590453195     -2.08276638275092
| 10>   C   -3.62615900420557     -0.89104712097454     -1.65458310844457
| 11>   C   -2.65634756712453     -1.28458588381131     -0.70995412031480
| 12>   C   -1.74545952669431     -0.34282093184706     -0.19907327751600
| 13>   C   -1.79282896958412      0.97448024254364     -0.61715365721693
| 14>   H   -4.43747948743864      0.73047365645836     -2.81429452769826
| 15>   H   -4.33199953464792     -1.62462722945195     -2.04967205089044
| 16>   H   -2.60685270746279     -2.32104708899314     -0.37019884656790
| 17>   H   -0.98752211234996     -0.62565467114379      0.53216726991758
| 18>   H   11.66643897151902     -3.07992257232304     21.41135824804946
| 19>   N   -2.85695286923176      2.66503386183143     -2.01389611809195
| 20>   H   -3.56117447418632      2.93499407260808     -2.69449783158074
| 21>   H   -2.18700398248919      3.34324348912682     -1.63481472327729
| 22>   N   -0.80890457732437      1.91024386415495     -0.04158245900012
| 23>   O   -0.84945882420661      3.08195005368059     -0.41529187674666
| 24>   O   -0.02021472458784      1.47040478576483      0.76363974659097
| 25> **                         ****END OF INPUT****
================================================================================

                       *****************************
                       * Geometry Optimization Run *
                       *****************************

Geometry optimization settings:
Update method            Update   .... BFGS
Choice of coordinates    CoordSys .... Z-matrix Internals
Initial Hessian          InHess   .... Almoef's Model

Convergence Tolerances:
Energy Change            TolE     ....  5.0000e-06 Eh
Max. Gradient            TolMAXG  ....  3.0000e-04 Eh/bohr
RMS Gradient             TolRMSG  ....  1.0000e-04 Eh/bohr
Max. Displacement        TolMAXD  ....  4.0000e-03 bohr
RMS Displacement         TolRMSD  ....  2.0000e-03 bohr
Strict Convergence                ....  False
------------------------------------------------------------------------------
                        ORCA OPTIMIZATION COORDINATE SETUP
------------------------------------------------------------------------------

The optimization will be done in new redundant internal coordinates
Making redundant internal coordinates   ...  (new redundants) done
Evaluating the initial hessian          ...  (Almloef) done
Evaluating the coordinates              ...  done
Calculating the B-matrix                .... done
Calculating the G-matrix                .... done
Diagonalizing the G-matrix              .... done
Small eigenvalue found = 1.416e-02
Small eigenvalue found = 2.122e-02
The first mode is                       ....   38
The number of degrees of freedom        ....   45

    -----------------------------------------------------------------
                    Redundant Internal Coordinates


    -----------------------------------------------------------------
         Definition                    Initial Value    Approx d2E/dq
    -----------------------------------------------------------------
      1. B(C   1,C   0)                  1.4378         0.524106   
      2. B(C   2,C   1)                  1.3785         0.651789   
      3. B(C   3,C   2)                  1.4099         0.580816   
      4. B(C   4,C   3)                  1.4063         0.588514   
      5. B(C   5,C   4)                  1.3829         0.641388   
      6. B(C   5,C   0)                  1.4434         0.513560   
      7. B(H   6,C   1)                  1.0926         0.356659   
      8. B(H   7,C   2)                  1.0920         0.357475   
      9. B(H   8,C   3)                  1.0918         0.357662   
     10. B(H   9,C   4)                  1.0905         0.359447   
     11. B(H  10,H   9)                 24.5375         0.000000   
     12. B(N  11,C   0)                  1.3313         0.694328   
     13. B(H  12,N  11)                  1.0159         0.423451   
     14. B(H  13,N  11)                  1.0259         0.408134   
     15. B(N  14,C   5)                  1.4748         0.409806   
     16. B(O  15,N  14)                  1.2305         0.900409   
     17. B(O  16,H  10)                 24.1581         0.000000   
     18. B(O  16,N  14)                  1.2099         0.971271   
     19. A(C   1,C   0,C   5)          117.2588         0.407325   
     20. A(C   5,C   0,N  11)          122.8674         0.425457   
     21. A(C   1,C   0,N  11)          119.8738         0.427008   
     22. A(C   0,C   1,C   2)          121.1470         0.424970   
     23. A(C   2,C   1,H   6)          120.7123         0.355333   
     24. A(C   0,C   1,H   6)          118.1407         0.342509   
     25. A(C   3,C   2,H   7)          119.9686         0.348608   
     26. A(C   1,C   2,C   3)          120.2834         0.432874   
     27. A(C   1,C   2,H   7)          119.7479         0.355471   
     28. A(C   2,C   3,C   4)          120.1343         0.425017   
     29. A(C   2,C   3,H   8)          120.3077         0.348638   
     30. A(C   4,C   3,H   8)          119.5580         0.349413   
     31. A(C   5,C   4,H   9)          118.2685         0.354833   
     32. A(C   3,C   4,C   5)          120.3920         0.432647   
     33. A(C   3,C   4,H   9)          121.3395         0.349707   
     34. A(C   0,C   5,C   4)          120.7845         0.422213   
     35. A(C   4,C   5,N  14)          117.6180         0.403014   
     36. A(C   0,C   5,N  14)          121.5975         0.387608   
     37. A(C   4,H   9,H  10)          162.7385         0.089000   
     38. A(H   9,H  10,O  16)            5.3883         0.089000   
     39. A(H  12,N  11,H  13)          121.6388         0.299408   
     40. A(C   0,N  11,H  13)          117.6299         0.362032   
     41. A(C   0,N  11,H  12)          120.7313         0.364318   
     42. A(O  15,N  14,O  16)          124.7332         0.490982   
     43. A(C   5,N  14,O  16)          117.6433         0.428227   
     44. A(C   5,N  14,O  15)          117.6235         0.422460   
     45. A(H  10,O  16,N  14)          162.2951         0.089000   
     46. D(C   2,C   1,C   0,C   5)     -0.0224         0.018739   
     47. D(C   2,C   1,C   0,N  11)    179.9899         0.018739   
     48. D(H   6,C   1,C   0,C   5)    179.9906         0.018739   
     49. D(H   6,C   1,C   0,N  11)      0.0030         0.018739   
     50. D(C   3,C   2,C   1,H   6)   -179.9788         0.029591   
     51. D(H   7,C   2,C   1,C   0)   -179.9853         0.029591   
     52. D(C   3,C   2,C   1,C   0)      0.0345         0.029591   
     53. D(H   7,C   2,C   1,H   6)      0.0013         0.029591   
     54. D(H   8,C   3,C   2,H   7)     -0.0073         0.023180   
     55. D(H   8,C   3,C   2,C   1)    179.9728         0.023180   
     56. D(C   4,C   3,C   2,H   7)    179.9863         0.023180   
     57. D(C   4,C   3,C   2,C   1)     -0.0336         0.023180   
     58. D(H   9,C   4,C   3,C   2)    179.9963         0.023829   
     59. D(C   5,C   4,C   3,H   8)   -179.9853         0.023829   
     60. D(C   5,C   4,C   3,C   2)      0.0211         0.023829   
     61. D(H   9,C   4,C   3,H   8)     -0.0101         0.023829   
     62. D(N  14,C   5,C   4,H   9)      0.0121         0.028590   
     63. D(C   0,C   5,C   4,H   9)   -179.9856         0.028590   
     64. D(C   0,C   5,C   4,C   3)     -0.0096         0.028590   
     65. D(N  14,C   5,C   0,N  11)     -0.0004         0.017978   
     66. D(N  14,C   5,C   0,C   1)   -179.9876         0.017978   
     67. D(N  14,C   5,C   4,C   3)    179.9880         0.028590   
     68. D(C   4,C   5,C   0,N  11)    179.9971         0.017978   
     69. D(C   4,C   5,C   0,C   1)      0.0099         0.017978   
     70. D(H  10,H   9,C   4,C   5)     71.6969         0.109146   
     71. D(H  10,H   9,C   4,C   3)   -108.2788         0.109146   
     72. D(O  16,H  10,H   9,C   4)    -74.4587         0.001500   
     73. D(H  13,N  11,C   0,C   5)      0.0500         0.039830   
     74. D(H  13,N  11,C   0,C   1)   -179.9631         0.039830   
     75. D(H  12,N  11,C   0,C   5)   -179.9723         0.039830   
     76. D(H  12,N  11,C   0,C   1)      0.0146         0.039830   
     77. D(O  16,N  14,C   5,C   4)     -0.1148         0.013248   
     78. D(O  16,N  14,C   5,C   0)    179.8828         0.013248   
     79. D(O  15,N  14,C   5,C   4)    179.8756         0.013248   
     80. D(O  15,N  14,C   5,C   0)     -0.1268         0.013248   
     81. D(H  10,O  16,N  14,O  15)     69.4072         0.091252   
     82. D(H  10,O  16,N  14,C   5)   -110.6032         0.091252   
     83. D(N  14,O  16,H  10,H   9)    109.6399         0.001500   
    -----------------------------------------------------------------

Number of atoms                         .... 17
Number of degrees of freedom            .... 83

         *************************************************************
         *                GEOMETRY OPTIMIZATION CYCLE   1            *
         *************************************************************
---------------------------------
CARTESIAN COORDINATES (ANGSTROEM)
---------------------------------
  C     -2.774044    1.408236   -1.582756
  C     -3.688557    0.417766   -2.082766
  C     -3.626159   -0.891047   -1.654583
  C     -2.656348   -1.284586   -0.709954
  C     -1.745460   -0.342821   -0.199073
  C     -1.792829    0.974480   -0.617154
  H     -4.437479    0.730474   -2.814295
  H     -4.332000   -1.624627   -2.049672
  H     -2.606853   -2.321047   -0.370199
  H     -0.987522   -0.625655    0.532167
  H     11.666439   -3.079923   21.411358
  N     -2.856953    2.665034   -2.013896
  H     -3.561174    2.934994   -2.694498
  H     -2.187004    3.343243   -1.634815
  N     -0.808905    1.910244   -0.041582
  O     -0.849459    3.081950   -0.415292
  O     -0.020215    1.470405    0.763640

----------------------------
CARTESIAN COORDINATES (A.U.)
----------------------------
  NO LB      ZA    FRAG     MASS         X           Y           Z
   0 C     6.0000    0    12.011   -5.242184    2.661180   -2.990976
   1 C     6.0000    0    12.011   -6.970362    0.789463   -3.935858
   2 C     6.0000    0    12.011   -6.852447   -1.683835   -3.126709
   3 C     6.0000    0    12.011   -5.019769   -2.427516   -1.341619
   4 C     6.0000    0    12.011   -3.298440   -0.647838   -0.376194
   5 C     6.0000    0    12.011   -3.387956    1.841501   -1.166251
   6 H     1.0000    0     1.008   -8.385621    1.380395   -5.318246
   7 H     1.0000    0     1.008   -8.186293   -3.070101   -3.873319
   8 H     1.0000    0     1.008   -4.926238   -4.386143   -0.699574
   9 H     1.0000    0     1.008   -1.866146   -1.182316    1.005650
  10 H     1.0000    0     1.008   22.046375   -5.820210   40.461603
  11 N     7.0000    0    14.007   -5.398859    5.036184   -3.805712
  12 H     1.0000    0     1.008   -6.729644    5.546335   -5.091863
  13 H     1.0000    0     1.008   -4.132839    6.317815   -3.089352
  14 N     7.0000    0    14.007   -1.528608    3.609838   -0.078579
  15 O     8.0000    0    15.999   -1.605245    5.824042   -0.784788
  16 O     8.0000    0    15.999   -0.038200    2.778662    1.443070

--------------------------------
INTERNAL COORDINATES (ANGSTROEM)
--------------------------------
 C      0   0   0     0.000000000000     0.00000000     0.00000000
 C      1   0   0     1.437836309628     0.00000000     0.00000000
 C      2   1   0     1.378486816282   121.14698639     0.00000000
 C      3   2   1     1.409869109727   120.28342238     0.03454040
 C      4   3   2     1.406284993337   120.13431991   359.96638251
 C      5   4   3     1.382865666673   120.39197517     0.00000000
 H      2   1   3     1.092613916005   118.14067545   180.01303645
 H      3   2   1     1.091991713527   119.74794903   180.01468857
 H      4   3   2     1.091849447964   120.30771483   179.97282099
 H      5   4   3     1.090493826832   121.33953703   179.99630899
 H     10   5   4    24.537456631528   162.73845210   251.72124287
 N      1   2   3     1.331276595726   119.87379596   179.98991436
 H     12   1   2     1.015886448719   120.73127976     0.00000000
 H     12   1   2     1.025915451340   117.62991173   180.03691249
 N      6   5   4     1.474802688305   117.61802642   179.98799266
 O     15   6   5     1.230527842198   117.62345442   179.87556815
 O     15   6   5     1.209906152999   117.64332938   359.88518011

---------------------------
INTERNAL COORDINATES (A.U.)
---------------------------
 C      0   0   0     0.000000000000     0.00000000     0.00000000
 C      1   0   0     2.717116850606     0.00000000     0.00000000
 C      2   1   0     2.604962561995   121.14698639     0.00000000
 C      3   2   1     2.664266502060   120.28342238     0.03454040
 C      4   3   2     2.657493503651   120.13431991   359.96638251
 C      5   4   3     2.613237390014   120.39197517     0.00000000
 H      2   1   3     2.064741071360   118.14067545   180.01303645
 H      3   2   1     2.063565279078   119.74794903   180.01468857
 H      4   3   2     2.063296436125   120.30771483   179.97282099
 H      5   4   3     2.060734683444   121.33953703   179.99630899
 H     10   5   4    46.369073056558   162.73845210   251.72124287
 N      1   2   3     2.515748174421   119.87379596   179.98991436
 H     12   1   2     1.919747171241   120.73127976     0.00000000
 H     12   1   2     1.938699239591   117.62991173   180.03691249
 N      6   5   4     2.786973182467   117.61802642   179.98799266
 O     15   6   5     2.325360621920   117.62345442   179.87556815
 O     15   6   5     2.286391276915   117.64332938   359.88518011

---------------------
BASIS SET INFORMATION
---------------------
There are 4 groups of distinct atoms

 Group   1 Type C   : 7s4p1d contracted to 3s2p1d pattern {511/31/1}
 Group   2 Type H   : 4s1p contracted to 2s1p pattern {31/1}
 Group   3 Type N   : 7s4p1d contracted to 3s2p1d pattern {511/31/1}
 Group   4 Type O   : 7s4p1d contracted to 3s2p1d pattern {511/31/1}

Atom   0C    basis set group =>   1
Atom   1C    basis set group =>   1
Atom   2C    basis set group =>   1
Atom   3C    basis set group =>   1
Atom   4C    basis set group =>   1
Atom   5C    basis set group =>   1
Atom   6H    basis set group =>   2
Atom   7H    basis set group =>   2
Atom   8H    basis set group =>   2
Atom   9H    basis set group =>   2
Atom  10H    basis set group =>   2
Atom  11N    basis set group =>   3
Atom  12H    basis set group =>   2
Atom  13H    basis set group =>   2
Atom  14N    basis set group =>   3
Atom  15O    basis set group =>   4
Atom  16O    basis set group =>   4
---------------------------------
AUXILIARY/J BASIS SET INFORMATION
---------------------------------
There are 4 groups of distinct atoms

 Group   1 Type C   : 12s5p4d2f1g contracted to 6s4p3d1f1g pattern {711111/2111/211/2/1}
 Group   2 Type H   : 5s2p1d contracted to 3s1p1d pattern {311/2/1}
 Group   3 Type N   : 12s5p4d2f1g contracted to 6s4p3d1f1g pattern {711111/2111/211/2/1}
 Group   4 Type O   : 12s5p4d2f1g contracted to 6s4p3d1f1g pattern {711111/2111/211/2/1}

Atom   0C    basis set group =>   1
Atom   1C    basis set group =>   1
Atom   2C    basis set group =>   1
Atom   3C    basis set group =>   1
Atom   4C    basis set group =>   1
Atom   5C    basis set group =>   1
Atom   6H    basis set group =>   2
Atom   7H    basis set group =>   2
Atom   8H    basis set group =>   2
Atom   9H    basis set group =>   2
Atom  10H    basis set group =>   2
Atom  11N    basis set group =>   3
Atom  12H    basis set group =>   2
Atom  13H    basis set group =>   2
Atom  14N    basis set group =>   3
Atom  15O    basis set group =>   4
Atom  16O    basis set group =>   4
------------------------------------------------------------------------------
                           ORCA GTO INTEGRAL CALCULATION
                           -- RI-GTO INTEGRALS CHOSEN --
------------------------------------------------------------------------------
------------------------------------------------------------------------------
                   ___                                                        
                  /   \      - P O W E R E D   B Y -                         
                 /     \                                                     
                 |  |  |   _    _      __       _____    __    __             
                 |  |  |  | |  | |    /  \     |  _  \  |  |  /  |          
                  \  \/   | |  | |   /    \    | | | |  |  | /  /          
                 / \  \   | |__| |  /  /\  \   | |_| |  |  |/  /          
                |  |  |   |  __  | /  /__\  \  |    /   |      \           
                |  |  |   | |  | | |   __   |  |    \   |  |\   \          
                \     /   | |  | | |  |  |  |  | |\  \  |  | \   \       
                 \___/    |_|  |_| |__|  |__|  |_| \__\ |__|  \__/        
                                                                              
                      - O R C A' S   B I G   F R I E N D -                    
                                      &                                       
                       - I N T E G R A L  F E E D E R -                       
                                                                              
 v1 FN, 2020, v2 2021                                                         
------------------------------------------------------------------------------


Reading SHARK input file opt4.SHARKINP.tmp ... ok
----------------------
SHARK INTEGRAL PACKAGE
----------------------

Number of atoms                             ...     17
Number of basis functions                   ...    175
Number of shells                            ...     81
Maximum angular momentum                    ...      2
Integral batch strategy                     ... SHARK/LIBINT Hybrid
RI-J (if used) integral strategy            ... SPLIT-RIJ (Revised 2003 algorithm where possible)
Printlevel                                  ...      1
Contraction scheme used                     ... SEGMENTED contraction
Coulomb Range Separation                    ... NOT USED
Exchange Range Separation                   ... NOT USED
Finite Nucleus Model                        ... NOT USED
Auxiliary Coulomb fitting basis             ... AVAILABLE
   # of basis functions in Aux-J            ...    567
   # of shells in Aux-J                     ...    185
   Maximum angular momentum in Aux-J        ...      4
Auxiliary J/K fitting basis                 ... NOT available
Auxiliary Correlation fitting basis         ... NOT available
Auxiliary 'external' fitting basis          ... NOT available
Integral threshold                          ...     2.500000e-11
Primitive cut-off                           ...     2.500000e-12
Primitive pair pre-selection threshold      ...     2.500000e-12

Calculating pre-screening integrals         ... done (  0.1 sec) Dimension = 81
Organizing shell pair data                  ... done (  0.1 sec)
Shell pair information
Total number of shell pairs                 ...      3321
Shell pairs after pre-screening             ...      2849
Total number of primitive shell pairs       ...     12241
Primitive shell pairs kept                  ...      7591
          la=0 lb=0:    830 shell pairs
          la=1 lb=0:   1016 shell pairs
          la=1 lb=1:    333 shell pairs
          la=2 lb=0:    379 shell pairs
          la=2 lb=1:    240 shell pairs
          la=2 lb=2:     51 shell pairs

Calculating one electron integrals          ... done (  0.0 sec)
Calculating RI/J V-Matrix + Cholesky decomp.... done (  0.0 sec)
Calculating Nuclear repulsion               ... done (  0.0 sec) ENN=    509.630254204114 Eh

SHARK setup successfully completed in   0.4 seconds

Maximum memory used throughout the entire GTOINT-calculation: 24.4 MB
-------------------------------------------------------------------------------
                                 ORCA SCF
-------------------------------------------------------------------------------

------------
SCF SETTINGS
------------
Hamiltonian:
 Density Functional     Method          .... DFT(GTOs)
 Exchange Functional    Exchange        .... B88
   X-Alpha parameter    XAlpha          ....  0.666667
   Becke's b parameter  XBeta           ....  0.004200
 Correlation Functional Correlation     .... LYP
 LDA part of GGA corr.  LDAOpt          .... VWN-5
 Gradients option       PostSCFGGA      .... off
 Hybrid DFT is turned on
   Fraction HF Exchange ScalHFX         ....  0.200000
   Scaling of DF-GGA-X  ScalDFX         ....  0.720000
   Scaling of DF-GGA-C  ScalDFC         ....  0.810000
   Scaling of DF-LDA-C  ScalLDAC        ....  1.000000
   Perturbative correction              ....  0.000000
   Density functional embedding theory  .... OFF
   NL short-range parameter             ....  4.800000
 RI-approximation to the Coulomb term is turned on
   Number of AuxJ basis functions       .... 567
   RIJ-COSX (HFX calculated with COS-X)).... on


General Settings:
 Integral files         IntName         .... opt4
 Hartree-Fock type      HFTyp           .... RHF
 Total Charge           Charge          ....    1
 Multiplicity           Mult            ....    1
 Number of Electrons    NEL             ....   72
 Basis Dimension        Dim             ....  175
 Nuclear Repulsion      ENuc            ....    509.6302542041 Eh

Convergence Acceleration:
 DIIS                   CNVDIIS         .... on
   Start iteration      DIISMaxIt       ....    12
   Startup error        DIISStart       ....  0.200000
   # of expansion vecs  DIISMaxEq       ....     5
   Bias factor          DIISBfac        ....   1.050
   Max. coefficient     DIISMaxC        ....  10.000
 Trust-Rad. Augm. Hess. CNVTRAH         .... auto
   Auto Start mean grad. ratio tolernc. ....  1.125000
   Auto Start start iteration           ....    20
   Auto Start num. interpolation iter.  ....    10
   Max. Number of Micro iterations      ....    16
   Max. Number of Macro iterations      .... Maxiter - #DIIS iter
   Number of Davidson start vectors     ....     2
   Converg. threshold I  (grad. norm)   ....   1.000e-05
   Converg. threshold II (energy diff.) ....   1.000e-08
   Grad. Scal. Fac. for Micro threshold ....   0.100
   Minimum threshold for Micro iter.    ....   0.010
   NR start threshold (gradient norm)   ....   0.001
   Initial trust radius                 ....   0.400
   Minimum AH scaling param. (alpha)    ....   1.000
   Maximum AH scaling param. (alpha)    .... 1000.000
   Orbital update algorithm             .... Taylor
   White noise on init. David. guess    .... on
   Maximum white noise                  ....   0.010
   Quad. conv. algorithm                .... NR
 SOSCF                  CNVSOSCF        .... on
   Start iteration      SOSCFMaxIt      ....   150
   Startup grad/error   SOSCFStart      ....  0.003300
 Level Shifting         CNVShift        .... on
   Level shift para.    LevelShift      ....    0.2500
   Turn off err/grad.   ShiftErr        ....    0.0010
 Zerner damping         CNVZerner       .... off
 Static damping         CNVDamp         .... on
   Fraction old density DampFac         ....    0.7000
   Max. Damping (<1)    DampMax         ....    0.9800
   Min. Damping (>=0)   DampMin         ....    0.0000
   Turn off err/grad.   DampErr         ....    0.1000
 Fernandez-Rico         CNVRico         .... off

SCF Procedure:
 Maximum # iterations   MaxIter         ....   125
 SCF integral mode      SCFMode         .... Direct
   Integral package                     .... SHARK and LIBINT hybrid scheme
 Reset frequency        DirectResetFreq ....    20
 Integral Threshold     Thresh          ....  2.500e-11 Eh
 Primitive CutOff       TCut            ....  2.500e-12 Eh

Convergence Tolerance:
 Convergence Check Mode ConvCheckMode   .... Total+1el-Energy
 Convergence forced     ConvForced      .... 0
 Energy Change          TolE            ....  1.000e-08 Eh
 1-El. energy change                    ....  1.000e-05 Eh
 Orbital Gradient       TolG            ....  1.000e-05
 Orbital Rotation angle TolX            ....  1.000e-05
 DIIS Error             TolErr          ....  5.000e-07


Diagonalization of the overlap matrix:
Smallest eigenvalue                        ... 2.260e-04
Time for diagonalization                   ...    0.010 sec
Threshold for overlap eigenvalues          ... 1.000e-08
Number of eigenvalues below threshold      ... 0
Time for construction of square roots      ...    0.005 sec
Total time needed                          ...    0.015 sec

Time for model grid setup =    0.425 sec

------------------------------
INITIAL GUESS: MODEL POTENTIAL
------------------------------
Loading Hartree-Fock densities                     ... done
Calculating cut-offs                               ... done
Initializing the effective Hamiltonian             ... done
Setting up the integral package (SHARK)            ... done
Starting the Coulomb interaction                   ... done (   1.0 sec)
Reading the grid                                   ... done
Mapping shells                                     ... done
Starting the XC term evaluation                    ... done (   1.1 sec)
  promolecular density results
     # of electrons  =     72.996122351
     EX              =    -62.440294875
     EC              =     -2.508595503
     EX+EC           =    -64.948890377
Transforming the Hamiltonian                       ... done (   0.0 sec)
Diagonalizing the Hamiltonian                      ... done (   0.0 sec)
Back transforming the eigenvectors                 ... done (   0.0 sec)
Now organizing SCF variables                       ... done
                      ------------------
                      INITIAL GUESS DONE (   2.5 sec)
                      ------------------
-------------------
DFT GRID GENERATION
-------------------

General Integration Accuracy     IntAcc      ... 4.388
Radial Grid Type                 RadialGrid  ... OptM3 with GC (2021)
Angular Grid (max. ang.)         AngularGrid ... 4 (Lebedev-302)
Angular grid pruning method      GridPruning ... 4 (adaptive)
Weight generation scheme         WeightScheme... Becke
Basis function cutoff            BFCut       ... 1.0000e-11
Integration weight cutoff        WCut        ... 1.0000e-14
Angular grids for H and He will be reduced by one unit
Partially contracted basis set               ... off
Rotationally invariant grid construction     ... off

Total number of grid points                  ...    83015
Total number of batches                      ...     1306
Average number of points per batch           ...       63
Average number of grid points per atom       ...     4883
Time for grid setup =    3.804 sec

--------------------
COSX GRID GENERATION
--------------------

GRIDX 1
-------
General Integration Accuracy     IntAcc      ... 3.816
Radial Grid Type                 RadialGrid  ... OptM3 with GC (2021)
Angular Grid (max. ang.)         AngularGrid ... 1 (Lebedev-50)
Angular grid pruning method      GridPruning ... 4 (adaptive)
Weight generation scheme         WeightScheme... Becke
Basis function cutoff            BFCut       ... 1.0000e-11
Integration weight cutoff        WCut        ... 1.0000e-14
Angular grids for H and He will be reduced by one unit
Partially contracted basis set               ... on
Rotationally invariant grid construction     ... off

Total number of grid points                  ...    10600
Total number of batches                      ...      173
Average number of points per batch           ...       61
Average number of grid points per atom       ...      624
UseSFitting                                  ... on

GRIDX 2
-------
General Integration Accuracy     IntAcc      ... 4.020
Radial Grid Type                 RadialGrid  ... OptM3 with GC (2021)
Angular Grid (max. ang.)         AngularGrid ... 2 (Lebedev-110)
Angular grid pruning method      GridPruning ... 4 (adaptive)
Weight generation scheme         WeightScheme... Becke
Basis function cutoff            BFCut       ... 1.0000e-11
Integration weight cutoff        WCut        ... 1.0000e-14
Angular grids for H and He will be reduced by one unit
Partially contracted basis set               ... on
Rotationally invariant grid construction     ... off

Total number of grid points                  ...    23473
Total number of batches                      ...      375
Average number of points per batch           ...       62
Average number of grid points per atom       ...     1381
UseSFitting                                  ... on

GRIDX 3
-------
General Integration Accuracy     IntAcc      ... 4.338
Radial Grid Type                 RadialGrid  ... OptM3 with GC (2021)
Angular Grid (max. ang.)         AngularGrid ... 3 (Lebedev-194)
Angular grid pruning method      GridPruning ... 4 (adaptive)
Weight generation scheme         WeightScheme... Becke
Basis function cutoff            BFCut       ... 1.0000e-11
Integration weight cutoff        WCut        ... 1.0000e-14
Angular grids for H and He will be reduced by one unit
Partially contracted basis set               ... on
Rotationally invariant grid construction     ... off

Total number of grid points                  ...    51634
Total number of batches                      ...      816
Average number of points per batch           ...       63
Average number of grid points per atom       ...     3037
UseSFitting                                  ... on

Time for X-Grid setup             =    3.202 sec

--------------
SCF ITERATIONS
--------------
ITER       Energy         Delta-E        Max-DP      RMS-DP      [F,P]     Damp
               ***  Starting incremental Fock matrix formation  ***
  0   -491.1938686107   0.000000000000 0.20729199  0.00381381  0.2224238 0.7000
  1   -491.4998849898  -0.306016379037 0.15058971  0.00241873  0.0779350 0.7000
                               ***Turning on DIIS***
  2   -491.5124304176  -0.012545427815 0.38001737  0.00507595  0.0360858 0.0000
  3   -491.1066344034   0.405796014179 0.01677046  0.00027487  0.2005495 0.7000
  4   -491.1164987850  -0.009864381629 0.19444739  0.00245557  0.1927608 0.7000
  5   -491.4940208483  -0.377522063241 0.45371058  0.00574478  0.0538271 0.0000
  6   -491.4470364725   0.046984375737 0.01561041  0.00047698  0.0822519 0.0000
  7   -491.4587897480  -0.011753275495 0.01755598  0.00054878  0.0658867 0.0000
  8   -491.4626168014  -0.003827053374 0.00767779  0.00019780  0.0565439 0.0000
  9   -491.4635152943  -0.000898492927 0.00131829  0.00006683  0.0565275 0.0000
 10   -491.4642492259  -0.000733931614 0.69097356  0.00840341  0.0567735 0.0000
 11   -490.9912909799   0.472958246045 0.04362638  0.00045822  0.2628585 0.7000
 12   -491.0171133248  -0.025822344929 0.04398674  0.00047368  0.2425168 0.7000
 13   -491.0412659625  -0.024152637716 0.03616374  0.00039017  0.2216060 0.7000
 14   -491.0599709738  -0.018705011221 0.02809971  0.00030367  0.2045138 0.7000
 15   -491.0740278165  -0.014056842686 0.19582559  0.00279730  0.1912877 0.7000
 16   -491.4776508970  -0.403623080548 0.45692638  0.00599850  0.0530272 0.0000
 17   -491.4014704093   0.076180487677 0.00981668  0.00035121  0.1144617 0.7000
 18   -491.4146023350  -0.013131925697 0.00983307  0.00039098  0.1002689 0.7000
 19   -491.4272490935  -0.012646758521 0.02704557  0.00113914  0.0877807 0.0000
               *** Restarting incremental Fock matrix formation ***
                                   *** Resetting DIIS ***
 20   -491.4568922250  -0.029643131472 0.69097357  0.00868921  0.0696037 0.0000

 WARNING: the maximum gradient error descreased on average only by a factor   1.1
          during the last 20 iterations

                      *** Initiating the TRAH-SCF procedure ***


TRAH GRIDX
----------

General Integration Accuracy     IntAcc      ... 3.067
Radial Grid Type                 RadialGrid  ... OptM3 with GC (2021)
Angular Grid (max. ang.)         AngularGrid ... 1 (Lebedev-50)
Angular grid pruning method      GridPruning ... 4 (adaptive)
Weight generation scheme         WeightScheme... Becke
Basis function cutoff            BFCut       ... 1.0000e-11
Integration weight cutoff        WCut        ... 1.0000e-14
Angular grids for H and He will be reduced by one unit
Partially contracted basis set               ... on
Rotationally invariant grid construction     ... off

Total number of grid points                  ...     5624
Total number of batches                      ...      100
Average number of points per batch           ...       56
Average number of grid points per atom       ...      331


TRAH GRID
---------

General Integration Accuracy     IntAcc      ... 3.467
Radial Grid Type                 RadialGrid  ... OptM3 with GC (2021)
Angular Grid (max. ang.)         AngularGrid ... 1 (Lebedev-50)
Angular grid pruning method      GridPruning ... 4 (adaptive)
Weight generation scheme         WeightScheme... Becke
Basis function cutoff            BFCut       ... 1.0000e-11
Integration weight cutoff        WCut        ... 1.0000e-14
Angular grids for H and He will be reduced by one unit
Partially contracted basis set               ... off
Rotationally invariant grid construction     ... off

Total number of grid points                  ...    12339
Total number of batches                      ...      201
Average number of points per batch           ...       61
Average number of grid points per atom       ...      726

 --------------------------------------------------------------------------------------------
   Iter.        energy            ||Error||_2        Shift      TRadius  Mac/Mic        Rej.
 --------------------------------------------------------------------------------------------
WARNING: 40 diagonal Hessian elements are negative!
    0       -490.945037190343     1.691371e+00                     0.400 (TRAH MAcro)   No
WARNING : negative HOMO - LUMO gap : -0.975619
    0     dE    -1.913009e-01     1.135901e+00    -3.6552e-01      0.216 (TRAH MIcro)
    0     dE    -2.616970e-01     2.914069e+00    -4.5380e-01      0.392 (TRAH MIcro)
    0     dE    -1.731923e-01     3.387006e-01    -5.5957e+00      0.142 (TRAH MIcro)
    0     dE    -1.756764e-01     5.134214e-02    -5.6548e+00      0.143 (TRAH MIcro)
    0     dE    -1.757222e-01     2.793429e-02    -5.6573e+00      0.143 (TRAH MIcro)
    0     dE    -1.756867e-01     3.143067e-03    -5.6582e+00      0.143 (TRAH MIcro)
WARNING: 36 diagonal Hessian elements are negative!
    1       -491.120416911729     8.044193e-01                     0.480 (TRAH MAcro)   No
WARNING : negative HOMO - LUMO gap : -0.832727
    1     dE    -5.483931e-02     3.686892e-01    -1.0774e-01      0.134 (TRAH MIcro)
    1     dE    -6.727843e-02     9.367212e-01    -1.2933e-01      0.201 (TRAH MIcro)
    1     dE    -4.675321e-02     1.006388e-01    -4.8521e+00      0.080 (TRAH MIcro)
    1     dE    -4.740904e-02     1.910147e-02    -4.8964e+00      0.080 (TRAH MIcro)
    1     dE    -4.742843e-02     1.063489e-02    -4.8978e+00      0.080 (TRAH MIcro)
    1     dE    -4.743089e-02     1.445111e-03    -4.8983e+00      0.080 (TRAH MIcro)
WARNING: 33 diagonal Hessian elements are negative!
    2       -491.167857706246     3.944885e-01                     0.576 (TRAH MAcro)   No
WARNING : negative HOMO - LUMO gap : -0.761981
    2     dE    -1.603496e-02     1.745029e-01    -3.1862e-02      0.081 (TRAH MIcro)
    2     dE    -1.989323e-02     5.206259e-01    -3.9123e-02      0.130 (TRAH MIcro)
    2     dE    -1.281489e-02     5.177142e-02    -4.6445e+00      0.044 (TRAH MIcro)
    2     dE    -1.304807e-02     9.063519e-03    -4.6944e+00      0.044 (TRAH MIcro)
WARNING: 27 diagonal Hessian elements are negative!
    3       -491.180913874828     2.072641e-01                     0.691 (TRAH MAcro)   No
WARNING : negative HOMO - LUMO gap : -0.728674
    3     dE    -5.281321e-03     9.309031e-02    -1.0535e-02      0.051 (TRAH MIcro)
    3     dE    -7.016851e-03     8.665941e-02    -1.3846e-02      0.116 (TRAH MIcro)
    3     dE    -8.408065e-03     3.290852e-01    -1.6076e-02      0.215 (TRAH MIcro)
    3     dE    -1.606267e-01     2.660887e+00    -1.2274e+00      0.499 (TRAH MIcro)
    3     dE    -3.814478e-03     2.729783e-02    -5.0133e+00      0.024 (TRAH MIcro)
    3     dE    -3.873799e-03     5.555381e-03    -5.0544e+00      0.024 (TRAH MIcro)
WARNING: 26 diagonal Hessian elements are negative!
    4       -491.184789347598     1.209771e-01                     0.829 (TRAH MAcro)   No
WARNING : negative HOMO - LUMO gap : -0.713229
    4     dE    -2.105524e-03     6.629409e-02    -4.2060e-03      0.035 (TRAH MIcro)
    4     dE    -3.388940e-03     3.932216e-01    -6.6944e-03      0.112 (TRAH MIcro)
    4     dE    -1.850152e-03     2.852111e-02    -2.5910e+00      0.022 (TRAH MIcro)
    4     dE    -7.804826e-01     2.398757e+00    -2.2600e+00      0.829 (TRAH MIcro)
    4     dE    -1.252412e-01     1.165963e-01    -2.8544e+00      0.295 (TRAH MIcro)
    4     dE    -1.511029e-01     3.765756e-02    -2.8697e+00      0.323 (TRAH MIcro)
    4     dE    -1.615703e-01     6.524990e-03    -2.8712e+00      0.334 (TRAH MIcro)
WARNING: 15 diagonal Hessian elements are negative!
    5       -491.323622378433     7.184238e-01                     0.995 (TRAH MAcro)   No
WARNING : negative HOMO - LUMO gap : -0.444466
    5     dE    -1.127041e+00     1.309997e+00    -1.5742e+00      0.990 (TRAH MIcro)
    5     dE    -1.179307e+00     3.288072e-01    -1.6621e+00      0.995 (TRAH MIcro)
    5     dE    -1.184388e+00     7.575939e-02    -1.6736e+00      0.995 (TRAH MIcro)
    5     dE    -1.184914e+00     4.219191e-02    -1.6754e+00      0.995 (TRAH MIcro)
    5     dE    -1.185309e+00     4.871357e-02    -1.6782e+00      0.995 (TRAH MIcro)
    5     dE    -1.185495e+00     1.920980e-02    -1.6802e+00      0.995 (TRAH MIcro)
    5     dE    -1.185520e+00     5.930564e-03    -1.6806e+00      0.995 (TRAH MIcro)
WARNING: 15 diagonal Hessian elements are negative!
    6       -491.520219466618     5.612665e-01                     0.697 (TRAH MAcro)   No
WARNING : negative HOMO - LUMO gap : -0.319825
    6     dE    -6.356348e-02     1.812806e+00    -1.2023e-01      0.239 (TRAH MIcro)
    6     dE    -4.490841e-01     2.626423e-01    -1.3009e+00      0.697 (TRAH MIcro)
    6     dE    -4.537340e-01     7.828380e-02    -1.3236e+00      0.697 (TRAH MIcro)
    6     dE    -4.542648e-01     2.135298e-02    -1.3267e+00      0.697 (TRAH MIcro)
    6     dE    -4.542903e-01     6.669094e-03    -1.3268e+00      0.697 (TRAH MIcro)
 ---------------------------------
          TRAH Step control 
 ---------------------------------
  predicted energy change = -0.454290
  actual energy  change   = 0.024271
  energy change ratio     = -0.053427
  old trust radius        = 0.696730
  new trust radius        = 0.487711
  reject step?            =  1
    7       -491.520219466618     7.184238e-01                     0.488 (TRAH MAcro)  Yes
WARNING: 15 diagonal Hessian elements are negative!
    8       -491.520219466619     5.612665e-01                     0.488 (TRAH MAcro)   No
WARNING : negative HOMO - LUMO gap : -0.319825
    8     dE    -6.313738e-02     1.801757e+00    -1.1955e-01      0.237 (TRAH MIcro)
    8     dE    -2.530765e-01     1.629183e-01    -1.5727e+00      0.455 (TRAH MIcro)
    8     dE    -2.581462e-01     5.242736e-02    -1.5834e+00      0.460 (TRAH MIcro)
    8     dE    -2.585736e-01     1.556116e-02    -1.5846e+00      0.460 (TRAH MIcro)
    8     dE    -2.585628e-01     3.632819e-03    -1.5847e+00      0.460 (TRAH MIcro)
    9       -491.624776911858     3.476925e-01                     0.488 (TRAH MAcro)   No
WARNING : small    HOMO - LUMO gap : 0.014619
    9     dE    -1.131107e-02     2.303053e-01    -2.2526e-02      0.065 (TRAH MIcro)
    9     dE    -1.237977e-02     1.256526e-01    -2.4611e-02      0.078 (TRAH MIcro)
    9     dE    -1.341865e-02     4.069757e-02    -2.6649e-02      0.084 (TRAH MIcro)
    9     dE    -1.349891e-02     1.563329e-02    -2.6800e-02      0.086 (TRAH MIcro)
    9     dE    -1.351846e-02     5.814082e-03    -2.6833e-02      0.087 (TRAH MIcro)
   10       -491.638754901789     2.495284e-02                     0.585 (TRAH MAcro)   No
WARNING : small    HOMO - LUMO gap : 0.005812
   10     dE    -7.864687e-05     3.020301e-02    -1.5729e-04      0.006 (TRAH MIcro)
   10     dE    -8.254501e-05     2.487117e-02    -1.6508e-04      0.007 (TRAH MIcro)
   10     dE    -1.098685e-04     1.277551e-02    -2.1971e-04      0.011 (TRAH MIcro)
   10     dE    -1.183142e-04     4.177276e-03    -2.3659e-04      0.013 (TRAH MIcro)
   10     dE    -1.198159e-04     1.462768e-03    -2.3959e-04      0.014 (TRAH MIcro)
   11       -491.638875142041     1.416477e-03                     0.702 (TRAH MAcro)   No
WARNING : small    HOMO - LUMO gap : 0.003921
   11     dE    -3.163605e-08     1.249815e-03    -6.3287e-08      0.000 (TRAH MIcro)
   11     dE    -3.866782e-08     1.190286e-03    -7.7339e-08      0.000 (TRAH MIcro)
   11     dE    -1.460415e-07     5.801428e-04    -2.9208e-07      0.001 (TRAH MIcro)
   11     dE    -1.742044e-07     2.687155e-04    -3.4841e-07      0.001 (TRAH MIcro)
   11     dE    -1.779699e-07     1.185262e-04    -3.5594e-07      0.001 (TRAH MIcro)
   12       -491.638875316966     1.186251e-04                           (NR   MAcro)
WARNING : small    HOMO - LUMO gap : 0.003898
   12     dE    -3.020613e-10     9.199868e-05                           (NR   MIcro)
   12     dE    -7.020895e-10     6.760993e-05                           (NR   MIcro)
   12     dE    -9.749507e-10     2.390316e-05                           (NR   MIcro)
   12     dE    -1.008259e-09     9.151607e-06                           (NR   MIcro)
   12     dE    -1.017729e-09     3.935312e-06                           (NR   MIcro)
   12     dE    -1.018850e-09     1.912765e-06                           (NR   MIcro)
   12     dE    -1.018956e-09     6.865629e-07                           (NR   MIcro)
   13       -491.638875318020     6.956480e-07                           (NR   MAcro)
WARNING : small    HOMO - LUMO gap : 0.003898

               *****************************************************
               *                     SUCCESS                       *
               *           SCF CONVERGED AFTER 102 CYCLES          *
               *****************************************************

Old exchange energy                            =    -12.499332815 Eh
New exchange energy                            =    -12.499285334 Eh
Exchange energy change after final integration =      0.000047482 Eh
Total energy after final integration           =   -491.638827836 Eh
Final COS-X integration done in                =    24.646 sec

----------------
TOTAL SCF ENERGY
----------------

Total Energy       :         -491.63882784 Eh          -13378.17264 eV

Components:
Nuclear Repulsion  :          509.63025420 Eh           13867.74424 eV
Electronic Energy  :        -1001.26908204 Eh          -27245.91688 eV
One Electron Energy:        -1667.80244518 Eh          -45383.21177 eV
Two Electron Energy:          666.53336314 Eh           18137.29489 eV
Max COSX asymmetry :            0.00000330 Eh               0.00009 eV

Virial components:
Potential Energy   :         -979.10029325 Eh          -26642.67347 eV
Kinetic Energy     :          487.46146541 Eh           13264.50083 eV
Virial Ratio       :            2.00856963


DFT components:
N(Alpha)           :       36.000020271780 electrons
N(Beta)            :       36.000020271780 electrons
N(Total)           :       72.000040543560 electrons
E(X)               :      -49.905380581018 Eh       
E(C)               :       -2.921466756398 Eh       
E(XC)              :      -52.826847337415 Eh       
DFET-embed. en.    :        0.000000000000 Eh       

---------------
SCF CONVERGENCE
---------------

  Last Energy change         ...   -1.0542e-09  Tolerance :   1.0000e-08
  Last Orbital Gradient      ...    6.9565e-07  Tolerance :   1.0000e-05
  Last Orbital Rotation      ...    4.9683e-05

             **** THE GBW FILE WAS UPDATED (opt4.gbw) ****
             **** DENSITY opt4.scfp WAS UPDATED ****
             **** ENERGY FILE WAS UPDATED (opt4.en.tmp) ****
             **** THE GBW FILE WAS UPDATED (opt4.gbw) ****
             **** DENSITY opt4.scfp WAS UPDATED ****
----------------
ORBITAL ENERGIES
----------------

  NO   OCC          E(Eh)            E(eV) 
   0   2.0000     -19.293213      -524.9950 
   1   2.0000     -19.292809      -524.9840 
   2   2.0000     -14.693186      -399.8219 
   3   2.0000     -14.537479      -395.5849 
   4   2.0000     -10.431716      -283.8614 
   5   2.0000     -10.399460      -282.9837 
   6   2.0000     -10.367171      -282.1051 
   7   2.0000     -10.366273      -282.0806 
   8   2.0000     -10.363431      -282.0033 
   9   2.0000     -10.359245      -281.8894 
  10   2.0000      -1.355293       -36.8794 
  11   2.0000      -1.182609       -32.1804 
  12   2.0000      -1.110937       -30.2301 
  13   2.0000      -1.014109       -27.5953 
  14   2.0000      -0.946267       -25.7492 
  15   2.0000      -0.896492       -24.3948 
  16   2.0000      -0.835985       -22.7483 
  17   2.0000      -0.784854       -21.3570 
  18   2.0000      -0.758054       -20.6277 
  19   2.0000      -0.709788       -19.3143 
  20   2.0000      -0.681866       -18.5545 
  21   2.0000      -0.675103       -18.3705 
  22   2.0000      -0.672868       -18.3097 
  23   2.0000      -0.643598       -17.5132 
  24   2.0000      -0.626481       -17.0474 
  25   2.0000      -0.599779       -16.3208 
  26   2.0000      -0.595728       -16.2106 
  27   2.0000      -0.568004       -15.4562 
  28   2.0000      -0.540276       -14.7017 
  29   2.0000      -0.521918       -14.2021 
  30   2.0000      -0.492295       -13.3960 
  31   2.0000      -0.441031       -12.0011 
  32   2.0000      -0.440162       -11.9774 
  33   2.0000      -0.431159       -11.7324 
  34   2.0000      -0.426944       -11.6177 
  35   2.0000      -0.364095        -9.9075 
  36   0.0000      -0.360197        -9.8015 
  37   0.0000      -0.217926        -5.9301 
  38   0.0000      -0.164597        -4.4789 
  39   0.0000      -0.140722        -3.8292 
  40   0.0000      -0.079288        -2.1575 
  41   0.0000      -0.063988        -1.7412 
  42   0.0000      -0.024527        -0.6674 
  43   0.0000      -0.007671        -0.2087 
  44   0.0000      -0.006970        -0.1897 
  45   0.0000       0.005512         0.1500 
  46   0.0000       0.034324         0.9340 
  47   0.0000       0.036097         0.9822 
  48   0.0000       0.090118         2.4522 
  49   0.0000       0.115512         3.1433 
  50   0.0000       0.124175         3.3790 
  51   0.0000       0.151471         4.1217 
  52   0.0000       0.156348         4.2544 
  53   0.0000       0.160493         4.3672 
  54   0.0000       0.202993         5.5237 
  55   0.0000       0.239756         6.5241 
  56   0.0000       0.245081         6.6690 
  57   0.0000       0.255798         6.9606 
  58   0.0000       0.297145         8.0857 
  59   0.0000       0.303597         8.2613 
  60   0.0000       0.321695         8.7538 
  61   0.0000       0.322448         8.7743 
  62   0.0000       0.323780         8.8105 
  63   0.0000       0.350813         9.5461 
  64   0.0000       0.357176         9.7193 
  65   0.0000       0.371438        10.1073 
  66   0.0000       0.378130        10.2894 
  67   0.0000       0.382117        10.3979 
  68   0.0000       0.408697        11.1212 
  69   0.0000       0.442262        12.0346 
  70   0.0000       0.452192        12.3048 
  71   0.0000       0.481418        13.1001 
  72   0.0000       0.499030        13.5793 
  73   0.0000       0.520994        14.1770 
  74   0.0000       0.532195        14.4818 
  75   0.0000       0.543670        14.7940 
  76   0.0000       0.554516        15.0891 
  77   0.0000       0.565349        15.3839 
  78   0.0000       0.571852        15.5609 
  79   0.0000       0.595113        16.1939 
  80   0.0000       0.600649        16.3445 
  81   0.0000       0.630082        17.1454 
  82   0.0000       0.639218        17.3940 
  83   0.0000       0.669489        18.2177 
  84   0.0000       0.682935        18.5836 
  85   0.0000       0.706042        19.2124 
  86   0.0000       0.752708        20.4822 
  87   0.0000       0.798063        21.7164 
  88   0.0000       0.825968        22.4757 
  89   0.0000       0.840636        22.8749 
  90   0.0000       0.866360        23.5748 
  91   0.0000       0.880748        23.9664 
  92   0.0000       0.887895        24.1608 
  93   0.0000       0.945756        25.7353 
  94   0.0000       0.973687        26.4954 
  95   0.0000       1.027536        27.9607 
  96   0.0000       1.044259        28.4157 
  97   0.0000       1.063144        28.9296 
  98   0.0000       1.067997        29.0617 
  99   0.0000       1.091734        29.7076 
 100   0.0000       1.097614        29.8676 
 101   0.0000       1.114517        30.3275 
 102   0.0000       1.135506        30.8987 
 103   0.0000       1.170954        31.8633 
 104   0.0000       1.174661        31.9641 
 105   0.0000       1.203264        32.7425 
 106   0.0000       1.240903        33.7667 
 107   0.0000       1.240907        33.7668 
 108   0.0000       1.240907        33.7668 
 109   0.0000       1.258542        34.2467 
 110   0.0000       1.289765        35.0963 
 111   0.0000       1.325349        36.0646 
 112   0.0000       1.356716        36.9181 
 113   0.0000       1.424269        38.7563 
 114   0.0000       1.496185        40.7133 
 115   0.0000       1.527996        41.5789 
 116   0.0000       1.535365        41.7794 
 117   0.0000       1.562164        42.5086 
 118   0.0000       1.577925        42.9375 
 119   0.0000       1.577985        42.9391 
 120   0.0000       1.599295        43.5190 
 121   0.0000       1.610583        43.8262 
 122   0.0000       1.623871        44.1878 
 123   0.0000       1.643277        44.7158 
 124   0.0000       1.648831        44.8670 
 125   0.0000       1.656238        45.0685 
 126   0.0000       1.700419        46.2708 
 127   0.0000       1.716551        46.7097 
 128   0.0000       1.746254        47.5180 
 129   0.0000       1.795274        48.8519 
 130   0.0000       1.822961        49.6053 
 131   0.0000       1.848207        50.2923 
 132   0.0000       1.872123        50.9430 
 133   0.0000       1.912568        52.0436 
 134   0.0000       1.960199        53.3397 
 135   0.0000       1.969410        53.5904 
 136   0.0000       1.987055        54.0705 
 137   0.0000       2.032076        55.2956 
 138   0.0000       2.035420        55.3866 
 139   0.0000       2.058927        56.0263 
 140   0.0000       2.128392        57.9165 
 141   0.0000       2.138928        58.2032 
 142   0.0000       2.163967        58.8845 
 143   0.0000       2.184968        59.4560 
 144   0.0000       2.202997        59.9466 
 145   0.0000       2.243806        61.0571 
 146   0.0000       2.271945        61.8228 
 147   0.0000       2.310997        62.8854 
 148   0.0000       2.377767        64.7023 
 149   0.0000       2.392802        65.1114 
 150   0.0000       2.438177        66.3462 
 151   0.0000       2.472788        67.2880 
 152   0.0000       2.487885        67.6988 
 153   0.0000       2.503281        68.1178 
 154   0.0000       2.517490        68.5044 
 155   0.0000       2.547614        69.3241 
 156   0.0000       2.566413        69.8356 
 157   0.0000       2.575449        70.0815 
 158   0.0000       2.582596        70.2760 
 159   0.0000       2.613172        71.1080 
 160   0.0000       2.636739        71.7493 
 161   0.0000       2.703666        73.5705 
 162   0.0000       2.776165        75.5433 
 163   0.0000       2.892268        78.7026 
 164   0.0000       2.902565        78.9828 
 165   0.0000       2.918546        79.4177 
 166   0.0000       2.958584        80.5072 
 167   0.0000       3.080661        83.8290 
 168   0.0000       3.114650        84.7539 
 169   0.0000       3.159227        85.9669 
 170   0.0000       3.264864        88.8415 
 171   0.0000       3.382383        92.0393 
 172   0.0000       3.437733        93.5455 
 173   0.0000       3.645368        99.1955 
 174   0.0000       3.656217        99.4907 

                    ********************************
                    * MULLIKEN POPULATION ANALYSIS *
                    ********************************

-----------------------
MULLIKEN ATOMIC CHARGES
-----------------------
   0 C :   -0.034748
   1 C :    0.011988
   2 C :    0.065257
   3 C :    0.071243
   4 C :   -0.009587
   5 C :    0.181592
   6 H :    0.023005
   7 H :    0.050888
   8 H :    0.057840
   9 H :    0.053539
  10 H :    0.266373
  11 N :    0.096874
  12 H :    0.162945
  13 H :    0.179808
  14 N :    0.255630
  15 O :   -0.254828
  16 O :   -0.177820
Sum of atomic charges:    1.0000000

--------------------------------
MULLIKEN REDUCED ORBITAL CHARGES
--------------------------------
  0 C s       :     3.028622  s :     3.028622
      pz      :     0.997901  p :     2.944032
      px      :     1.026724
      py      :     0.919407
      dz2     :     0.010319  d :     0.062093
      dxz     :     0.006576
      dyz     :     0.015003
      dx2y2   :     0.014935
      dxy     :     0.015260
  1 C s       :     3.263567  s :     3.263567
      pz      :     0.899606  p :     2.692386
      px      :     0.897066
      py      :     0.895714
      dz2     :     0.003883  d :     0.032060
      dxz     :     0.004082
      dyz     :     0.007735
      dx2y2   :     0.006705
      dxy     :     0.009655
  2 C s       :     3.174582  s :     3.174582
      pz      :     0.914187  p :     2.725138
      px      :     0.897213
      py      :     0.913738
      dz2     :     0.005370  d :     0.035023
      dxz     :     0.004910
      dyz     :     0.007921
      dx2y2   :     0.007884
      dxy     :     0.008938
  3 C s       :     3.183066  s :     3.183066
      pz      :     0.901028  p :     2.711366
      px      :     0.913740
      py      :     0.896597
      dz2     :     0.005531  d :     0.034326
      dxz     :     0.005655
      dyz     :     0.006670
      dx2y2   :     0.008728
      dxy     :     0.007742
  4 C s       :     3.313123  s :     3.313123
      pz      :     0.855109  p :     2.662139
      px      :     0.832773
      py      :     0.974258
      dz2     :     0.004347  d :     0.034324
      dxz     :     0.004871
      dyz     :     0.007743
      dx2y2   :     0.009525
      dxy     :     0.007838
  5 C s       :     3.016337  s :     3.016337
      pz      :     1.004200  p :     2.757097
      px      :     0.960636
      py      :     0.792260
      dz2     :     0.006331  d :     0.044974
      dxz     :     0.006525
      dyz     :     0.010082
      dx2y2   :     0.008195
      dxy     :     0.013842
  6 H s       :     0.953731  s :     0.953731
      pz      :     0.009518  p :     0.023264
      px      :     0.009786
      py      :     0.003960
  7 H s       :     0.926075  s :     0.926075
      pz      :     0.005168  p :     0.023036
      px      :     0.008769
      py      :     0.009099
  8 H s       :     0.919106  s :     0.919106
      pz      :     0.004745  p :     0.023055
      px      :     0.003383
      py      :     0.014927
  9 H s       :     0.922307  s :     0.922307
      pz      :     0.009640  p :     0.024153
      px      :     0.010307
      py      :     0.004207
 10 H s       :     0.733627  s :     0.733627
      pz      :     0.000000  p :     0.000000
      px      :     0.000000
      py      :     0.000000
 11 N s       :     3.282072  s :     3.282072
      pz      :     1.280661  p :     3.604896
      px      :     1.220663
      py      :     1.103572
      dz2     :     0.001650  d :     0.016158
      dxz     :     0.002325
      dyz     :     0.003967
      dx2y2   :     0.003970
      dxy     :     0.004246
 12 H s       :     0.792583  s :     0.792583
      pz      :     0.017665  p :     0.044472
      px      :     0.017625
      py      :     0.009181
 13 H s       :     0.769341  s :     0.769341
      pz      :     0.013678  p :     0.050851
      px      :     0.020854
      py      :     0.016319
 14 N s       :     3.287472  s :     3.287472
      pz      :     1.128210  p :     3.340168
      px      :     1.138677
      py      :     1.073281
      dz2     :     0.020872  d :     0.116730
      dxz     :     0.012442
      dyz     :     0.028277
      dx2y2   :     0.024261
      dxy     :     0.030879
 15 O s       :     3.863865  s :     3.863865
      pz      :     1.548506  p :     4.369606
      px      :     1.676940
      py      :     1.144160
      dz2     :     0.002671  d :     0.021356
      dxz     :     0.000492
      dyz     :     0.006229
      dx2y2   :     0.007288
      dxy     :     0.004677
 16 O s       :     3.867117  s :     3.867117
      pz      :     1.255582  p :     4.287045
      px      :     1.330878
      py      :     1.700585
      dz2     :     0.005720  d :     0.023658
      dxz     :     0.007071
      dyz     :     0.003607
      dx2y2   :     0.003289
      dxy     :     0.003971


                     *******************************
                     * LOEWDIN POPULATION ANALYSIS *
                     *******************************

----------------------
LOEWDIN ATOMIC CHARGES
----------------------
   0 C :    0.073694
   1 C :    0.012389
   2 C :    0.029924
   3 C :    0.061351
   4 C :    0.041728
   5 C :   -0.021621
   6 H :    0.052399
   7 H :    0.059452
   8 H :    0.059088
   9 H :    0.063520
  10 H :    0.266373
  11 N :    0.151893
  12 H :    0.111195
  13 H :    0.090334
  14 N :    0.282894
  15 O :   -0.194058
  16 O :   -0.140556

-------------------------------
LOEWDIN REDUCED ORBITAL CHARGES
-------------------------------
  0 C s       :     2.841179  s :     2.841179
      pz      :     0.955054  p :     2.938388
      px      :     0.996001
      py      :     0.987332
      dz2     :     0.022322  d :     0.146739
      dxz     :     0.016608
      dyz     :     0.034956
      dx2y2   :     0.036734
      dxy     :     0.036119
  1 C s       :     2.868727  s :     2.868727
      pz      :     0.991729  p :     3.034494
      px      :     0.992666
      py      :     1.050099
      dz2     :     0.009164  d :     0.084390
      dxz     :     0.009802
      dyz     :     0.019993
      dx2y2   :     0.019553
      dxy     :     0.025877
  2 C s       :     2.864195  s :     2.864195
      pz      :     0.969727  p :     3.015691
      px      :     0.991677
      py      :     1.054286
      dz2     :     0.012413  d :     0.090190
      dxz     :     0.012894
      dyz     :     0.020457
      dx2y2   :     0.021404
      dxy     :     0.023022
  3 C s       :     2.873222  s :     2.873222
      pz      :     0.951842  p :     2.978436
      px      :     0.979102
      py      :     1.047492
      dz2     :     0.012264  d :     0.086991
      dxz     :     0.015825
      dyz     :     0.016374
      dx2y2   :     0.022238
      dxy     :     0.020289
  4 C s       :     2.868051  s :     2.868051
      pz      :     0.963865  p :     3.001049
      px      :     0.992144
      py      :     1.045040
      dz2     :     0.010065  d :     0.089172
      dxz     :     0.011569
      dyz     :     0.019914
      dx2y2   :     0.025904
      dxy     :     0.021720
  5 C s       :     2.868304  s :     2.868304
      pz      :     1.034015  p :     3.038132
      px      :     0.985509
      py      :     1.018607
      dz2     :     0.014464  d :     0.115185
      dxz     :     0.017384
      dyz     :     0.025403
      dx2y2   :     0.023308
      dxy     :     0.034625
  6 H s       :     0.877982  s :     0.877982
      pz      :     0.028228  p :     0.069618
      px      :     0.029029
      py      :     0.012362
  7 H s       :     0.872595  s :     0.872595
      pz      :     0.015835  p :     0.067953
      px      :     0.025939
      py      :     0.026180
  8 H s       :     0.871715  s :     0.871715
      pz      :     0.014883  p :     0.069197
      px      :     0.011049
      py      :     0.043264
  9 H s       :     0.862868  s :     0.862868
      pz      :     0.029030  p :     0.073611
      px      :     0.031270
      py      :     0.013312
 10 H s       :     0.733627  s :     0.733627
      pz      :     0.000000  p :     0.000000
      px      :     0.000000
      py      :     0.000000
 11 N s       :     3.031930  s :     3.031930
      pz      :     1.308378  p :     3.773003
      px      :     1.280498
      py      :     1.184128
      dz2     :     0.004173  d :     0.043175
      dxz     :     0.005640
      dyz     :     0.010373
      dx2y2   :     0.011171
      dxy     :     0.011818
 12 H s       :     0.768711  s :     0.768711
      pz      :     0.049812  p :     0.120094
      px      :     0.049521
      py      :     0.020761
 13 H s       :     0.761906  s :     0.761906
      pz      :     0.042325  p :     0.147760
      px      :     0.063789
      py      :     0.041646
 14 N s       :     3.046524  s :     3.046524
      pz      :     1.139685  p :     3.425948
      px      :     1.150984
      py      :     1.135279
      dz2     :     0.038579  d :     0.244634
      dxz     :     0.028407
      dyz     :     0.061008
      dx2y2   :     0.053127
      dxy     :     0.063513
 15 O s       :     3.611760  s :     3.611760
      pz      :     1.562451  p :     4.541053
      px      :     1.669759
      py      :     1.308844
      dz2     :     0.005442  d :     0.041245
      dxz     :     0.000814
      dyz     :     0.011296
      dx2y2   :     0.016867
      dxy     :     0.006827
 16 O s       :     3.613348  s :     3.613348
      pz      :     1.344724  p :     4.482029
      px      :     1.415936
      py      :     1.721370
      dz2     :     0.008218  d :     0.045179
      dxz     :     0.016668
      dyz     :     0.007122
      dx2y2   :     0.005768
      dxy     :     0.007403


                      *****************************
                      * MAYER POPULATION ANALYSIS *
                      *****************************

  NA   - Mulliken gross atomic population
  ZA   - Total nuclear charge
  QA   - Mulliken gross atomic charge
  VA   - Mayer's total valence
  BVA  - Mayer's bonded valence
  FA   - Mayer's free valence

  ATOM       NA         ZA         QA         VA         BVA        FA
  0 C      6.0347     6.0000    -0.0347     4.1112     4.1112    -0.0000
  1 C      5.9880     6.0000     0.0120     3.8202     3.8202     0.0000
  2 C      5.9347     6.0000     0.0653     3.8062     3.8062    -0.0000
  3 C      5.9288     6.0000     0.0712     3.7533     3.7533    -0.0000
  4 C      6.0096     6.0000    -0.0096     3.8609     3.8609    -0.0000
  5 C      5.8184     6.0000     0.1816     3.7534     3.7534    -0.0000
  6 H      0.9770     1.0000     0.0230     0.9946     0.9946     0.0000
  7 H      0.9491     1.0000     0.0509     0.9820     0.9820    -0.0000
  8 H      0.9422     1.0000     0.0578     0.9826     0.9826    -0.0000
  9 H      0.9465     1.0000     0.0535     1.0181     1.0181    -0.0000
 10 H      0.7336     1.0000     0.2664     0.9290     0.9290     0.0000
 11 N      6.9031     7.0000     0.0969     3.5292     3.5292    -0.0000
 12 H      0.8371     1.0000     0.1629     0.9855     0.9855    -0.0000
 13 H      0.8202     1.0000     0.1798     1.0334     1.0334    -0.0000
 14 N      6.7444     7.0000     0.2556     3.9445     3.9445     0.0000
 15 O      8.2548     8.0000    -0.2548     1.9408     1.9408    -0.0000
 16 O      8.1778     8.0000    -0.1778     2.0382     2.0382     0.0000

  Mayer bond orders larger than 0.100000
B(  0-C ,  1-C ) :   1.1723 B(  0-C ,  5-C ) :   1.1527 B(  0-C , 11-N ) :   1.5305 
B(  1-C ,  2-C ) :   1.4626 B(  1-C ,  6-H ) :   0.9897 B(  1-C , 10-H ) :   0.1501 
B(  2-C ,  3-C ) :   1.2719 B(  2-C ,  7-H ) :   0.9850 B(  3-C ,  4-C ) :   1.2475 
B(  3-C ,  8-H ) :   0.9852 B(  3-C , 10-H ) :   0.2359 B(  4-C ,  5-C ) :   1.4682 
B(  4-C ,  9-H ) :   0.9796 B(  5-C , 10-H ) :   0.1085 B(  5-C , 14-N ) :   0.8746 
B( 10-H , 11-N ) :   0.2536 B( 11-N , 12-H ) :   0.9089 B( 11-N , 13-H ) :   0.8687 
B( 13-H , 15-O ) :   0.1008 B( 14-N , 15-O ) :   1.4436 B( 14-N , 16-O ) :   1.5916 
B( 15-O , 16-O ) :   0.2827 

-------
TIMINGS
-------

Total SCF time: 0 days 0 hours 11 min 13 sec 

Total time                  ....     673.412 sec
Sum of individual times     ....     666.606 sec  ( 99.0%)

Fock matrix formation       ....     655.917 sec  ( 97.4%)
  Split-RI-J                ....      84.965 sec  ( 13.0% of F)
  Chain of spheres X        ....     480.852 sec  ( 73.3% of F)
  XC integration            ....      89.867 sec  ( 13.7% of F)
    Basis function eval.    ....      28.735 sec  ( 32.0% of XC)
    Density eval.           ....      25.726 sec  ( 28.6% of XC)
    XC-Functional eval.     ....       5.025 sec  (  5.6% of XC)
    XC-Potential eval.      ....      23.139 sec  ( 25.7% of XC)
Diagonalization             ....       0.230 sec  (  0.0%)
Density matrix formation    ....       0.051 sec  (  0.0%)
Population analysis         ....       0.043 sec  (  0.0%)
Initial guess               ....       2.087 sec  (  0.3%)
Orbital Transformation      ....       0.325 sec  (  0.0%)
Orbital Orthonormalization  ....       0.000 sec  (  0.0%)
DIIS solution               ....       0.521 sec  (  0.1%)
SOSCF solution              ....       0.000 sec  (  0.0%)
Grid generation             ....       7.431 sec  (  1.1%)

Maximum memory used throughout the entire SCF-calculation: 74.8 MB


-------------------------------------------------------------------------------
                          DFT DISPERSION CORRECTION                            
                                                                               
                                 DFTD4 V2.5                                    
-------------------------------------------------------------------------------
The B3LYP functional is recognized
Active option DFTDOPT                   ...         5   

Starting D4
-------------------------   ----------------
Dispersion correction           -0.026276946
-------------------------   ----------------


-------------------------   --------------------
FINAL SINGLE POINT ENERGY      -491.665104782827
-------------------------   --------------------

------------------------------------------------------------------------------
                         ORCA SCF GRADIENT CALCULATION
------------------------------------------------------------------------------

 ... reading COSX grid (gridx3)
Gradient of the Kohn-Sham DFT energy:
Kohn-Sham wavefunction type      ... RKS
Hartree-Fock exchange scaling    ...    0.200
Number of operators              ...    1
Number of atoms                  ...   17
Basis set dimensions             ...  175
Integral neglect threshold       ... 2.5e-11
Integral primitive cutoff        ... 2.5e-12
SHARK Integral package           ... ON

Nuc. rep. gradient       (SHARK) ... done (  0.0 sec)
HCore & Overlap gradient (SHARK) ... done (  0.8 sec)
RI-J gradient            (SHARK) ... done (  4.2 sec)
COSX-gradient                    ... done ( 35.1 sec)
Exchange-correlation gradient    ... done
Dispersion correction            ... Starting D4


------------------- 
Dispersion Gradient 
------------------- 
   1  :   -0.000247039    0.000224445   -0.000276117
   2  :   -0.000436760   -0.000109575   -0.000343004
   3  :   -0.000336829   -0.000491183   -0.000148093
   4  :   -0.000105972   -0.000621506    0.000087227
   5  :    0.000173634   -0.000519803    0.000297800
   6  :    0.000231724    0.000105010    0.000168559
   7  :   -0.000153875    0.000009044   -0.000134470
   8  :   -0.000107672   -0.000121465   -0.000057508
   9  :   -0.000002690   -0.000170152    0.000046513
  10  :    0.000123480   -0.000110048    0.000137479
  11  :   -0.000000165    0.000000032   -0.000000255
  12  :   -0.000252756    0.000502454   -0.000360690
  13  :   -0.000200337    0.000177139   -0.000222301
  14  :    0.000114994    0.000282511    0.000017482
  15  :    0.000489025    0.000304541    0.000332043
  16  :    0.000308296    0.000441389    0.000137072
[...]
     32      -0.000014   0.000008   0.000000   0.000011  -0.000001   0.000010
     33       0.007858   0.005952   0.055887  -0.017618   0.040051   0.012817
     34       0.076066  -0.064106   0.066974  -0.001827   0.024202   0.029212
     35      -0.015167   0.023475   0.028338  -0.014485   0.027160   0.002517
     36       0.163928  -0.047083  -0.110399  -0.185721  -0.165538  -0.029678
     37       0.529436  -0.232112  -0.380850  -0.480051  -0.549629  -0.078868
     38      -0.012611   0.026695   0.015384  -0.020116   0.017001  -0.002638
     39      -0.222145   0.060619  -0.093583   0.260226   0.117258  -0.026702
     40       0.362599  -0.162919   0.328990  -0.397272  -0.068146   0.090546
     41      -0.293602   0.098444  -0.174165   0.335980   0.119569  -0.048745
     42       0.125151   0.079030  -0.137987   0.068729   0.041211   0.015122
     43       0.195361   0.086996  -0.156966   0.007542   0.048374  -0.014363
     44       0.050470   0.042348  -0.072456   0.056673   0.021242   0.017187
     45      -0.011825  -0.006842   0.015713   0.000500  -0.002860   0.003710
     46      -0.175191  -0.087279   0.147662  -0.006988  -0.055504   0.019880
     47       0.040812   0.019503  -0.029467   0.002420   0.013651  -0.002610
     48      -0.102710  -0.055114   0.074282  -0.055786  -0.038700  -0.022098
     49       0.026111   0.013965  -0.026897   0.016659   0.010664   0.007517
     50      -0.095505  -0.051215   0.071363  -0.052576  -0.036212  -0.021108
                 42         43         44         45         46         47    
      0       0.040048   0.020864  -0.011159   0.001634  -0.000717   0.000475
      1      -0.197743  -0.239136  -0.168004   0.002019  -0.001257   0.000585
      2       0.090920   0.086479   0.038774   0.000813  -0.000250   0.000238
      3      -0.005962   0.030041   0.025340  -0.055825   0.019990  -0.009540
      4      -0.095603   0.244765   0.143254   0.022816  -0.011177   0.007277
      5       0.022381  -0.044670  -0.019534  -0.054131   0.020246  -0.010221
      6      -0.026506   0.035011   0.023091   0.020258   0.036623  -0.038437
      7       0.149818  -0.192974  -0.104688   0.017847   0.042542  -0.038810
      8      -0.065645   0.085285   0.049766   0.012141   0.018999  -0.021621
      9      -0.031447   0.030256  -0.004552   0.000120   0.001207   0.005484
     10      -0.087067   0.092029   0.058024  -0.008425  -0.053775  -0.058226
     11      -0.001760  -0.000691  -0.020557   0.002526   0.016500   0.021431
     12       0.046826  -0.054310  -0.012395  -0.001948  -0.006878  -0.014520
     13       0.137126  -0.210124  -0.180328   0.000870   0.004651   0.008268
     14       0.000499   0.014083   0.041270  -0.001910  -0.007202  -0.014762
     15      -0.029382  -0.026642  -0.045821   0.000135  -0.000130   0.000276
     16      -0.040869   0.190846   0.219546  -0.000279  -0.000036  -0.000387
     17      -0.013316  -0.077581  -0.102255   0.000195  -0.000101   0.000347
     18       0.036963  -0.179034  -0.092026   0.636789  -0.227330   0.108350
     19      -0.010750  -0.274974  -0.163617  -0.259991   0.095136  -0.046677
     20       0.034655  -0.073687  -0.031444   0.617415  -0.221065   0.105749
     21       0.145533  -0.167720  -0.080174  -0.230641  -0.429787   0.417390
     22      -0.115747   0.112315   0.052919  -0.237796  -0.451656   0.433072
     23       0.157368  -0.175318  -0.083586  -0.128317  -0.236645   0.231412
     24       0.079041  -0.058531   0.042118  -0.004570  -0.029566  -0.035452
     25      -0.068487   0.080097   0.082377   0.098078   0.615472   0.657017
     26       0.087123  -0.072941   0.012169  -0.032115  -0.202286  -0.219251
     27      -0.067686   0.098142   0.140553   0.024280   0.090867   0.183598
     28      -0.180641   0.201541   0.185557  -0.009700  -0.036622  -0.072750
     29      -0.005759   0.025815   0.066488   0.023494   0.088025   0.177491
     30      -0.000008  -0.000022  -0.000037   0.000000   0.000001  -0.000000
     31       0.000004   0.000019  -0.000021   0.000001   0.000000  -0.000001
     32      -0.000011  -0.000044  -0.000027  -0.000000  -0.000000  -0.000001
     33      -0.020084  -0.017123   0.010715  -0.000335   0.000061  -0.000003
     34       0.204807   0.141008   0.020712  -0.000433   0.000154   0.000008
     35      -0.075957  -0.055105   0.003180  -0.000160   0.000007  -0.000005
     36      -0.282184  -0.192694   0.075667  -0.001820  -0.000826  -0.000392
     37      -0.501696  -0.340053   0.207648  -0.003482   0.001864  -0.000476
     38      -0.096140  -0.066406   0.004729  -0.000552  -0.001237  -0.000197
     39       0.350191   0.262086  -0.158613   0.004367   0.000631   0.000058
     40      -0.309563  -0.285198   0.323746   0.002729   0.001675  -0.000438
     41       0.387640   0.305568  -0.228217   0.002933   0.000054   0.000174
     42       0.030036  -0.075942   0.263474   0.000048  -0.000118  -0.000249
     43      -0.047071   0.130465  -0.401042   0.000229   0.000056   0.000173
     44       0.039337  -0.102902   0.341735  -0.000025  -0.000117  -0.000263
     45      -0.000048   0.000499  -0.020109   0.000019  -0.000002   0.000031
     46       0.026949  -0.084460   0.194752  -0.000078   0.000023   0.000018
     47      -0.007894   0.024952  -0.073742   0.000038  -0.000009   0.000021
     48      -0.020340   0.069518  -0.196232  -0.000014  -0.000003  -0.000009
     49       0.010585  -0.035287   0.119009  -0.000063  -0.000134  -0.000245
     50      -0.020470   0.069750  -0.202445   0.000007   0.000036   0.000063
                 48         49         50    
      0      -0.000054   0.000221  -0.000069
      1       0.000325   0.000446  -0.001822
      2      -0.000140   0.000059   0.000463
      3      -0.002116   0.000773   0.000169
      4       0.001391   0.001595  -0.000097
      5      -0.002202   0.000200   0.000172
      6      -0.005216  -0.000152  -0.000015
      7      -0.004331  -0.000490   0.000192
      8      -0.003203   0.000011  -0.000068
      9      -0.001283  -0.000275   0.000126
     10      -0.025923   0.000140  -0.000065
     11       0.006366  -0.000275   0.000126
     12       0.058790   0.000006  -0.000213
     13      -0.022246   0.000473   0.000087
     14       0.056529  -0.000133  -0.000206
     15      -0.000322  -0.000994   0.000379
     16       0.003333  -0.000580  -0.000791
     17      -0.001233  -0.000679   0.000551
     18       0.021999  -0.003775  -0.000716
     19      -0.009351   0.000062   0.001227
     20       0.021435  -0.003235  -0.000964
     21       0.047730   0.001767  -0.000144
     22       0.049053   0.001945  -0.000012
     23       0.026594   0.000945  -0.000119
     24      -0.011750  -0.000113  -0.000147
     25       0.270114  -0.002486   0.000328
     26      -0.087732   0.000621  -0.000220
     27      -0.660568   0.002109   0.001092
     28       0.252856   0.000650   0.000219
     29      -0.636035   0.001620   0.000870
     30       0.000001   0.000002  -0.000002
     31       0.000001   0.000003   0.000002
     32      -0.000001   0.000005  -0.000002
     33      -0.000190  -0.025479  -0.062195
     34      -0.000185  -0.056064   0.003196
     35      -0.000108  -0.005557  -0.053867
     36       0.000167  -0.232232   0.660192
     37      -0.000107   0.106569  -0.239558
     38       0.000173  -0.228328   0.630985
     39       0.001964   0.586104   0.198720
     40       0.002448   0.663530   0.227046
     41       0.000968   0.308023   0.103845
     42       0.000729   0.001138   0.000111
     43      -0.000493   0.004421   0.001074
     44       0.000765  -0.000314  -0.000218
     45      -0.000090  -0.000939  -0.000199
     46      -0.000114  -0.003301  -0.000831
     47      -0.000043   0.000152   0.000070
     48       0.000062   0.000271   0.000150
     49       0.000733  -0.001206  -0.000356
     50      -0.000158   0.000584   0.000232


-----------
IR SPECTRUM
-----------

 Mode   freq       eps      Int      T**2         TX        TY        TZ
       cm**-1   L/(mol*cm) km/mol    a.u.
----------------------------------------------------------------------------
  7:      3.50   0.000000    0.00  0.000000  ( 0.000000  0.000000  0.000000)
  8:      5.23   0.005829   29.46  0.347715  (-0.423904 -0.225009  0.342624)
  9:     61.89   0.000007    0.03  0.000033  ( 0.003466 -0.000973 -0.004531)
 10:    134.43   0.000687    3.47  0.001594  ( 0.025574 -0.008600 -0.029435)
 11:    234.10   0.000470    2.38  0.000626  (-0.015701  0.005294  0.018760)
 12:    300.03   0.000895    4.52  0.000931  (-0.009678 -0.019425 -0.021439)
 13:    382.79   0.011104   56.12  0.009053  ( 0.061308 -0.005544  0.072548)
 14:    400.35   0.014233   71.93  0.011095  ( 0.054797 -0.003123  0.089900)
 15:    414.32   0.001009    5.10  0.000760  (-0.017251  0.005782  0.020705)
 16:    499.25   0.001145    5.79  0.000716  (-0.016868  0.005762  0.019954)
 17:    543.39   0.000746    3.77  0.000428  (-0.005133  0.013026 -0.015242)
 18:    560.89   0.049465  249.98  0.027521  ( 0.082900 -0.033086  0.139835)
 19:    589.56   0.012769   64.53  0.006759  (-0.052092  0.017530  0.061139)
 20:    669.98   0.009077   45.87  0.004228  (-0.029325  0.018975 -0.054842)
 21:    676.48   0.010227   51.68  0.004718  ( 0.043257 -0.014473 -0.051355)
 22:    740.76   0.003824   19.33  0.001611  ( 0.025780 -0.008711 -0.029504)
 23:    775.37   0.008023   40.54  0.003229  ( 0.036421 -0.012332 -0.041837)
 24:    797.47   0.008985   45.41  0.003516  ( 0.037802 -0.012846 -0.043840)
 25:    840.92   0.050949  257.48  0.018907  (-0.064935  0.030085 -0.117412)
 26:    889.39   0.015088   76.25  0.005294  ( 0.012141 -0.043695  0.056898)
 27:    895.58   0.000014    0.07  0.000005  (-0.001327  0.000551  0.001703)
 28:   1004.37   0.000344    1.74  0.000107  ( 0.006796 -0.002322 -0.007429)
 29:   1017.28   0.008067   40.77  0.002475  ( 0.029632 -0.010484  0.038558)
 30:   1033.53   0.000076    0.39  0.000023  (-0.003066  0.001139  0.003521)
 31:   1054.01   0.026007  131.43  0.007700  (-0.040909  0.017173 -0.075708)
 32:   1107.12   0.009972   50.39  0.002811  (-0.035806 -0.020005 -0.033593)
 33:   1163.88   0.083106  419.98  0.022283  (-0.085569  0.016269 -0.121227)
 34:   1180.75   0.010488   53.00  0.002772  (-0.030555  0.007272 -0.042254)
 35:   1300.47   0.012584   63.59  0.003020  ( 0.023906 -0.019685  0.045394)
 36:   1356.99   0.034510  174.40  0.007936  ( 0.002000  0.076107 -0.046258)
 37:   1399.53   0.138551  700.18  0.030894  (-0.079191  0.036449 -0.152624)
 38:   1416.77   0.017059   86.21  0.003757  ( 0.005864 -0.044568  0.041674)
 39:   1489.43   0.161027  813.76  0.033738  (-0.084727  0.033131 -0.159567)
 40:   1504.98   0.007748   39.15  0.001607  ( 0.027326  0.014319  0.025589)
 41:   1553.46   0.004424   22.36  0.000889  ( 0.009690 -0.018984  0.020842)
 42:   1590.49   0.091571  462.76  0.017967  ( 0.057559 -0.084306  0.086869)
 43:   1654.27   0.677182  3422.20  0.127744  ( 0.181316 -0.061727  0.301759)
 44:   1700.28   0.170809  863.20  0.031350  ( 0.092278 -0.061627  0.137973)
 45:   3196.83   0.000065    0.33  0.000006  ( 0.001079  0.002184 -0.000661)
 46:   3211.57   0.001649    8.33  0.000160  ( 0.006215 -0.001872  0.010866)
 47:   3220.66   0.000747    3.77  0.000072  ( 0.005675  0.005668  0.002837)
 48:   3233.72   0.001226    6.20  0.000118  ( 0.001983  0.002133  0.010480)
 49:   3406.96   0.842647  4258.39  0.077183  (-0.119570  0.101125 -0.229477)
 50:   3629.41   0.170835  863.33  0.014689  ( 0.073625 -0.022263  0.093661)

* The epsilon (eps) is given for a Dirac delta lineshape.
** The dipole moment derivative (T) already includes vibrational overlap.

The first frequency considered to be a vibration is 7
The total number of vibrations considered is 44


--------------------------
THERMOCHEMISTRY AT 298.15K
--------------------------

Temperature         ... 298.15 K
Pressure            ... 1.00 atm
Total Mass          ... 139.13 AMU

Throughout the following assumptions are being made:
  (1) The electronic state is orbitally nondegenerate
  (2) There are no thermally accessible electronically excited states
  (3) Hindered rotations indicated by low frequency modes are not
      treated as such but are treated as vibrations and this may
      cause some error
  (4) All equations used are the standard statistical mechanics
      equations for an ideal gas
  (5) All vibrations are strictly harmonic

freq.       3.50  E(vib)   ...       0.59 
freq.       5.23  E(vib)   ...       0.59 
freq.      61.89  E(vib)   ...       0.51 
freq.     134.43  E(vib)   ...       0.42 
freq.     234.10  E(vib)   ...       0.32 
freq.     300.03  E(vib)   ...       0.26 
freq.     382.79  E(vib)   ...       0.20 
freq.     400.35  E(vib)   ...       0.19 
freq.     414.32  E(vib)   ...       0.19 
freq.     499.25  E(vib)   ...       0.14 
freq.     543.39  E(vib)   ...       0.12 
freq.     560.89  E(vib)   ...       0.11 
freq.     589.56  E(vib)   ...       0.10 
freq.     669.98  E(vib)   ...       0.08 
freq.     676.48  E(vib)   ...       0.08 
freq.     740.76  E(vib)   ...       0.06 
freq.     775.37  E(vib)   ...       0.05 
freq.     797.47  E(vib)   ...       0.05 
freq.     840.92  E(vib)   ...       0.04 
freq.     889.39  E(vib)   ...       0.04 
freq.     895.58  E(vib)   ...       0.03 
freq.    1004.37  E(vib)   ...       0.02 
freq.    1017.28  E(vib)   ...       0.02 
freq.    1033.53  E(vib)   ...       0.02 
freq.    1054.01  E(vib)   ...       0.02 
freq.    1107.12  E(vib)   ...       0.02 
freq.    1163.88  E(vib)   ...       0.01 
freq.    1180.75  E(vib)   ...       0.01 
freq.    1300.47  E(vib)   ...       0.01 
freq.    1356.99  E(vib)   ...       0.01 
freq.    1399.53  E(vib)   ...       0.00 
freq.    1416.77  E(vib)   ...       0.00 
freq.    1489.43  E(vib)   ...       0.00 
freq.    1504.98  E(vib)   ...       0.00 
freq.    1553.46  E(vib)   ...       0.00 
freq.    1590.49  E(vib)   ...       0.00 
freq.    1654.27  E(vib)   ...       0.00 
freq.    1700.28  E(vib)   ...       0.00 
freq.    3196.83  E(vib)   ...       0.00 
freq.    3211.57  E(vib)   ...       0.00 
freq.    3220.66  E(vib)   ...       0.00 
freq.    3233.72  E(vib)   ...       0.00 
freq.    3406.96  E(vib)   ...       0.00 
freq.    3629.41  E(vib)   ...       0.00 

------------
INNER ENERGY
------------

The inner energy is: U= E(el) + E(ZPE) + E(vib) + E(rot) + E(trans)
    E(el)   - is the total energy from the electronic structure calculation
              = E(kin-el) + E(nuc-el) + E(el-el) + E(nuc-nuc)
    E(ZPE)  - the the zero temperature vibrational energy from the frequency calculation
    E(vib)  - the the finite temperature correction to E(ZPE) due to population
              of excited vibrational states
    E(rot)  - is the rotational thermal energy
    E(trans)- is the translational thermal energy

Summary of contributions to the inner energy U:
Electronic energy                ...   -491.66564709 Eh
Zero point energy                ...      0.12038394 Eh      75.54 kcal/mol
Thermal vibrational correction   ...      0.00691715 Eh       4.34 kcal/mol
Thermal rotational correction    ...      0.00141627 Eh       0.89 kcal/mol
Thermal translational correction ...      0.00141627 Eh       0.89 kcal/mol
-----------------------------------------------------------------------
Total thermal energy                   -491.53551345 Eh


Summary of corrections to the electronic energy:
(perhaps to be used in another calculation)
Total thermal correction                  0.00974970 Eh       6.12 kcal/mol
Non-thermal (ZPE) correction              0.12038394 Eh      75.54 kcal/mol
-----------------------------------------------------------------------
Total correction                          0.13013364 Eh      81.66 kcal/mol


--------
ENTHALPY
--------

The enthalpy is H = U + kB*T
                kB is Boltzmann's constant
Total free energy                 ...   -491.53551345 Eh 
Thermal Enthalpy correction       ...      0.00094421 Eh       0.59 kcal/mol
-----------------------------------------------------------------------
Total Enthalpy                    ...   -491.53456924 Eh


Note: Only C1 symmetry has been detected, increase convergence thresholds 
      if your molecule has a higher symmetry. Symmetry factor of 1.0 is   
      used for the rotational entropy correction. 
 

Note: Rotational entropy computed according to Herzberg 
Infrared and Raman Spectra, Chapter V,1, Van Nostrand Reinhold, 1945 
Point Group:  C1, Symmetry Number:   1  
Rotational constants in cm-1:     0.047741     0.009816     0.008261 

Vibrational entropy computed according to the QRRHO of S. Grimme
Chem.Eur.J. 2012 18 9955


-------
ENTROPY
-------

The entropy contributions are T*S = T*(S(el)+S(vib)+S(rot)+S(trans))
     S(el)   - electronic entropy
     S(vib)  - vibrational entropy
     S(rot)  - rotational entropy
     S(trans)- translational entropy
The entropies will be listed as multiplied by the temperature to get
units of energy

Electronic entropy                ...      0.00000000 Eh      0.00 kcal/mol
Vibrational entropy               ...      0.01383072 Eh      8.68 kcal/mol
Rotational entropy                ...      0.01539397 Eh      9.66 kcal/mol
Translational entropy             ...      0.01933899 Eh     12.14 kcal/mol
-----------------------------------------------------------------------
Final entropy term                ...      0.04856368 Eh     30.47 kcal/mol

In case the symmetry of your molecule has not been determined correctly
or in case you have a reason to use a different symmetry number we print 
out the resulting rotational entropy values for sn=1,12 :
 --------------------------------------------------------
|  sn= 1 | S(rot)=       0.01539397 Eh      9.66 kcal/mol|
|  sn= 2 | S(rot)=       0.01473951 Eh      9.25 kcal/mol|
|  sn= 3 | S(rot)=       0.01435668 Eh      9.01 kcal/mol|
|  sn= 4 | S(rot)=       0.01408505 Eh      8.84 kcal/mol|
|  sn= 5 | S(rot)=       0.01387437 Eh      8.71 kcal/mol|
|  sn= 6 | S(rot)=       0.01370222 Eh      8.60 kcal/mol|
|  sn= 7 | S(rot)=       0.01355667 Eh      8.51 kcal/mol|
|  sn= 8 | S(rot)=       0.01343060 Eh      8.43 kcal/mol|
|  sn= 9 | S(rot)=       0.01331939 Eh      8.36 kcal/mol|
|  sn=10 | S(rot)=       0.01321991 Eh      8.30 kcal/mol|
|  sn=11 | S(rot)=       0.01312992 Eh      8.24 kcal/mol|
|  sn=12 | S(rot)=       0.01304776 Eh      8.19 kcal/mol|
 --------------------------------------------------------


-------------------
GIBBS FREE ENERGY
-------------------

The Gibbs free energy is G = H - T*S

Total enthalpy                    ...   -491.53456924 Eh 
Total entropy correction          ...     -0.04856368 Eh    -30.47 kcal/mol
-----------------------------------------------------------------------
Final Gibbs free energy         ...   -491.58313292 Eh

For completeness - the Gibbs free energy minus the electronic energy
G-E(el)                           ...      0.08251417 Eh     51.78 kcal/mol


Timings for individual modules:

Sum of individual times         ...    14629.596 sec (= 243.827 min)
GTO integral calculation        ...       49.905 sec (=   0.832 min)   0.3 %
SCF iterations                  ...     9895.240 sec (= 164.921 min)  67.6 %
SCF Gradient evaluation         ...     4022.825 sec (=  67.047 min)  27.5 %
Geometry relaxation             ...       15.458 sec (=   0.258 min)   0.1 %
Analytical frequency calculation...      646.168 sec (=  10.769 min)   4.4 %
                             ****ORCA TERMINATED NORMALLY****
TOTAL RUN TIME: 0 days 4 hours 4 minutes 52 seconds 178 msec
