
                                 *****************
                                 * O   R   C   A *
                                 *****************

                                            #,                                       
                                            ###                                      
                                            ####                                     
                                            #####                                    
                                            ######                                   
                                           ########,                                 
                                     ,,################,,,,,                         
                               ,,#################################,,                 
                          ,,##########################################,,             
                       ,#########################################, ''#####,          
                    ,#############################################,,   '####,        
                  ,##################################################,,,,####,       
                ,###########''''           ''''###############################       
              ,#####''   ,,,,##########,,,,          '''####'''          '####       
            ,##' ,,,,###########################,,,                        '##       
           ' ,,###''''                  '''############,,,                           
         ,,##''                                '''############,,,,        ,,,,,,###''
      ,#''                                            '''#######################'''  
     '                                                          ''''####''''         
             ,#######,   #######,   ,#######,      ##                                
            ,#'     '#,  ##    ##  ,#'     '#,    #''#        ######   ,####,        
            ##       ##  ##   ,#'  ##            #'  '#       #        #'  '#        
            ##       ##  #######   ##           ,######,      #####,   #    #        
            '#,     ,#'  ##    ##  '#,     ,#' ,#      #,         ##   #,  ,#        
             '#######'   ##     ##  '#######'  #'      '#     #####' # '####'        



                  #######################################################
                  #                        -***-                        #
                  #          Department of theory and spectroscopy      #
                  #    Directorship and core code : Frank Neese         #
                  #        Max Planck Institute fuer Kohlenforschung    #
                  #                Kaiser Wilhelm Platz 1               #
                  #                 D-45470 Muelheim/Ruhr               #
                  #                      Germany                        #
                  #                                                     #
                  #                  All rights reserved                #
                  #                        -***-                        #
                  #######################################################



                         Program Version 5.0.4 -  RELEASE  -

 With contributions from (in alphabetic order):
   Daniel Aravena         : Magnetic Suceptibility
   Michael Atanasov       : Ab Initio Ligand Field Theory (pilot matlab implementation)
   Alexander A. Auer      : GIAO ZORA, VPT2 properties, NMR spectrum
   Ute Becker             : Parallelization
   Giovanni Bistoni       : ED, misc. LED, open-shell LED, HFLD
   Martin Brehm           : Molecular dynamics
   Dmytro Bykov           : SCF Hessian
   Vijay G. Chilkuri      : MRCI spin determinant printing, contributions to CSF-ICE
   Dipayan Datta          : RHF DLPNO-CCSD density
   Achintya Kumar Dutta   : EOM-CC, STEOM-CC
   Dmitry Ganyushin       : Spin-Orbit,Spin-Spin,Magnetic field MRCI
   Miquel Garcia          : C-PCM and meta-GGA Hessian, CC/C-PCM, Gaussian charge scheme
   Yang Guo               : DLPNO-NEVPT2, F12-NEVPT2, CIM, IAO-localization
   Andreas Hansen         : Spin unrestricted coupled pair/coupled cluster methods
   Benjamin Helmich-Paris : MC-RPA, TRAH-SCF, COSX integrals
   Lee Huntington         : MR-EOM, pCC
   Robert Izsak           : Overlap fitted RIJCOSX, COSX-SCS-MP3, EOM
   Marcus Kettner         : VPT2
   Christian Kollmar      : KDIIS, OOCD, Brueckner-CCSD(T), CCSD density, CASPT2, CASPT2-K
   Simone Kossmann        : Meta GGA functionals, TD-DFT gradient, OOMP2, MP2 Hessian
   Martin Krupicka        : Initial AUTO-CI
   Lucas Lang             : DCDCAS
   Marvin Lechner         : AUTO-CI (C++ implementation), FIC-MRCC
   Dagmar Lenk            : GEPOL surface, SMD
   Dimitrios Liakos       : Extrapolation schemes; Compound Job, initial MDCI parallelization
   Dimitrios Manganas     : Further ROCIS development; embedding schemes
   Dimitrios Pantazis     : SARC Basis sets
   Anastasios Papadopoulos: AUTO-CI, single reference methods and gradients
   Taras Petrenko         : DFT Hessian,TD-DFT gradient, ASA, ECA, R-Raman, ABS, FL, XAS/XES, NRVS
   Peter Pinski           : DLPNO-MP2, DLPNO-MP2 Gradient
   Christoph Reimann      : Effective Core Potentials
   Marius Retegan         : Local ZFS, SOC
   Christoph Riplinger    : Optimizer, TS searches, QM/MM, DLPNO-CCSD(T), (RO)-DLPNO pert. Triples
   Tobias Risthaus        : Range-separated hybrids, TD-DFT gradient, RPA, STAB
   Michael Roemelt        : Original ROCIS implementation
   Masaaki Saitow         : Open-shell DLPNO-CCSD energy and density
   Barbara Sandhoefer     : DKH picture change effects
   Avijit Sen             : IP-ROCIS
   Kantharuban Sivalingam : CASSCF convergence, NEVPT2, FIC-MRCI
   Bernardo de Souza      : ESD, SOC TD-DFT
   Georgi Stoychev        : AutoAux, RI-MP2 NMR, DLPNO-MP2 response
   Willem Van den Heuvel  : Paramagnetic NMR
   Boris Wezisla          : Elementary symmetry handling
   Frank Wennmohs         : Technical directorship


 We gratefully acknowledge several colleagues who have allowed us to
 interface, adapt or use parts of their codes:
   Stefan Grimme, W. Hujo, H. Kruse, P. Pracht,  : VdW corrections, initial TS optimization,
                  C. Bannwarth, S. Ehlert          DFT functionals, gCP, sTDA/sTD-DF
   Ed Valeev, F. Pavosevic, A. Kumar             : LibInt (2-el integral package), F12 methods
   Garnet Chan, S. Sharma, J. Yang, R. Olivares  : DMRG
   Ulf Ekstrom                                   : XCFun DFT Library
   Mihaly Kallay                                 : mrcc  (arbitrary order and MRCC methods)
   Jiri Pittner, Ondrej Demel                    : Mk-CCSD
   Frank Weinhold                                : gennbo (NPA and NBO analysis)
   Christopher J. Cramer and Donald G. Truhlar   : smd solvation model
   Lars Goerigk                                  : TD-DFT with DH, B97 family of functionals
   V. Asgeirsson, H. Jonsson                     : NEB implementation
   FAccTs GmbH                                   : IRC, NEB, NEB-TS, DLPNO-Multilevel, CI-OPT
                                                   MM, QMMM, 2- and 3-layer-ONIOM, Crystal-QMMM,
                                                   LR-CPCM, SF, NACMEs, symmetry and pop. for TD-DFT,
                                                   nearIR, NL-DFT gradient (VV10), updates on ESD,
                                                   ML-optimized integration grids
   S Lehtola, MJT Oliveira, MAL Marques          : LibXC Library
   Liviu Ungur et al                             : ANISO software


 Your calculation uses the libint2 library for the computation of 2-el integrals
 For citations please refer to: http://libint.valeyev.net

 Your ORCA version has been built with support for libXC version: 5.1.0
 For citations please refer to: https://tddft.org/programs/libxc/

 This ORCA versions uses:
   CBLAS   interface :  Fast vector & matrix operations
   LAPACKE interface :  Fast linear algebra routines
   Shared memory     :  Shared parallel matrices


Your calculation utilizes the atom-pairwise dispersion correction
based on tight binding partial charges (D4)
Cite in your paper:
E.Caldeweyher, C.Bannwarth, S.Grimme, J.Chem.Phys., (2017), 147, 034112.
E.Caldeweyher, S.Ehlert, A.Hansen, H.Neugebauer, S.Grimme, J.Chem.Phys., (2018), in progress.
   

================================================================================

----- Orbital basis set information -----
Your calculation utilizes the basis: def2-SVP
   F. Weigend and R. Ahlrichs, Phys. Chem. Chem. Phys. 7, 3297 (2005).

----- AuxJ basis set information -----
Your calculation utilizes the auxiliary basis: def2/J
   F. Weigend, Phys. Chem. Chem. Phys. 8, 1057 (2006).

================================================================================
                                        WARNINGS
                       Please study these warnings very carefully!
================================================================================


WARNING: Geometry Optimization
  ===> : Switching off AutoStart
         For restart on a previous wavefunction, please use MOREAD

INFO   : the flag for use of the SHARK integral package has been found!

================================================================================
                                       INPUT FILE
================================================================================
NAME = para_p_opt_9.inp
|  1> !B3LYP DEF2-SVP OPT FREQ D4
|  2> 
|  3> %geom
|  4> convergence tight
|  5> end
|  6> 
|  7> * xyz 1 1
|  8>   C   -5.67695220005086      0.99266619596709      0.17177845556716
|  9>   C   -6.67689454439482      1.58144442250734     -0.61681227462598
| 10>   C   -7.28942180168736      0.88046095237799     -1.63497633877599
| 11>   C   -6.90163930909708     -0.43659930583611     -1.86829464111767
| 12>   C   -5.92605243972020     -1.05197072525574     -1.10620309933597
| 13>   C   -5.31803331583721     -0.32649230064230     -0.08768555980852
| 14>   C   -5.01138109010873      1.80382660711915      1.24759068825929
| 15>   H   -4.33582245821924      1.19371025114866      1.86421636336675
| 16>   H   -5.75616192064183      2.26888440163102      1.91403645907747
| 17>   H   -4.41830935181062      2.62427293580349      0.80831154397869
| 18>   H   -6.97298518154123      2.61619334885659     -0.42361451165284
| 19>   H   -8.06337591179631      1.32557987931019     -2.25980333092731
| 20>   H   -5.65244016619736     -2.08525883290848     -1.31804305675835
| 21>   H   -4.54186660705652     -0.80290756941923      0.51707431429934
| 22>   N   -7.54359187022527     -1.18855089041988     -2.95421914909120
| 23>   O   -7.22743453312801     -2.36062454698891     -3.10394868856855
| 24>   O   -8.35791397972911     -0.59931664630895     -3.65051799774234
| 25>   H   -13.73853331875812     -9.81341817694189    -11.52509917614396
| 26> **                         ****END OF INPUT****
================================================================================

                       *****************************
                       * Geometry Optimization Run *
                       *****************************

Geometry optimization settings:
Update method            Update   .... BFGS
Choice of coordinates    CoordSys .... Z-matrix Internals
Initial Hessian          InHess   .... Almoef's Model

Convergence Tolerances:
Energy Change            TolE     ....  1.0000e-06 Eh
Max. Gradient            TolMAXG  ....  1.0000e-04 Eh/bohr
RMS Gradient             TolRMSG  ....  3.0000e-05 Eh/bohr
Max. Displacement        TolMAXD  ....  1.0000e-03 bohr
RMS Displacement         TolRMSD  ....  6.0000e-04 bohr
Strict Convergence                ....  False
------------------------------------------------------------------------------
                        ORCA OPTIMIZATION COORDINATE SETUP
------------------------------------------------------------------------------

The optimization will be done in new redundant internal coordinates
Making redundant internal coordinates   ...  (new redundants) done
Evaluating the initial hessian          ...  (Almloef) done
Evaluating the coordinates              ...  done
Calculating the B-matrix                .... done
Calculating the G-matrix                .... done
Diagonalizing the G-matrix              .... done
Small eigenvalue found = 7.921e-03
Small eigenvalue found = 2.290e-02
The first mode is                       ....   47
The number of degrees of freedom        ....   48

    -----------------------------------------------------------------
                    Redundant Internal Coordinates


    -----------------------------------------------------------------
         Definition                    Initial Value    Approx d2E/dq
    -----------------------------------------------------------------
      1. B(C   1,C   0)                  1.4030         0.595651   
      2. B(C   2,C   1)                  1.3796         0.649190   
      3. B(C   3,C   2)                  1.3926         0.618755   
      4. B(C   4,C   3)                  1.3825         0.642311   
      5. B(C   5,C   4)                  1.3905         0.623737   
      6. B(C   5,C   0)                  1.3915         0.621321   
      7. B(C   6,C   0)                  1.5028         0.412867   
      8. B(H   7,C   6)                  1.0995         0.347779   
      9. B(H   8,C   6)                  1.1023         0.344155   
     10. B(H   9,C   6)                  1.1036         0.342608   
     11. B(H  10,C   1)                  1.0935         0.355525   
     12. B(H  11,C   2)                  1.0897         0.360437   
     13. B(H  12,C   4)                  1.0897         0.360510   
     14. B(H  13,C   5)                  1.0932         0.355859   
     15. B(N  14,C   3)                  1.4686         0.419261   
     16. B(O  15,N  14)                  1.2232         0.925099   
     17. B(O  16,N  14)                  1.2228         0.926463   
     18. B(H  17,O  16)                 13.2612         0.000000   
     19. B(H  17,O  15)                 12.9944         0.000000   
     20. B(H  17,N  14)                 13.6465         0.000000   
     21. A(C   1,C   0,C   6)          119.4403         0.400887   
     22. A(C   5,C   0,C   6)          122.0699         0.403880   
     23. A(C   1,C   0,C   5)          118.4806         0.431116   
     24. A(C   2,C   1,H  10)          119.4060         0.354901   
     25. A(C   0,C   1,H  10)          119.3929         0.349771   
     26. A(C   0,C   1,C   2)          121.2006         0.434530   
     27. A(C   3,C   2,H  11)          119.2087         0.352845   
     28. A(C   1,C   2,H  11)          122.0697         0.355728   
     29. A(C   1,C   2,C   3)          118.7215         0.437519   
     30. A(C   2,C   3,C   4)          121.6755         0.436680   
     31. A(C   4,C   3,N  14)          119.2203         0.404742   
     32. A(C   2,C   3,N  14)          119.1040         0.402083   
     33. A(C   3,C   4,C   5)          118.6938         0.437312   
     34. A(C   5,C   4,H  12)          121.8267         0.353336   
     35. A(C   3,C   4,H  12)          119.4793         0.355098   
     36. A(C   0,C   5,C   4)          121.2261         0.434702   
     37. A(C   4,C   5,H  13)          119.2287         0.352560   
     38. A(C   0,C   5,H  13)          119.5450         0.352329   
     39. A(H   8,C   6,H   9)          106.8644         0.286542   
     40. A(H   7,C   6,H   9)          107.7937         0.287011   
     41. A(C   0,C   6,H   9)          110.7540         0.327009   
     42. A(H   7,C   6,H   8)          108.0702         0.287213   
     43. A(C   0,C   6,H   8)          111.1797         0.327251   
     44. A(C   0,C   6,H   7)          111.9683         0.327817   
     45. A(O  16,N  14,H  17)           69.1814         0.089008   
     46. A(O  15,N  14,H  17)           55.5860         0.089008   
     47. A(C   3,N  14,H  17)          170.5597         0.089007   
     48. A(O  15,N  14,O  16)          124.3460         0.489150   
     49. A(C   3,N  14,O  16)          117.7386         0.426357   
     50. A(C   3,N  14,O  15)          117.9153         0.426245   
     51. A(N  14,O  15,H  17)          119.9602         0.089014   
     52. A(N  14,O  16,H  17)          105.8744         0.089011   
     53. A(O  15,H  17,O  16)            9.3795         0.089000   
     54. D(H  10,C   1,C   0,C   5)    179.7923         0.024440   
     55. D(H  10,C   1,C   0,C   6)     -1.2884         0.024440   
     56. D(C   2,C   1,C   0,C   6)    178.4429         0.024440   
     57. D(C   2,C   1,C   0,C   5)     -0.4763         0.024440   
     58. D(C   3,C   2,C   1,C   0)      0.2893         0.029339   
     59. D(H  11,C   2,C   1,H  10)      0.0941         0.029339   
     60. D(C   3,C   2,C   1,H  10)   -179.9794         0.029339   
     61. D(H  11,C   2,C   1,C   0)   -179.6372         0.029339   
     62. D(N  14,C   3,C   2,H  11)      0.2209         0.026486   
     63. D(N  14,C   3,C   2,C   1)   -179.7077         0.026486   
     64. D(C   4,C   3,C   2,H  11)   -179.9503         0.026486   
     65. D(C   4,C   3,C   2,C   1)      0.1211         0.026486   
     66. D(C   5,C   4,C   3,N  14)    179.5000         0.028678   
     67. D(H  12,C   4,C   3,C   2)    179.8155         0.028678   
     68. D(C   5,C   4,C   3,C   2)     -0.3286         0.028678   
     69. D(H  12,C   4,C   3,N  14)     -0.3559         0.028678   
     70. D(H  13,C   5,C   4,H  12)      0.1609         0.026941   
     71. D(C   0,C   5,C   4,H  12)    179.9834         0.026941   
     72. D(C   0,C   5,C   4,C   3)      0.1310         0.026941   
     73. D(H  13,C   5,C   0,C   6)      1.1942         0.026720   
     74. D(H  13,C   5,C   0,C   1)   -179.9165         0.026720   
     75. D(H  13,C   5,C   4,C   3)   -179.6915         0.026941   
     76. D(C   4,C   5,C   0,C   6)   -178.6277         0.026720   
     77. D(C   4,C   5,C   0,C   1)      0.2616         0.026720   
     78. D(H   9,C   6,C   0,C   5)    112.5444         0.012619   
     79. D(H   9,C   6,C   0,C   1)    -66.3346         0.012619   
     80. D(H   8,C   6,C   0,C   5)   -128.8002         0.012619   
     81. D(H   8,C   6,C   0,C   1)     52.3208         0.012619   
     82. D(H   7,C   6,C   0,C   5)     -7.8032         0.012619   
     83. D(H   7,C   6,C   0,C   1)    173.3179         0.012619   
     84. D(O  15,N  14,C   3,C   2)   -176.9683         0.014989   
     85. D(H  17,N  14,C   3,C   4)     47.7160         0.014989   
     86. D(H  17,N  14,C   3,C   2)   -132.4510         0.014989   
     87. D(O  16,N  14,C   3,C   4)   -176.6811         0.014989   
     88. D(O  16,N  14,C   3,C   2)      3.1519         0.014989   
     89. D(O  15,N  14,C   3,C   4)      3.1987         0.014989   
     90. D(H  17,O  15,N  14,O  16)     -8.1418         0.090263   
     91. D(H  17,O  15,N  14,C   3)    171.9871         0.090263   
     92. D(H  17,O  16,N  14,O  15)      7.1805         0.090572   
     93. D(H  17,O  16,N  14,C   3)   -172.9481         0.090572   
     94. D(O  15,H  17,O  16,N  14)     -3.4173         0.001500   
     95. D(O  16,H  17,O  15,N  14)      3.7932         0.001500   
    -----------------------------------------------------------------

Number of atoms                         .... 18
Number of degrees of freedom            .... 95

         *************************************************************
         *                GEOMETRY OPTIMIZATION CYCLE   1            *
         *************************************************************
---------------------------------
CARTESIAN COORDINATES (ANGSTROEM)
---------------------------------
  C     -5.676952    0.992666    0.171778
  C     -6.676895    1.581444   -0.616812
  C     -7.289422    0.880461   -1.634976
  C     -6.901639   -0.436599   -1.868295
  C     -5.926052   -1.051971   -1.106203
  C     -5.318033   -0.326492   -0.087686
  C     -5.011381    1.803827    1.247591
  H     -4.335822    1.193710    1.864216
  H     -5.756162    2.268884    1.914036
  H     -4.418309    2.624273    0.808312
  H     -6.972985    2.616193   -0.423615
  H     -8.063376    1.325580   -2.259803
  H     -5.652440   -2.085259   -1.318043
  H     -4.541867   -0.802908    0.517074
  N     -7.543592   -1.188551   -2.954219
  O     -7.227435   -2.360625   -3.103949
  O     -8.357914   -0.599317   -3.650518
  H    -13.738533   -9.813418  -11.525099

----------------------------
CARTESIAN COORDINATES (A.U.)
----------------------------
  NO LB      ZA    FRAG     MASS         X           Y           Z
   0 C     6.0000    0    12.011  -10.727885    1.875867    0.324614
   1 C     6.0000    0    12.011  -12.617502    2.988497   -1.165606
   2 C     6.0000    0    12.011  -13.775011    1.663830   -3.089658
   3 C     6.0000    0    12.011  -13.042208   -0.825053   -3.530565
   4 C     6.0000    0    12.011  -11.198616   -1.987937   -2.090421
   5 C     6.0000    0    12.011  -10.049627   -0.616981   -0.165702
   6 C     6.0000    0    12.011   -9.470138    3.408738    2.357605
   7 H     1.0000    0     1.008   -8.193517    2.255785    3.522858
   8 H     1.0000    0     1.008  -10.877570    4.287570    3.617005
   9 H     1.0000    0     1.008   -8.349395    4.959157    1.527487
  10 H     1.0000    0     1.008  -13.177032    4.943889   -0.800515
  11 H     1.0000    0     1.008  -15.237572    2.504983   -4.270409
  12 H     1.0000    0     1.008  -10.681564   -3.940568   -2.490740
  13 H     1.0000    0     1.008   -8.582884   -1.517275    0.977129
  14 N     7.0000    0    14.007  -14.255323   -2.246036   -5.582665
  15 O     8.0000    0    15.999  -13.657872   -4.460934   -5.865613
  16 O     8.0000    0    15.999  -15.794168   -1.132544   -6.898479
  17 H     1.0000    0     1.008  -25.962065  -18.544673  -21.779281

--------------------------------
INTERNAL COORDINATES (ANGSTROEM)
--------------------------------
 C      0   0   0     0.000000000000     0.00000000     0.00000000
 C      1   0   0     1.403003860225     0.00000000     0.00000000
 C      2   1   0     1.379574400983   121.20057550     0.00000000
 C      3   2   1     1.392645114713   118.72153762     0.28925363
 C      4   3   2     1.382474318602   121.67546006     0.12105613
 C      5   4   3     1.390461857770   118.69379579   359.67142336
 C      1   2   3     1.502776788156   119.44032144   178.44294389
 H      7   1   2     1.099476537333   111.96832911   173.31786667
 H      7   1   2     1.102328083289   111.17967516    52.32084510
 H      7   1   2     1.103554453400   110.75400024   293.66540382
 H      2   1   3     1.093480855619   119.39285792   180.26863294
 H      3   2   1     1.089745196727   122.06972467   180.36278331
 H      5   4   3     1.089689936266   119.47931361   179.81551237
 H      6   5   4     1.093224941846   119.22868961   180.30850911
 N      4   3   2     1.468593311068   119.10404869   180.29231742
 O     15   4   3     1.223164360671   117.91525953   183.03169465
 O     15   4   3     1.222763091974   117.73864806     3.15188167
 H     16  15   4    12.994395554288   119.96023826   171.98708132

---------------------------
INTERNAL COORDINATES (A.U.)
---------------------------
 C      0   0   0     0.000000000000     0.00000000     0.00000000
 C      1   0   0     2.651293060660     0.00000000     0.00000000
 C      2   1   0     2.607017799226   121.20057550     0.00000000
 C      3   2   1     2.631717868551   118.72153762     0.28925363
 C      4   3   2     2.612497849337   121.67546006     0.12105613
 C      5   4   3     2.627592110848   118.69379579   359.67142336
 C      1   2   3     2.839836570028   119.44032144   178.44294389
 H      7   1   2     2.077709546231   111.96832911   173.31786667
 H      7   1   2     2.083098187146   111.17967516    52.32084510
 H      7   1   2     2.085415690796   110.75400024   293.66540382
 H      2   1   3     2.066379349805   119.39285792   180.26863294
 H      3   2   1     2.059319977569   122.06972467   180.36278331
 H      5   4   3     2.059215550433   119.47931361   179.81551237
 H      6   5   4     2.065895742861   119.22868961   180.30850911
 N      4   3   2     2.775239160028   119.10404869   180.29231742
 O     15   4   3     2.311445658441   117.91525953   183.03169465
 O     15   4   3     2.310687370497   117.73864806     3.15188167
 H     16  15   4    24.555848873448   119.96023826   171.98708132

---------------------
BASIS SET INFORMATION
---------------------
There are 4 groups of distinct atoms

 Group   1 Type C   : 7s4p1d contracted to 3s2p1d pattern {511/31/1}
 Group   2 Type H   : 4s1p contracted to 2s1p pattern {31/1}
 Group   3 Type N   : 7s4p1d contracted to 3s2p1d pattern {511/31/1}
 Group   4 Type O   : 7s4p1d contracted to 3s2p1d pattern {511/31/1}

Atom   0C    basis set group =>   1
Atom   1C    basis set group =>   1
Atom   2C    basis set group =>   1
Atom   3C    basis set group =>   1
Atom   4C    basis set group =>   1
Atom   5C    basis set group =>   1
Atom   6C    basis set group =>   1
Atom   7H    basis set group =>   2
Atom   8H    basis set group =>   2
Atom   9H    basis set group =>   2
Atom  10H    basis set group =>   2
Atom  11H    basis set group =>   2
Atom  12H    basis set group =>   2
Atom  13H    basis set group =>   2
Atom  14N    basis set group =>   3
Atom  15O    basis set group =>   4
Atom  16O    basis set group =>   4
Atom  17H    basis set group =>   2
---------------------------------
AUXILIARY/J BASIS SET INFORMATION
---------------------------------
There are 4 groups of distinct atoms

 Group   1 Type C   : 12s5p4d2f1g contracted to 6s4p3d1f1g pattern {711111/2111/211/2/1}
 Group   2 Type H   : 5s2p1d contracted to 3s1p1d pattern {311/2/1}
 Group   3 Type N   : 12s5p4d2f1g contracted to 6s4p3d1f1g pattern {711111/2111/211/2/1}
 Group   4 Type O   : 12s5p4d2f1g contracted to 6s4p3d1f1g pattern {711111/2111/211/2/1}

Atom   0C    basis set group =>   1
Atom   1C    basis set group =>   1
Atom   2C    basis set group =>   1
Atom   3C    basis set group =>   1
Atom   4C    basis set group =>   1
Atom   5C    basis set group =>   1
Atom   6C    basis set group =>   1
Atom   7H    basis set group =>   2
Atom   8H    basis set group =>   2
Atom   9H    basis set group =>   2
Atom  10H    basis set group =>   2
Atom  11H    basis set group =>   2
Atom  12H    basis set group =>   2
Atom  13H    basis set group =>   2
Atom  14N    basis set group =>   3
Atom  15O    basis set group =>   4
Atom  16O    basis set group =>   4
Atom  17H    basis set group =>   2
------------------------------------------------------------------------------
                           ORCA GTO INTEGRAL CALCULATION
                           -- RI-GTO INTEGRALS CHOSEN --
------------------------------------------------------------------------------
------------------------------------------------------------------------------
                   ___                                                        
                  /   \      - P O W E R E D   B Y -                         
                 /     \                                                     
                 |  |  |   _    _      __       _____    __    __             
                 |  |  |  | |  | |    /  \     |  _  \  |  |  /  |          
                  \  \/   | |  | |   /    \    | | | |  |  | /  /          
                 / \  \   | |__| |  /  /\  \   | |_| |  |  |/  /          
                |  |  |   |  __  | /  /__\  \  |    /   |      \           
                |  |  |   | |  | | |   __   |  |    \   |  |\   \          
                \     /   | |  | | |  |  |  |  | |\  \  |  | \   \       
                 \___/    |_|  |_| |__|  |__|  |_| \__\ |__|  \__/        
                                                                              
                      - O R C A' S   B I G   F R I E N D -                    
                                      &                                       
                       - I N T E G R A L  F E E D E R -                       
                                                                              
 v1 FN, 2020, v2 2021                                                         
------------------------------------------------------------------------------


Reading SHARK input file para_p_opt_9.SHARKINP.tmp ... ok
----------------------
SHARK INTEGRAL PACKAGE
----------------------

Number of atoms                             ...     18
Number of basis functions                   ...    180
Number of shells                            ...     84
Maximum angular momentum                    ...      2
Integral batch strategy                     ... SHARK/LIBINT Hybrid
RI-J (if used) integral strategy            ... SPLIT-RIJ (Revised 2003 algorithm where possible)
Printlevel                                  ...      1
Contraction scheme used                     ... SEGMENTED contraction
Coulomb Range Separation                    ... NOT USED
Exchange Range Separation                   ... NOT USED
Finite Nucleus Model                        ... NOT USED
Auxiliary Coulomb fitting basis             ... AVAILABLE
   # of basis functions in Aux-J            ...    578
   # of shells in Aux-J                     ...    190
   Maximum angular momentum in Aux-J        ...      4
Auxiliary J/K fitting basis                 ... NOT available
Auxiliary Correlation fitting basis         ... NOT available
Auxiliary 'external' fitting basis          ... NOT available
Integral threshold                          ...     2.500000e-11
Primitive cut-off                           ...     2.500000e-12
Primitive pair pre-selection threshold      ...     2.500000e-12

Calculating pre-screening integrals         ... done (  0.2 sec) Dimension = 84
Organizing shell pair data                  ... done (  0.1 sec)
Shell pair information
Total number of shell pairs                 ...      3570
Shell pairs after pre-screening             ...      2995
Total number of primitive shell pairs       ...     13034
Primitive shell pairs kept                  ...      7920
          la=0 lb=0:    894 shell pairs
          la=1 lb=0:   1083 shell pairs
          la=1 lb=1:    345 shell pairs
          la=2 lb=0:    385 shell pairs
          la=2 lb=1:    240 shell pairs
          la=2 lb=2:     48 shell pairs

Calculating one electron integrals          ... done (  0.1 sec)
Calculating RI/J V-Matrix + Cholesky decomp.... done (  0.1 sec)
Calculating Nuclear repulsion               ... done (  0.0 sec) ENN=    495.710828948968 Eh

SHARK setup successfully completed in   0.9 seconds

Maximum memory used throughout the entire GTOINT-calculation: 24.6 MB
-------------------------------------------------------------------------------
                                 ORCA SCF
-------------------------------------------------------------------------------

------------
SCF SETTINGS
------------
Hamiltonian:
 Density Functional     Method          .... DFT(GTOs)
 Exchange Functional    Exchange        .... B88
   X-Alpha parameter    XAlpha          ....  0.666667
   Becke's b parameter  XBeta           ....  0.004200
 Correlation Functional Correlation     .... LYP
 LDA part of GGA corr.  LDAOpt          .... VWN-5
 Gradients option       PostSCFGGA      .... off
 Hybrid DFT is turned on
   Fraction HF Exchange ScalHFX         ....  0.200000
   Scaling of DF-GGA-X  ScalDFX         ....  0.720000
   Scaling of DF-GGA-C  ScalDFC         ....  0.810000
   Scaling of DF-LDA-C  ScalLDAC        ....  1.000000
   Perturbative correction              ....  0.000000
   Density functional embedding theory  .... OFF
   NL short-range parameter             ....  4.800000
 RI-approximation to the Coulomb term is turned on
   Number of AuxJ basis functions       .... 578
   RIJ-COSX (HFX calculated with COS-X)).... on


General Settings:
 Integral files         IntName         .... para_p_opt_9
 Hartree-Fock type      HFTyp           .... RHF
 Total Charge           Charge          ....    1
 Multiplicity           Mult            ....    1
 Number of Electrons    NEL             ....   72
 Basis Dimension        Dim             ....  180
 Nuclear Repulsion      ENuc            ....    495.7108289490 Eh

Convergence Acceleration:
 DIIS                   CNVDIIS         .... on
   Start iteration      DIISMaxIt       ....    12
   Startup error        DIISStart       ....  0.200000
   # of expansion vecs  DIISMaxEq       ....     5
   Bias factor          DIISBfac        ....   1.050
   Max. coefficient     DIISMaxC        ....  10.000
 Trust-Rad. Augm. Hess. CNVTRAH         .... auto
   Auto Start mean grad. ratio tolernc. ....  1.125000
   Auto Start start iteration           ....    20
   Auto Start num. interpolation iter.  ....    10
   Max. Number of Micro iterations      ....    16
   Max. Number of Macro iterations      .... Maxiter - #DIIS iter
   Number of Davidson start vectors     ....     2
   Converg. threshold I  (grad. norm)   ....   1.000e-05
   Converg. threshold II (energy diff.) ....   1.000e-08
   Grad. Scal. Fac. for Micro threshold ....   0.100
   Minimum threshold for Micro iter.    ....   0.010
   NR start threshold (gradient norm)   ....   0.001
   Initial trust radius                 ....   0.400
   Minimum AH scaling param. (alpha)    ....   1.000
   Maximum AH scaling param. (alpha)    .... 1000.000
   Orbital update algorithm             .... Taylor
   White noise on init. David. guess    .... on
   Maximum white noise                  ....   0.010
   Quad. conv. algorithm                .... NR
 SOSCF                  CNVSOSCF        .... on
   Start iteration      SOSCFMaxIt      ....   150
   Startup grad/error   SOSCFStart      ....  0.003300
 Level Shifting         CNVShift        .... on
   Level shift para.    LevelShift      ....    0.2500
   Turn off err/grad.   ShiftErr        ....    0.0010
 Zerner damping         CNVZerner       .... off
 Static damping         CNVDamp         .... on
   Fraction old density DampFac         ....    0.7000
   Max. Damping (<1)    DampMax         ....    0.9800
   Min. Damping (>=0)   DampMin         ....    0.0000
   Turn off err/grad.   DampErr         ....    0.1000
 Fernandez-Rico         CNVRico         .... off

SCF Procedure:
 Maximum # iterations   MaxIter         ....   125
 SCF integral mode      SCFMode         .... Direct
   Integral package                     .... SHARK and LIBINT hybrid scheme
 Reset frequency        DirectResetFreq ....    20
 Integral Threshold     Thresh          ....  2.500e-11 Eh
 Primitive CutOff       TCut            ....  2.500e-12 Eh

Convergence Tolerance:
 Convergence Check Mode ConvCheckMode   .... Total+1el-Energy
 Convergence forced     ConvForced      .... 0
 Energy Change          TolE            ....  1.000e-08 Eh
 1-El. energy change                    ....  1.000e-05 Eh
 Orbital Gradient       TolG            ....  1.000e-05
 Orbital Rotation angle TolX            ....  1.000e-05
 DIIS Error             TolErr          ....  5.000e-07


Diagonalization of the overlap matrix:
Smallest eigenvalue                        ... 2.595e-04
Time for diagonalization                   ...    0.013 sec
Threshold for overlap eigenvalues          ... 1.000e-08
Number of eigenvalues below threshold      ... 0
Time for construction of square roots      ...    0.018 sec
Total time needed                          ...    0.032 sec

Time for model grid setup =    1.454 sec

------------------------------
INITIAL GUESS: MODEL POTENTIAL
------------------------------
Loading Hartree-Fock densities                     ... done
Calculating cut-offs                               ... done
Initializing the effective Hamiltonian             ... done
Setting up the integral package (SHARK)            ... done
Starting the Coulomb interaction                   ... done (   0.8 sec)
Reading the grid                                   ... done
Mapping shells                                     ... done
Starting the XC term evaluation                    ... done (   1.6 sec)
  promolecular density results
     # of electrons  =     72.997169549
     EX              =    -61.292331429
     EC              =     -2.482152511
     EX+EC           =    -63.774483940
Transforming the Hamiltonian                       ... done (   0.0 sec)
Diagonalizing the Hamiltonian                      ... done (   0.0 sec)
Back transforming the eigenvectors                 ... done (   0.0 sec)
Now organizing SCF variables                       ... done
                      ------------------
                      INITIAL GUESS DONE (   3.9 sec)
                      ------------------
-------------------
DFT GRID GENERATION
-------------------

General Integration Accuracy     IntAcc      ... 4.388
Radial Grid Type                 RadialGrid  ... OptM3 with GC (2021)
Angular Grid (max. ang.)         AngularGrid ... 4 (Lebedev-302)
Angular grid pruning method      GridPruning ... 4 (adaptive)
Weight generation scheme         WeightScheme... Becke
Basis function cutoff            BFCut       ... 1.0000e-11
Integration weight cutoff        WCut        ... 1.0000e-14
Angular grids for H and He will be reduced by one unit
Partially contracted basis set               ... off
Rotationally invariant grid construction     ... off

Total number of grid points                  ...    86220
Total number of batches                      ...     1356
Average number of points per batch           ...       63
Average number of grid points per atom       ...     4790
Time for grid setup =    5.818 sec

--------------------
COSX GRID GENERATION
--------------------

GRIDX 1
-------
General Integration Accuracy     IntAcc      ... 3.816
Radial Grid Type                 RadialGrid  ... OptM3 with GC (2021)
Angular Grid (max. ang.)         AngularGrid ... 1 (Lebedev-50)
Angular grid pruning method      GridPruning ... 4 (adaptive)
Weight generation scheme         WeightScheme... Becke
Basis function cutoff            BFCut       ... 1.0000e-11
Integration weight cutoff        WCut        ... 1.0000e-14
Angular grids for H and He will be reduced by one unit
Partially contracted basis set               ... on
Rotationally invariant grid construction     ... off

Total number of grid points                  ...    10997
Total number of batches                      ...      178
Average number of points per batch           ...       61
Average number of grid points per atom       ...      611
UseSFitting                                  ... on

GRIDX 2
-------
General Integration Accuracy     IntAcc      ... 4.020
Radial Grid Type                 RadialGrid  ... OptM3 with GC (2021)
Angular Grid (max. ang.)         AngularGrid ... 2 (Lebedev-110)
Angular grid pruning method      GridPruning ... 4 (adaptive)
Weight generation scheme         WeightScheme... Becke
Basis function cutoff            BFCut       ... 1.0000e-11
Integration weight cutoff        WCut        ... 1.0000e-14
Angular grids for H and He will be reduced by one unit
Partially contracted basis set               ... on
Rotationally invariant grid construction     ... off

Total number of grid points                  ...    24191
Total number of batches                      ...      387
Average number of points per batch           ...       62
Average number of grid points per atom       ...     1344
UseSFitting                                  ... on

GRIDX 3
-------
General Integration Accuracy     IntAcc      ... 4.338
Radial Grid Type                 RadialGrid  ... OptM3 with GC (2021)
Angular Grid (max. ang.)         AngularGrid ... 3 (Lebedev-194)
Angular grid pruning method      GridPruning ... 4 (adaptive)
Weight generation scheme         WeightScheme... Becke
Basis function cutoff            BFCut       ... 1.0000e-11
Integration weight cutoff        WCut        ... 1.0000e-14
Angular grids for H and He will be reduced by one unit
Partially contracted basis set               ... on
Rotationally invariant grid construction     ... off

Total number of grid points                  ...    53314
Total number of batches                      ...      843
Average number of points per batch           ...       63
Average number of grid points per atom       ...     2962
UseSFitting                                  ... on

Time for X-Grid setup             =    5.822 sec

--------------
SCF ITERATIONS
--------------
ITER       Energy         Delta-E        Max-DP      RMS-DP      [F,P]     Damp
               ***  Starting incremental Fock matrix formation  ***
  0   -475.1849369043   0.000000000000 0.20729168  0.00352792  0.2171777 0.7000
  1   -475.4331896191  -0.248252714742 0.15059244  0.00225577  0.0762341 0.7000
                               ***Turning on DIIS***
  2   -475.4159824477   0.017207171403 0.35788412  0.00502717  0.0360844 0.0000
  3   -475.3962179855   0.019764462184 0.03463906  0.00125928  0.0775673 0.0000
  4   -475.4326845233  -0.036466537843 0.02077771  0.00067768  0.0512501 0.0000
  5   -475.4449153961  -0.012230872773 0.02067491  0.00075435  0.0342219 0.0000
  6   -475.4527861310  -0.007870734878 0.01262862  0.00059348  0.0200908 0.0000
  7   -475.4561665736  -0.003380442652 0.00837282  0.00039148  0.0088945 0.0000
                      *** Initiating the SOSCF procedure ***
                           *** Shutting down DIIS ***
                      *** Re-Reading the Fockian *** 
                      *** Removing any level shift *** 
ITER      Energy       Delta-E        Grad      Rot      Max-DP    RMS-DP
  8   -475.45704771  -0.0008811355  0.001685  0.001685  0.002795  0.000120
               *** Restarting incremental Fock matrix formation ***
  9   -475.45716855  -0.0001208445  0.000952  0.005137  0.001446  0.000075
 10   -475.45717344  -0.0000048849  0.000656  0.001429  0.001225  0.000048
 11   -475.45718254  -0.0000091062  0.000481  0.001275  0.000985  0.000032
 12   -475.45718096   0.0000015884  0.000691  0.000874  0.000861  0.000021
 13   -475.45718436  -0.0000034052  0.000168  0.000602  0.000323  0.000016
 14   -475.45718420   0.0000001585  0.000179  0.000260  0.000236  0.000008
 15   -475.45718479  -0.0000005909  0.000052  0.000071  0.000104  0.000004
 16   -475.45718478   0.0000000124  0.000057  0.000050  0.000061  0.000002
 17   -475.45718481  -0.0000000296  0.000010  0.000028  0.000031  0.000001
 18   -475.45718481   0.0000000013  0.000011  0.000013  0.000014  0.000000
                  ***Gradient check signals convergence***
              ***Rediagonalizing the Fockian in SOSCF/NRSCF***

               *****************************************************
               *                     SUCCESS                       *
               *           SCF CONVERGED AFTER  19 CYCLES          *
               *****************************************************

Old exchange energy                            =    -12.331012294 Eh
New exchange energy                            =    -12.331000435 Eh
Exchange energy change after final integration =      0.000011859 Eh
Total energy after final integration           =   -475.457172953 Eh
Final COS-X integration done in                =    41.161 sec

----------------
TOTAL SCF ENERGY
----------------

Total Energy       :         -475.45717295 Eh          -12937.84742 eV

Components:
Nuclear Repulsion  :          495.71082895 Eh           13488.97742 eV
Electronic Energy  :         -971.16800190 Eh          -26426.82485 eV
One Electron Energy:        -1625.37218397 Eh          -44228.62567 eV
Two Electron Energy:          654.20418207 Eh           17801.80082 eV
Max COSX asymmetry :            0.00000143 Eh               0.00004 eV

Virial components:
Potential Energy   :         -946.85174933 Eh          -25765.14597 eV
Kinetic Energy     :          471.39457637 Eh           12827.29855 eV
Virial Ratio       :            2.00861825


DFT components:
N(Alpha)           :       35.999972082722 electrons
N(Beta)            :       35.999972082722 electrons
N(Total)           :       71.999944165443 electrons
E(X)               :      -49.076434442787 Eh       
E(C)               :       -2.908017519069 Eh       
E(XC)              :      -51.984451961857 Eh       
DFET-embed. en.    :        0.000000000000 Eh       

---------------
SCF CONVERGENCE
---------------

  Last Energy change         ...   -2.1882e-09  Tolerance :   1.0000e-08
  Last MAX-Density change    ...    3.7969e-15  Tolerance :   1.0000e-07
  Last RMS-Density change    ...    5.2102e-17  Tolerance :   5.0000e-09
  Last Orbital Gradient      ...    7.1009e-07  Tolerance :   1.0000e-05
  Last Orbital Rotation      ...    3.0065e-06  Tolerance :   1.0000e-05

             **** THE GBW FILE WAS UPDATED (para_p_opt_9.gbw) ****
             **** DENSITY para_p_opt_9.scfp WAS UPDATED ****
             **** ENERGY FILE WAS UPDATED (para_p_opt_9.en.tmp) ****
             **** THE GBW FILE WAS UPDATED (para_p_opt_9.gbw) ****
             **** DENSITY para_p_opt_9.scfp WAS UPDATED ****
----------------
ORBITAL ENERGIES
----------------

  NO   OCC          E(Eh)            E(eV) 
   0   2.0000     -19.192887      -522.2650 
   1   2.0000     -19.192810      -522.2629 
   2   2.0000     -14.590036      -397.0151 
   3   2.0000     -10.277131      -279.6549 
   4   2.0000     -10.253438      -279.0102 
   5   2.0000     -10.248545      -278.8771 
   6   2.0000     -10.247773      -278.8561 
   7   2.0000     -10.241874      -278.6956 
   8   2.0000     -10.241269      -278.6791 
   9   2.0000     -10.233967      -278.4804 
  10   2.0000      -1.252752       -34.0891 
  11   2.0000      -1.077774       -29.3277 
  12   2.0000      -0.920908       -25.0592 
  13   2.0000      -0.847473       -23.0609 
  14   2.0000      -0.798732       -21.7346 
  15   2.0000      -0.770254       -20.9597 
  16   2.0000      -0.690772       -18.7968 
  17   2.0000      -0.662967       -18.0403 
  18   2.0000      -0.618203       -16.8221 
  19   2.0000      -0.587538       -15.9877 
  20   2.0000      -0.572098       -15.5676 
  21   2.0000      -0.545454       -14.8426 
  22   2.0000      -0.517766       -14.0891 
  23   2.0000      -0.516590       -14.0571 
  24   2.0000      -0.492299       -13.3961 
  25   2.0000      -0.479387       -13.0448 
  26   2.0000      -0.469554       -12.7772 
  27   2.0000      -0.434318       -11.8184 
  28   2.0000      -0.416134       -11.3236 
  29   2.0000      -0.415148       -11.2968 
  30   2.0000      -0.397734       -10.8229 
  31   2.0000      -0.344595        -9.3769 
  32   2.0000      -0.342897        -9.3307 
  33   2.0000      -0.325182        -8.8486 
  34   2.0000      -0.313711        -8.5365 
  35   2.0000      -0.307220        -8.3599 
  36   0.0000      -0.496618       -13.5137 
  37   0.0000      -0.121417        -3.3039 
  38   0.0000      -0.063000        -1.7143 
  39   0.0000      -0.033808        -0.9200 
  40   0.0000       0.021012         0.5718 
  41   0.0000       0.043424         1.1816 
  42   0.0000       0.053168         1.4468 
  43   0.0000       0.079987         2.1766 
  44   0.0000       0.090104         2.4519 
  45   0.0000       0.105365         2.8671 
  46   0.0000       0.120174         3.2701 
  47   0.0000       0.129460         3.5228 
  48   0.0000       0.144091         3.9209 
  49   0.0000       0.178715         4.8631 
  50   0.0000       0.184359         5.0167 
  51   0.0000       0.220687         6.0052 
  52   0.0000       0.233931         6.3656 
  53   0.0000       0.252520         6.8714 
  54   0.0000       0.259802         7.0696 
  55   0.0000       0.273674         7.4470 
  56   0.0000       0.301805         8.2125 
  57   0.0000       0.323526         8.8036 
  58   0.0000       0.358660         9.7596 
  59   0.0000       0.362920         9.8755 
  60   0.0000       0.386967        10.5299 
  61   0.0000       0.393110        10.6971 
  62   0.0000       0.405459        11.0331 
  63   0.0000       0.424260        11.5447 
  64   0.0000       0.429136        11.6774 
  65   0.0000       0.434424        11.8213 
  66   0.0000       0.460634        12.5345 
  67   0.0000       0.483283        13.1508 
  68   0.0000       0.523016        14.2320 
  69   0.0000       0.528981        14.3943 
  70   0.0000       0.548030        14.9126 
  71   0.0000       0.566426        15.4132 
  72   0.0000       0.585296        15.9267 
  73   0.0000       0.587190        15.9782 
  74   0.0000       0.590515        16.0687 
  75   0.0000       0.602961        16.4074 
  76   0.0000       0.618292        16.8246 
  77   0.0000       0.626031        17.0352 
  78   0.0000       0.632543        17.2124 
  79   0.0000       0.639094        17.3906 
  80   0.0000       0.656082        17.8529 
  81   0.0000       0.672236        18.2925 
  82   0.0000       0.679379        18.4868 
  83   0.0000       0.686264        18.6742 
  84   0.0000       0.723412        19.6851 
  85   0.0000       0.747164        20.3314 
  86   0.0000       0.750532        20.4230 
  87   0.0000       0.776014        21.1164 
  88   0.0000       0.796906        21.6849 
  89   0.0000       0.858853        23.3706 
  90   0.0000       0.871191        23.7063 
  91   0.0000       0.897296        24.4167 
  92   0.0000       0.926009        25.1980 
  93   0.0000       0.943548        25.6753 
  94   0.0000       0.958577        26.0842 
  95   0.0000       0.986148        26.8344 
  96   0.0000       1.013632        27.5823 
  97   0.0000       1.051129        28.6027 
  98   0.0000       1.051129        28.6027 
  99   0.0000       1.051139        28.6029 
 100   0.0000       1.067305        29.0428 
 101   0.0000       1.092937        29.7403 
 102   0.0000       1.144532        31.1443 
 103   0.0000       1.183654        32.2089 
 104   0.0000       1.187590        32.3160 
 105   0.0000       1.192994        32.4630 
 106   0.0000       1.197961        32.5982 
 107   0.0000       1.206737        32.8370 
 108   0.0000       1.238132        33.6913 
 109   0.0000       1.253146        34.0998 
 110   0.0000       1.303794        35.4780 
 111   0.0000       1.353560        36.8322 
 112   0.0000       1.371780        37.3280 
 113   0.0000       1.426652        38.8212 
 114   0.0000       1.448764        39.4229 
 115   0.0000       1.459194        39.7067 
 116   0.0000       1.473302        40.0906 
 117   0.0000       1.494310        40.6622 
 118   0.0000       1.620702        44.1015 
 119   0.0000       1.643103        44.7111 
 120   0.0000       1.655753        45.0553 
 121   0.0000       1.663471        45.2653 
 122   0.0000       1.690821        46.0096 
 123   0.0000       1.696802        46.1723 
 124   0.0000       1.700788        46.2808 
 125   0.0000       1.730863        47.0992 
 126   0.0000       1.734989        47.2114 
 127   0.0000       1.746489        47.5244 
 128   0.0000       1.753838        47.7244 
 129   0.0000       1.764192        48.0061 
 130   0.0000       1.798178        48.9309 
 131   0.0000       1.852255        50.4024 
 132   0.0000       1.886327        51.3296 
 133   0.0000       1.896105        51.5956 
 134   0.0000       1.927501        52.4500 
 135   0.0000       1.952850        53.1398 
 136   0.0000       1.988214        54.1021 
 137   0.0000       2.003405        54.5154 
 138   0.0000       2.029883        55.2359 
 139   0.0000       2.050381        55.7937 
 140   0.0000       2.071963        56.3810 
 141   0.0000       2.104298        57.2609 
 142   0.0000       2.111681        57.4618 
 143   0.0000       2.207801        60.0773 
 144   0.0000       2.239541        60.9410 
 145   0.0000       2.246372        61.1269 
 146   0.0000       2.255638        61.3790 
 147   0.0000       2.268130        61.7189 
 148   0.0000       2.303018        62.6683 
 149   0.0000       2.339961        63.6736 
 150   0.0000       2.354717        64.0751 
 151   0.0000       2.405974        65.4699 
 152   0.0000       2.416680        65.7612 
 153   0.0000       2.431126        66.1543 
 154   0.0000       2.521549        68.6149 
 155   0.0000       2.543506        69.2123 
 156   0.0000       2.573683        70.0335 
 157   0.0000       2.574317        70.0507 
 158   0.0000       2.606830        70.9354 
 159   0.0000       2.619440        71.2786 
 160   0.0000       2.622457        71.3607 
 161   0.0000       2.655492        72.2596 
 162   0.0000       2.674209        72.7689 
 163   0.0000       2.678394        72.8828 
 164   0.0000       2.721645        74.0597 
 165   0.0000       2.753975        74.9395 
 166   0.0000       2.814232        76.5791 
 167   0.0000       2.850244        77.5591 
 168   0.0000       2.875595        78.2489 
 169   0.0000       2.881516        78.4100 
 170   0.0000       2.951959        80.3269 
 171   0.0000       3.017871        82.1204 
 172   0.0000       3.049418        82.9789 
 173   0.0000       3.133857        85.2766 
 174   0.0000       3.250380        88.4473 
 175   0.0000       3.271588        89.0244 
 176   0.0000       3.352647        91.2302 
 177   0.0000       3.562496        96.9405 
 178   0.0000       3.742616       101.8418 
 179   0.0000       3.744816       101.9016 

                    ********************************
                    * MULLIKEN POPULATION ANALYSIS *
                    ********************************

-----------------------
MULLIKEN ATOMIC CHARGES
-----------------------
   0 C :   -0.008608
   1 C :   -0.012564
   2 C :   -0.008366
   3 C :    0.176105
   4 C :   -0.014109
   5 C :   -0.012888
   6 C :    0.076449
   7 H :    0.016513
   8 H :    0.034440
   9 H :    0.040798
  10 H :   -0.014595
  11 H :    0.004141
  12 H :    0.003239
  13 H :   -0.014943
  14 N :    0.232089
  15 O :   -0.249796
  16 O :   -0.247906
  17 H :    1.000000
Sum of atomic charges:    1.0000000

--------------------------------
MULLIKEN REDUCED ORBITAL CHARGES
--------------------------------
  0 C s       :     3.061028  s :     3.061028
      pz      :     0.967725  p :     2.903292
      px      :     0.966460
      py      :     0.969107
      dz2     :     0.008017  d :     0.044287
      dxz     :     0.006965
      dyz     :     0.010196
      dx2y2   :     0.009434
      dxy     :     0.009674
  1 C s       :     3.225633  s :     3.225633
      pz      :     0.943958  p :     2.752366
      px      :     0.960220
      py      :     0.848189
      dz2     :     0.007300  d :     0.034565
      dxz     :     0.006224
      dyz     :     0.007088
      dx2y2   :     0.007406
      dxy     :     0.006548
  2 C s       :     3.269629  s :     3.269629
      pz      :     0.868797  p :     2.703665
      px      :     0.860144
      py      :     0.974723
      dz2     :     0.006487  d :     0.035072
      dxz     :     0.005770
      dyz     :     0.007662
      dx2y2   :     0.007813
      dxy     :     0.007341
  3 C s       :     3.004723  s :     3.004723
      pz      :     0.926556  p :     2.770119
      px      :     0.967424
      py      :     0.876139
      dz2     :     0.008104  d :     0.049053
      dxz     :     0.007743
      dyz     :     0.013124
      dx2y2   :     0.008970
      dxy     :     0.011113
  4 C s       :     3.276404  s :     3.276404
      pz      :     0.936194  p :     2.702697
      px      :     0.964153
      py      :     0.802350
      dz2     :     0.007542  d :     0.035008
      dxz     :     0.006060
      dyz     :     0.007545
      dx2y2   :     0.007784
      dxy     :     0.006077
  5 C s       :     3.221712  s :     3.221712
      pz      :     0.910692  p :     2.756531
      px      :     0.910525
      py      :     0.935313
      dz2     :     0.005831  d :     0.034645
      dxz     :     0.005360
      dyz     :     0.008593
      dx2y2   :     0.007141
      dxy     :     0.007721
  6 C s       :     2.940892  s :     2.940892
      pz      :     0.971938  p :     2.954895
      px      :     0.991147
      py      :     0.991809
      dz2     :     0.002835  d :     0.027764
      dxz     :     0.007987
      dyz     :     0.007502
      dx2y2   :     0.001775
      dxy     :     0.007666
  7 H s       :     0.960411  s :     0.960411
      pz      :     0.007544  p :     0.023077
      px      :     0.008312
      py      :     0.007221
  8 H s       :     0.941989  s :     0.941989
      pz      :     0.008315  p :     0.023571
      px      :     0.008770
      py      :     0.006486
  9 H s       :     0.935463  s :     0.935463
      pz      :     0.005851  p :     0.023739
      px      :     0.007914
      py      :     0.009974
 10 H s       :     0.991738  s :     0.991738
      pz      :     0.004180  p :     0.022857
      px      :     0.004787
      py      :     0.013890
 11 H s       :     0.972218  s :     0.972218
      pz      :     0.008275  p :     0.023642
      px      :     0.010115
      py      :     0.005252
 12 H s       :     0.973130  s :     0.973130
      pz      :     0.004410  p :     0.023631
      px      :     0.004438
      py      :     0.014784
 13 H s       :     0.992076  s :     0.992076
      pz      :     0.007408  p :     0.022867
      px      :     0.009818
      py      :     0.005642
 14 N s       :     3.297309  s :     3.297309
      pz      :     1.148846  p :     3.355592
      px      :     1.133716
      py      :     1.073029
      dz2     :     0.018028  d :     0.115011
      dxz     :     0.012087
      dyz     :     0.029613
      dx2y2   :     0.026609
      dxy     :     0.028674
 15 O s       :     3.856941  s :     3.856941
      pz      :     1.670305  p :     4.370835
      px      :     1.567219
      py      :     1.133312
      dz2     :     0.002832  d :     0.022019
      dxz     :     0.000591
      dyz     :     0.004990
      dx2y2   :     0.007510
      dxy     :     0.006097
 16 O s       :     3.857479  s :     3.857479
      pz      :     1.439082  p :     4.368362
      px      :     1.292144
      py      :     1.637136
      dz2     :     0.003815  d :     0.022065
      dxz     :     0.005577
      dyz     :     0.004198
      dx2y2   :     0.003927
      dxy     :     0.004548
 17 H s       :     0.000000  s :     0.000000
      pz      :     0.000000  p :     0.000000
      px      :     0.000000
      py      :     0.000000


                     *******************************
                     * LOEWDIN POPULATION ANALYSIS *
                     *******************************

----------------------
LOEWDIN ATOMIC CHARGES
----------------------
   0 C :    0.000248
   1 C :   -0.017020
   2 C :   -0.000156
   3 C :   -0.032744
   4 C :    0.001567
   5 C :   -0.021459
   6 C :   -0.042296
   7 H :    0.031760
   8 H :    0.040021
   9 H :    0.043242
  10 H :    0.032458
  11 H :    0.040722
  12 H :    0.040662
  13 H :    0.032039
  14 N :    0.277691
  15 O :   -0.214483
  16 O :   -0.212251
  17 H :    1.000000

-------------------------------
LOEWDIN REDUCED ORBITAL CHARGES
-------------------------------
  0 C s       :     2.857102  s :     2.857102
      pz      :     0.987151  p :     3.033894
      px      :     0.989997
      py      :     1.056745
      dz2     :     0.017733  d :     0.108756
      dxz     :     0.016819
      dyz     :     0.025546
      dx2y2   :     0.023945
      dxy     :     0.024714
  1 C s       :     2.856870  s :     2.856870
      pz      :     1.023083  p :     3.068968
      px      :     1.015590
      py      :     1.030295
      dz2     :     0.017687  d :     0.091182
      dxz     :     0.018152
      dyz     :     0.019128
      dx2y2   :     0.019256
      dxy     :     0.016959
  2 C s       :     2.860081  s :     2.860081
      pz      :     1.012309  p :     3.048248
      px      :     0.996493
      py      :     1.039445
      dz2     :     0.015532  d :     0.091827
      dxz     :     0.014582
      dyz     :     0.021665
      dx2y2   :     0.020860
      dxy     :     0.019188
  3 C s       :     2.858321  s :     2.858321
      pz      :     0.968999  p :     3.049630
      px      :     1.039099
      py      :     1.041532
      dz2     :     0.019626  d :     0.124793
      dxz     :     0.020178
      dyz     :     0.033251
      dx2y2   :     0.023280
      dxy     :     0.028458
  4 C s       :     2.860568  s :     2.860568
      pz      :     1.009136  p :     3.046268
      px      :     0.995745
      py      :     1.041387
      dz2     :     0.018342  d :     0.091596
      dxz     :     0.017484
      dyz     :     0.020000
      dx2y2   :     0.019614
      dxy     :     0.016157
  5 C s       :     2.856781  s :     2.856781
      pz      :     1.018341  p :     3.073401
      px      :     1.009092
      py      :     1.045967
      dz2     :     0.014052  d :     0.091278
      dxz     :     0.013589
      dyz     :     0.024106
      dx2y2   :     0.019475
      dxy     :     0.020056
  6 C s       :     2.833574  s :     2.833574
      pz      :     1.034731  p :     3.137294
      px      :     1.053592
      py      :     1.048971
      dz2     :     0.006398  d :     0.071428
      dxz     :     0.021160
      dyz     :     0.019903
      dx2y2   :     0.003923
      dxy     :     0.020044
  7 H s       :     0.904024  s :     0.904024
      pz      :     0.021071  p :     0.064216
      px      :     0.023017
      py      :     0.020128
  8 H s       :     0.895525  s :     0.895525
      pz      :     0.022478  p :     0.064454
      px      :     0.024588
      py      :     0.017389
  9 H s       :     0.892290  s :     0.892290
      pz      :     0.016287  p :     0.064468
      px      :     0.020374
      py      :     0.027807
 10 H s       :     0.900706  s :     0.900706
      pz      :     0.012722  p :     0.066836
      px      :     0.014692
      py      :     0.039422
 11 H s       :     0.887698  s :     0.887698
      pz      :     0.024779  p :     0.071580
      px      :     0.029969
      py      :     0.016832
 12 H s       :     0.887770  s :     0.887770
      pz      :     0.014216  p :     0.071567
      px      :     0.014187
      py      :     0.043164
 13 H s       :     0.900974  s :     0.900974
      pz      :     0.021582  p :     0.066987
      px      :     0.028429
      py      :     0.016977
 14 N s       :     3.052124  s :     3.052124
      pz      :     1.155818  p :     3.428971
      px      :     1.134908
      py      :     1.138246
      dz2     :     0.036809  d :     0.241214
      dxz     :     0.026306
      dyz     :     0.060611
      dx2y2   :     0.055400
      dxy     :     0.062088
 15 O s       :     3.620728  s :     3.620728
      pz      :     1.673180  p :     4.551474
      px      :     1.580979
      py      :     1.297315
      dz2     :     0.006331  d :     0.042281
      dxz     :     0.000860
      dyz     :     0.007922
      dx2y2   :     0.016621
      dxy     :     0.010546
 16 O s       :     3.620475  s :     3.620475
      pz      :     1.500982  p :     4.549410
      px      :     1.375317
      py      :     1.673111
      dz2     :     0.005413  d :     0.042366
      dxz     :     0.012797
      dyz     :     0.008244
      dx2y2   :     0.006179
      dxy     :     0.009732
 17 H s       :     0.000000  s :     0.000000
      pz      :     0.000000  p :     0.000000
      px      :     0.000000
      py      :     0.000000


                      *****************************
                      * MAYER POPULATION ANALYSIS *
                      *****************************

  NA   - Mulliken gross atomic population
  ZA   - Total nuclear charge
  QA   - Mulliken gross atomic charge
  VA   - Mayer's total valence
  BVA  - Mayer's bonded valence
  FA   - Mayer's free valence

  ATOM       NA         ZA         QA         VA         BVA        FA
  0 C      6.0086     6.0000    -0.0086     3.9355     3.9355     0.0000
  1 C      6.0126     6.0000    -0.0126     3.8267     3.8267    -0.0000
  2 C      6.0084     6.0000    -0.0084     3.8218     3.8218    -0.0000
  3 C      5.8239     6.0000     0.1761     3.7799     3.7799    -0.0000
  4 C      6.0141     6.0000    -0.0141     3.8182     3.8182    -0.0000
  5 C      6.0129     6.0000    -0.0129     3.8271     3.8271     0.0000
  6 C      5.9236     6.0000     0.0764     3.9068     3.9068    -0.0000
  7 H      0.9835     1.0000     0.0165     0.9967     0.9967     0.0000
  8 H      0.9656     1.0000     0.0344     0.9903     0.9903    -0.0000
  9 H      0.9592     1.0000     0.0408     0.9891     0.9891     0.0000
 10 H      1.0146     1.0000    -0.0146     0.9888     0.9888     0.0000
 11 H      0.9959     1.0000     0.0041     1.0168     1.0168    -0.0000
 12 H      0.9968     1.0000     0.0032     1.0170     1.0170     0.0000
 13 H      1.0149     1.0000    -0.0149     0.9889     0.9889     0.0000
 14 N      6.7679     7.0000     0.2321     3.9762     3.9762    -0.0000
 15 O      8.2498     8.0000    -0.2498     1.9547     1.9547    -0.0000
 16 O      8.2479     8.0000    -0.2479     1.9561     1.9561     0.0000
 17 H      0.0000     1.0000     1.0000     0.0000     0.0000    -0.0000

  Mayer bond orders larger than 0.100000
B(  0-C ,  1-C ) :   1.3497 B(  0-C ,  5-C ) :   1.3885 B(  0-C ,  6-C ) :   1.0663 
B(  1-C ,  2-C ) :   1.3696 B(  1-C , 10-H ) :   0.9900 B(  2-C ,  3-C ) :   1.3553 
B(  2-C , 11-H ) :   0.9855 B(  3-C ,  4-C ) :   1.3866 B(  3-C , 14-N ) :   0.8638 
B(  4-C ,  5-C ) :   1.3313 B(  4-C , 12-H ) :   0.9856 B(  5-C , 13-H ) :   0.9860 
B(  6-C ,  7-H ) :   0.9588 B(  6-C ,  8-H ) :   0.9533 B(  6-C ,  9-H ) :   0.9510 
B( 14-N , 15-O ) :   1.5428 B( 14-N , 16-O ) :   1.5433 B( 15-O , 16-O ) :   0.2765 


-------
TIMINGS
-------

Total SCF time: 0 days 0 hours 6 min 31 sec 

Total time                  ....     391.043 sec
Sum of individual times     ....     389.203 sec  ( 99.5%)

Fock matrix formation       ....     372.862 sec  ( 95.4%)
  Split-RI-J                ....      26.534 sec  (  7.1% of F)
  Chain of spheres X        ....     291.258 sec  ( 78.1% of F)
  XC integration            ....      54.736 sec  ( 14.7% of F)
    Basis function eval.    ....      20.902 sec  ( 38.2% of XC)
    Density eval.           ....      15.212 sec  ( 27.8% of XC)
    XC-Functional eval.     ....       4.311 sec  (  7.9% of XC)
    XC-Potential eval.      ....      11.571 sec  ( 21.1% of XC)
Diagonalization             ....       0.130 sec  (  0.0%)
Density matrix formation    ....       0.027 sec  (  0.0%)
Population analysis         ....       0.119 sec  (  0.0%)
Initial guess               ....       2.436 sec  (  0.6%)
Orbital Transformation      ....       0.000 sec  (  0.0%)
Orbital Orthonormalization  ....       0.000 sec  (  0.0%)
DIIS solution               ....       0.277 sec  (  0.1%)
SOSCF solution              ....       0.258 sec  (  0.1%)
Grid generation             ....      13.094 sec  (  3.3%)

Maximum memory used throughout the entire SCF-calculation: 74.8 MB


-------------------------------------------------------------------------------
                          DFT DISPERSION CORRECTION                            
                                                                               
                                 DFTD4 V2.5                                    
-------------------------------------------------------------------------------
The B3LYP functional is recognized
Active option DFTDOPT                   ...         5   

Starting D4
-------------------------   ----------------
Dispersion correction           -0.026553656
-------------------------   ----------------


-------------------------   --------------------
FINAL SINGLE POINT ENERGY      -475.483726608786
-------------------------   --------------------

------------------------------------------------------------------------------
                         ORCA SCF GRADIENT CALCULATION
------------------------------------------------------------------------------

 ... reading COSX grid (gridx3)
Gradient of the Kohn-Sham DFT energy:
Kohn-Sham wavefunction type      ... RKS
Hartree-Fock exchange scaling    ...    0.200
Number of operators              ...    1
Number of atoms                  ...   18
Basis set dimensions             ...  180
Integral neglect threshold       ... 2.5e-11
Integral primitive cutoff        ... 2.5e-12
SHARK Integral package           ... ON

Nuc. rep. gradient       (SHARK) ... done (  0.0 sec)
HCore & Overlap gradient (SHARK) ... done (  1.1 sec)
RI-J gradient            (SHARK) ... done (  6.4 sec)
COSX-gradient                    ... done ( 52.9 sec)
Exchange-correlation gradient    ... done
Dispersion correction            ... Starting D4


------------------- 
Dispersion Gradient 
------------------- 
   1  :    0.000175552    0.000202545    0.000293498
   2  :   -0.000154952    0.000462124    0.000071186
   3  :   -0.000304215    0.000350864   -0.000151463
   4  :   -0.000150832   -0.000177830   -0.000250000
   5  :    0.000244325   -0.000418473    0.000065785
   6  :    0.000346935   -0.000247734    0.000261516
   7  :    0.000280505    0.000339308    0.000459522
   8  :    0.000082229    0.000057402    0.000123147
   9  :    0.000035406    0.000088471    0.000138156
  10  :    0.000099818    0.000111959    0.000087663
  11  :   -0.000088521    0.000192094    0.000002078
  12  :   -0.000145923    0.000125601   -0.000096472
  13  :    0.000083307   -0.000198201   -0.000006285
  14  :    0.000142228   -0.000129679    0.000092074
  15  :   -0.000256437   -0.000302247   -0.000432541
  16  :   -0.000087799   -0.000394486   -0.000276001
  17  :   -0.000301975   -0.000062184   -0.000382370
  18  :    0.000000349    0.000000466    0.000000505

  |G| =    0.001572526

done

------------------
CARTESIAN GRADIENT
------------------

   1   C   :   -0.000158198   -0.008552681   -0.003235137
   2   C   :   -0.000052831   -0.006631181   -0.003379779
   3   C   :    0.006345354   -0.000228848    0.006935044
   4   C   :    0.004403037    0.000077590    0.004782120
   5   C   :   -0.004459723    0.007084204   -0.001491769
   6   C   :   -0.005684336    0.006910427   -0.002815468
   7   C   :   -0.001530486    0.000100580   -0.002456417
   8   H   :   -0.000165817    0.000101896   -0.000042800
   9   H   :   -0.000019304    0.000015545    0.000103966
  10   H   :    0.000037484    0.000117601   -0.000012669
  11   H   :   -0.000004795    0.000037321    0.000003355
  12   H   :   -0.000042826   -0.000002015   -0.000025457
  13   H   :    0.000002592   -0.000030327   -0.000022110
  14   H   :    0.000039916   -0.000005667   -0.000002832
  15   N   :    0.002085885    0.002331650    0.003632592
  16   O   :   -0.000306739   -0.001235848   -0.000884456
  17   O   :   -0.000513876    0.000057757   -0.000953692
  18   H   :   -0.000088189   -0.000127274   -0.000110720

Difference to translation invariance:
           :   -0.0001128520    0.0000207315    0.0000237714

Difference to rotation invariance:
           :    0.0000854975    0.0008823817   -0.0002671939

Norm of the cartesian gradient     ...    0.0215653180
RMS gradient                       ...    0.0029346681
MAX gradient                       ...    0.0085526810

-------
TIMINGS
-------

Total SCF gradient time            ...       80.230 sec

One electron gradient       ....       1.132 sec  (  1.4%)
RI-J Coulomb gradient       ....       6.418 sec  (  8.0%)
COSX gradient               ....      52.924 sec  ( 66.0%)
XC gradient                 ....      17.813 sec  ( 22.2%)

Maximum memory used throughout the entire SCFGRAD-calculation: 60.1 MB
------------------------------------------------------------------------------
                         ORCA GEOMETRY RELAXATION STEP
------------------------------------------------------------------------------

Reading the OPT-File                    .... done
Getting information on internals        .... done
Copying old internal coords+grads       .... done
Making the new internal coordinates     .... (new redundants).... done
Validating the new internal coordinates .... (new redundants).... done
Calculating the B-matrix                .... done
Calculating the G,G- and P matrices     .... done
Transforming gradient to internals      .... done
Projecting the internal gradient        .... done
Number of atoms                         ....  18
Number of internal coordinates          ....  95
Current Energy                          ....  -475.483726609 Eh
Current gradient norm                   ....     0.021565318 Eh/bohr
Maximum allowed component of the step   ....  0.300
Current trust radius                    ....  0.300
Evaluating the initial hessian          ....  (Almloef) done
Projecting the Hessian                  .... done
Forming the augmented Hessian           .... done
Diagonalizing the augmented Hessian     .... done
Last element of RFO vector              ....  0.989072178
Lowest eigenvalues of augmented Hessian:
 -0.000767885  0.000017235  0.012618516  0.014991513  0.017905995
Length of the computed step             ....  0.149061022
The final length of the internal step   ....  0.149061022
Converting the step to cartesian space:
 Initial RMS(Int)=    0.0152933382
Transforming coordinates:
 Iter   0:  RMS(Cart)=    0.0204138129 RMS(Int)=    1.1158312180
 Iter   1:  RMS(Cart)=    0.0001054926 RMS(Int)=    0.0000510350
 Iter   2:  RMS(Cart)=    0.0000013076 RMS(Int)=    0.0000004507
 Iter   3:  RMS(Cart)=    0.0000000204 RMS(Int)=    0.0000000107
done
Storing new coordinates                 .... done

                                .--------------------.
          ----------------------|Geometry convergence|-------------------------
          Item                value                   Tolerance       Converged
          ---------------------------------------------------------------------
          RMS gradient        0.0021676008            0.0000300000      NO
          MAX gradient        0.0104158381            0.0001000000      NO
          RMS step            0.0152933382            0.0006000000      NO
          MAX step            0.0835619697            0.0010000000      NO
          ........................................................
          Max(Bonds)      0.0442      Max(Angles)    0.39
          Max(Dihed)        0.72      Max(Improp)    0.00
          ---------------------------------------------------------------------

The optimization has not yet converged - more geometry cycles are needed


    ---------------------------------------------------------------------------
                         Redundant Internal Coordinates
                            (Angstroem and degrees)

        Definition                    Value    dE/dq     Step     New-Value
    ----------------------------------------------------------------------------
     1. B(C   1,C   0)                1.4030 -0.006473  0.0057    1.4087   
     2. B(C   2,C   1)                1.3796 -0.010416  0.0085    1.3881   
     3. B(C   3,C   2)                1.3926 -0.005581  0.0048    1.3974   
     4. B(C   4,C   3)                1.3825 -0.010014  0.0082    1.3907   
     5. B(C   5,C   4)                1.3905 -0.005672  0.0048    1.3953   
     6. B(C   5,C   0)                1.3915 -0.010235  0.0087    1.4002   
     7. B(C   6,C   0)                1.5028 -0.002281  0.0029    1.5057   
     8. B(H   7,C   6)                1.0995 -0.000179  0.0003    1.0997   
     9. B(H   8,C   6)                1.1023  0.000079 -0.0001    1.1022   
    10. B(H   9,C   6)                1.1036  0.000115 -0.0002    1.1034   
    11. B(H  10,C   1)                1.0935  0.000034 -0.0001    1.0934   
    12. B(H  11,C   2)                1.0897  0.000040 -0.0001    1.0897   
    13. B(H  12,C   4)                1.0897  0.000037 -0.0001    1.0896   
    14. B(H  13,C   5)                1.0932  0.000033 -0.0000    1.0932   
    15. B(N  14,C   3)                1.4686 -0.002289  0.0029    1.4715   
    16. B(O  15,N  14)                1.2232  0.001026 -0.0007    1.2224   
    17. B(O  16,N  14)                1.2228  0.000891 -0.0005    1.2222   
    18. B(H  17,O  16)               13.2612 -0.000082 -0.0439   13.2174   
    19. B(H  17,O  15)               12.9944 -0.000398 -0.0414   12.9529   
    20. B(H  17,N  14)               13.6465  0.000666 -0.0442   13.6022   
    21. A(C   1,C   0,C   6)          119.44 -0.002752    0.39    119.83   
    22. A(C   5,C   0,C   6)          122.07  0.002261   -0.32    121.75   
    23. A(C   1,C   0,C   5)          118.48  0.000488   -0.07    118.41   
    24. A(C   2,C   1,H  10)          119.41  0.000165   -0.02    119.38   
    25. A(C   0,C   1,H  10)          119.39  0.000159   -0.02    119.37   
    26. A(C   0,C   1,C   2)          121.20 -0.000325    0.05    121.25   
    27. A(C   3,C   2,H  11)          119.21 -0.000110    0.01    119.22   
    28. A(C   1,C   2,H  11)          122.07 -0.000069    0.01    122.08   
    29. A(C   1,C   2,C   3)          118.72  0.000179   -0.02    118.70   
    30. A(C   2,C   3,C   4)          121.68  0.000092   -0.01    121.66   
    31. A(C   4,C   3,N  14)          119.22 -0.000040    0.00    119.23   
    32. A(C   2,C   3,N  14)          119.10 -0.000052    0.01    119.11   
    33. A(C   3,C   4,C   5)          118.69 -0.000394    0.05    118.75   
    34. A(C   5,C   4,H  12)          121.83  0.000208   -0.03    121.80   
    35. A(C   3,C   4,H  12)          119.48  0.000185   -0.02    119.46   
    36. A(C   0,C   5,C   4)          121.23 -0.000041    0.00    121.23   
    37. A(C   4,C   5,H  13)          119.23  0.000018    0.00    119.23   
    38. A(C   0,C   5,H  13)          119.54  0.000023   -0.00    119.54   
    39. A(H   8,C   6,H   9)          106.86 -0.000038    0.00    106.87   
    40. A(H   7,C   6,H   9)          107.79  0.000009   -0.01    107.78   
    41. A(C   0,C   6,H   9)          110.75  0.000056   -0.02    110.74   
    42. A(H   7,C   6,H   8)          108.07 -0.000079    0.03    108.10   
[...]
-------
General Integration Accuracy     IntAcc      ... 4.338
Radial Grid Type                 RadialGrid  ... OptM3 with GC (2021)
Angular Grid (max. ang.)         AngularGrid ... 3 (Lebedev-194)
Angular grid pruning method      GridPruning ... 4 (adaptive)
Weight generation scheme         WeightScheme... Becke
Basis function cutoff            BFCut       ... 1.0000e-11
Integration weight cutoff        WCut        ... 1.0000e-14
Angular grids for H and He will be reduced by one unit
Partially contracted basis set               ... on
Rotationally invariant grid construction     ... off

Total number of grid points                  ...    53327
Total number of batches                      ...      841
Average number of points per batch           ...       63
Average number of grid points per atom       ...     2963
UseSFitting                                  ... on

Time for X-Grid setup             =    2.956 sec

--------------
SCF ITERATIONS
--------------
ITER       Energy         Delta-E        Max-DP      RMS-DP      [F,P]     Damp
               ***  Starting incremental Fock matrix formation  ***
                      *** Initiating the SOSCF procedure ***
                      *** Re-Reading the Fockian *** 
                      *** Removing any level shift *** 
ITER      Energy       Delta-E        Grad      Rot      Max-DP    RMS-DP
  0   -475.45896654 -475.4589665425  0.001906  0.001906  0.003939  0.000151
               *** Restarting incremental Fock matrix formation ***
  1   -475.45933507  -0.0003685279  0.000792  0.001458  0.001579  0.000071
  2   -475.45937573  -0.0000406550  0.000135  0.000676  0.000635  0.000020
  3   -475.45937507   0.0000006596  0.000482  0.000697  0.000532  0.000012
  4   -475.45937652  -0.0000014590  0.000156  0.000298  0.000308  0.000010
  5   -475.45937630   0.0000002207  0.000161  0.000245  0.000202  0.000006
  6   -475.45937674  -0.0000004323  0.000017  0.000039  0.000062  0.000002
                 **** Energy Check signals convergence ****
              ***Rediagonalizing the Fockian in SOSCF/NRSCF***

               *****************************************************
               *                     SUCCESS                       *
               *           SCF CONVERGED AFTER   7 CYCLES          *
               *****************************************************

Old exchange energy                            =    -12.324993858 Eh
New exchange energy                            =    -12.325046261 Eh
Exchange energy change after final integration =     -0.000052403 Eh
Total energy after final integration           =   -475.459429140 Eh
Final COS-X integration done in                =    35.701 sec
Total Energy       :         -475.45942914 Eh          -12937.90882 eV
  Last Energy change         ...   -1.0336e-09  Tolerance :   1.0000e-08
  Last MAX-Density change    ...    4.8850e-15  Tolerance :   1.0000e-07
             **** THE GBW FILE WAS UPDATED (para_p_opt_9.gbw) ****
             **** DENSITY para_p_opt_9.scfp WAS UPDATED ****
             **** ENERGY FILE WAS UPDATED (para_p_opt_9.en.tmp) ****
             **** THE GBW FILE WAS UPDATED (para_p_opt_9.gbw) ****
             **** DENSITY para_p_opt_9.scfp WAS UPDATED ****
Total SCF time: 0 days 0 hours 3 min 19 sec 

Maximum memory used throughout the entire SCF-calculation: 74.5 MB


-------------------------------------------------------------------------------
                          DFT DISPERSION CORRECTION                            
                                                                               
                                 DFTD4 V2.5                                    
-------------------------------------------------------------------------------
Starting D4
-------------------------   ----------------
Dispersion correction           -0.026442858
-------------------------   ----------------


-------------------------   --------------------
FINAL SINGLE POINT ENERGY      -475.485871998940
-------------------------   --------------------

------------------------------------------------------------------------------
                         ORCA SCF GRADIENT CALCULATION
------------------------------------------------------------------------------

 ... reading COSX grid (gridx3)
Gradient of the Kohn-Sham DFT energy:
Kohn-Sham wavefunction type      ... RKS
Hartree-Fock exchange scaling    ...    0.200
Number of operators              ...    1
Number of atoms                  ...   18
Basis set dimensions             ...  180
Integral neglect threshold       ... 2.5e-11
Integral primitive cutoff        ... 2.5e-12
SHARK Integral package           ... ON

Nuc. rep. gradient       (SHARK) ... done (  0.0 sec)
HCore & Overlap gradient (SHARK) ... done (  1.0 sec)
RI-J gradient            (SHARK) ... done (  4.0 sec)
COSX-gradient                    ... done ( 46.8 sec)
Exchange-correlation gradient    ... done
Dispersion correction            ... Starting D4


------------------- 
Dispersion Gradient 
------------------- 
   1  :    0.000170038    0.000243997    0.000270676
   2  :   -0.000187159    0.000462810    0.000023752
   3  :   -0.000328737    0.000323586   -0.000178891
   4  :   -0.000146845   -0.000211198   -0.000232200
   5  :    0.000274809   -0.000399617    0.000097684
   6  :    0.000367212   -0.000203449    0.000276937
   7  :    0.000272102    0.000389834    0.000418054
   8  :    0.000073881    0.000071166    0.000121189
   9  :    0.000034857    0.000105444    0.000119448
  10  :    0.000101958    0.000121237    0.000074965
  11  :   -0.000100194    0.000185664   -0.000014667
  12  :   -0.000153915    0.000107576   -0.000103070
  13  :    0.000095192   -0.000191364    0.000010906
  14  :    0.000149291   -0.000112200    0.000099837
  15  :   -0.000246962   -0.000354926   -0.000391051
  16  :   -0.000063643   -0.000419196   -0.000239758
  17  :   -0.000312321   -0.000119906   -0.000354446
  18  :    0.000000435    0.000000543    0.000000633

  |G| =    0.001610703

done

------------------
CARTESIAN GRADIENT
------------------

   1   C   :    0.000117165   -0.000058304    0.000088183
   2   C   :   -0.000120949    0.000110980   -0.000075714
   3   C   :   -0.000107934    0.000056569   -0.000074494
   4   C   :   -0.000000458   -0.000206540   -0.000086716
   5   C   :    0.000019130   -0.000049309   -0.000000620
   6   C   :    0.000060384    0.000029713    0.000112084
   7   C   :   -0.000011637   -0.000012001    0.000002535
   8   H   :   -0.000001647    0.000033541   -0.000001588
   9   H   :   -0.000021974   -0.000025130    0.000018805
  10   H   :    0.000050190   -0.000003826   -0.000018667
  11   H   :    0.000037126   -0.000012612    0.000019654
  12   H   :    0.000009851    0.000026481    0.000012329
  13   H   :   -0.000031660   -0.000013842   -0.000025061
  14   H   :   -0.000008097   -0.000015729   -0.000012067
  15   N   :    0.000234309    0.000118170    0.000129512
  16   O   :   -0.000010974    0.000045465    0.000120767
  17   O   :   -0.000028954    0.000109026    0.000071781
  18   H   :   -0.000199867   -0.000219530   -0.000271671

Difference to translation invariance:
           :   -0.0000159963   -0.0000868789    0.0000090525

Difference to rotation invariance:
           :   -0.0000693662    0.0004017343    0.0003862101

Norm of the cartesian gradient     ...    0.0006642310
RMS gradient                       ...    0.0000903904
MAX gradient                       ...    0.0002716705

-------
TIMINGS
-------

Total SCF gradient time            ...       70.950 sec

One electron gradient       ....       0.956 sec  (  1.3%)
RI-J Coulomb gradient       ....       4.037 sec  (  5.7%)
COSX gradient               ....      46.821 sec  ( 66.0%)
XC gradient                 ....      17.044 sec  ( 24.0%)

Maximum memory used throughout the entire SCFGRAD-calculation: 60.1 MB
------------------------------------------------------------------------------
                         ORCA GEOMETRY RELAXATION STEP
------------------------------------------------------------------------------

Reading the OPT-File                    .... done
Getting information on internals        .... done
Copying old internal coords+grads       .... done
Making the new internal coordinates     .... (new redundants).... done
Validating the new internal coordinates .... (new redundants).... done
Calculating the B-matrix                .... done
Calculating the G,G- and P matrices     .... done
Transforming gradient to internals      .... done
Projecting the internal gradient        .... done
Number of atoms                         ....  18
Number of internal coordinates          .... 100
Current Energy                          ....  -475.485871999 Eh
Current gradient norm                   ....     0.000664231 Eh/bohr
Maximum allowed component of the step   ....  0.300
Current trust radius                    ....  0.300
Updating the Hessian (BFGS)             .... done
Forming the augmented Hessian           .... done
Diagonalizing the augmented Hessian     .... done
Last element of RFO vector              ....  0.000000819
Lowest eigenvalues of augmented Hessian:
 -31.679480330 -0.000263652 -0.000232175  0.000228782  0.000238818
Warning: RFO finds a terribly low value for the scaling factor
Trying a QUASI-NEWTON step instead
Doing a quasi-Newton Step:
Inverting the Hessian                   .... done
Computing the step                      .... done
Length of the computed step             ....  0.027354539
Converting the step to cartesian space:
 Initial RMS(Int)=    0.0027354539
Transforming coordinates:
 Iter   0:  RMS(Cart)=    0.0099674376 RMS(Int)=    0.0027263661
 Iter   1:  RMS(Cart)=    0.0000240699 RMS(Int)=    0.0000192256
 Iter   2:  RMS(Cart)=    0.0000001599 RMS(Int)=    0.0000000433
 Iter   3:  RMS(Cart)=    0.0000000005 RMS(Int)=    0.0000000003
done
Storing new coordinates                 .... done

                                .--------------------.
          ----------------------|Geometry convergence|-------------------------
          Item                value                   Tolerance       Converged
          ---------------------------------------------------------------------
          Energy change      -0.0000034568            0.0000010000      NO
          RMS gradient        0.0000413971            0.0000300000      NO
          MAX gradient        0.0001675259            0.0001000000      NO
          RMS step            0.0027354539            0.0006000000      NO
          MAX step            0.0113583329            0.0010000000      NO
          ........................................................
          Max(Bonds)      0.0036      Max(Angles)    0.19
          Max(Dihed)        0.65      Max(Improp)    0.00
          ---------------------------------------------------------------------

The optimization has not yet converged - more geometry cycles are needed


    ---------------------------------------------------------------------------
                         Redundant Internal Coordinates
                            (Angstroem and degrees)

        Definition                    Value    dE/dq     Step     New-Value
    ----------------------------------------------------------------------------
     1. B(C   1,C   0)                1.4071  0.000168 -0.0000    1.4070   
     2. B(C   2,C   1)                1.3920  0.000069 -0.0000    1.3920   
     3. B(C   3,C   2)                1.3962  0.000146 -0.0000    1.3962   
     4. B(C   4,C   3)                1.3948  0.000066 -0.0000    1.3948   
     5. B(C   5,C   4)                1.3936  0.000119 -0.0000    1.3936   
     6. B(C   5,C   0)                1.4053  0.000031 -0.0000    1.4053   
     7. B(C   6,C   0)                1.5058  0.000015  0.0000    1.5058   
     8. B(H   7,C   6)                1.0997 -0.000024  0.0000    1.0997   
     9. B(H   8,C   6)                1.1011  0.000015 -0.0000    1.1011   
    10. B(H   9,C   6)                1.1042  0.000041 -0.0001    1.1041   
    11. B(H  10,C   1)                1.0932 -0.000017  0.0000    1.0932   
    12. B(H  11,C   2)                1.0895 -0.000005  0.0000    1.0895   
    13. B(H  12,C   4)                1.0896  0.000001  0.0000    1.0896   
    14. B(H  13,C   5)                1.0930 -0.000009  0.0000    1.0930   
    15. B(N  14,C   3)                1.4712 -0.000075  0.0001    1.4713   
    16. B(O  15,N  14)                1.2221 -0.000020  0.0000    1.2221   
    17. B(O  16,N  14)                1.2226  0.000078 -0.0001    1.2225   
    18. B(H  17,O  16)                9.9653  0.000134  0.0036    9.9689   
    19. B(H  17,O  15)               10.1268  0.000118 -0.0035   10.1233   
    20. B(H  17,N  14)               10.5557  0.000149  0.0004   10.5561   
    21. A(C   5,C   0,C   6)          121.06  0.000048    0.00    121.06   
    22. A(C   1,C   0,C   6)          120.55 -0.000060   -0.00    120.55   
    23. A(C   1,C   0,C   5)          118.39  0.000012    0.00    118.39   
    24. A(C   0,C   1,H  10)          119.44 -0.000042    0.01    119.44   
    25. A(C   0,C   1,C   2)          121.27  0.000011   -0.00    121.26   
    26. A(C   2,C   1,H  10)          119.30  0.000031   -0.00    119.29   
    27. A(C   3,C   2,H  11)          119.42  0.000047   -0.01    119.41   
    28. A(C   1,C   2,H  11)          121.89 -0.000017    0.01    121.90   
    29. A(C   1,C   2,C   3)          118.68 -0.000030    0.00    118.69   
    30. A(C   2,C   3,C   4)          121.71 -0.000000    0.00    121.71   
    31. A(C   4,C   3,N  14)          119.17  0.000024   -0.00    119.16   
    32. A(C   2,C   3,N  14)          119.13 -0.000024    0.00    119.13   
    33. A(C   3,C   4,C   5)          118.70  0.000031   -0.00    118.69   
    34. A(C   5,C   4,H  12)          121.89  0.000024   -0.01    121.88   
    35. A(C   3,C   4,H  12)          119.41 -0.000055    0.01    119.42   
    36. A(C   0,C   5,C   4)          121.25 -0.000024    0.00    121.26   
    37. A(C   4,C   5,H  13)          119.27 -0.000001   -0.00    119.27   
    38. A(C   0,C   5,H  13)          119.48  0.000025   -0.00    119.48   
    39. A(H   8,C   6,H   9)          107.06  0.000030   -0.01    107.05   
    40. A(H   7,C   6,H   9)          107.48 -0.000024    0.01    107.49   
    41. A(C   0,C   6,H   9)          110.56 -0.000005    0.01    110.57   
    42. A(H   7,C   6,H   8)          108.39 -0.000019   -0.00    108.39   
    43. A(C   0,C   6,H   8)          111.44 -0.000032   -0.00    111.44   
    44. A(C   0,C   6,H   7)          111.71  0.000048   -0.00    111.71   
    45. A(O  16,N  14,H  17)           58.17  0.000010    0.18     58.35   
    46. A(O  15,N  14,H  17)           66.31 -0.000016   -0.18     66.13   
    47. A(O  15,N  14,O  16)          124.48 -0.000006    0.01    124.49   
    48. A(C   3,N  14,O  16)          117.74  0.000002   -0.00    117.73   
    49. A(C   3,N  14,O  15)          117.78  0.000004   -0.00    117.78   
    50. A(N  14,O  15,H  17)          107.34  0.000019    0.19    107.53   
    51. A(N  14,O  16,H  17)          115.84 -0.000013   -0.19    115.66   
    52. A(N  14,H  17,O  15)            6.35 -0.000002   -0.01      6.34   
    53. A(O  15,H  17,O  16)           12.33  0.000001    0.00     12.33   
    54. A(N  14,H  17,O  16)            5.98  0.000003    0.01      5.99   
    55. D(H  10,C   1,C   0,C   5)    179.66 -0.000001    0.02    179.68   
    56. D(C   2,C   1,C   0,C   5)     -0.22 -0.000004    0.02     -0.20   
    57. D(C   2,C   1,C   0,C   6)    178.73 -0.000004    0.05    178.77   
    58. D(H  10,C   1,C   0,C   6)     -1.39 -0.000001    0.04     -1.35   
    59. D(C   3,C   2,C   1,C   0)      0.08  0.000003   -0.01      0.07   
    60. D(C   3,C   2,C   1,H  10)   -179.81 -0.000000   -0.00   -179.81   
    61. D(H  11,C   2,C   1,H  10)      0.02 -0.000001   -0.01      0.01   
    62. D(H  11,C   2,C   1,C   0)    179.90  0.000002   -0.02    179.89   
    63. D(N  14,C   3,C   2,H  11)     -0.01  0.000002   -0.01     -0.02   
    64. D(C   4,C   3,C   2,H  11)   -179.76  0.000001   -0.00   -179.76   
    65. D(N  14,C   3,C   2,C   1)    179.82  0.000002   -0.02    179.80   
    66. D(C   4,C   3,C   2,C   1)      0.07  0.000000   -0.01      0.06   
    67. D(C   5,C   4,C   3,N  14)   -179.82 -0.000003    0.03   -179.79   
    68. D(H  12,C   4,C   3,C   2)    179.76  0.000003    0.01    179.77   
    69. D(C   5,C   4,C   3,C   2)     -0.06 -0.000002    0.02     -0.05   
    70. D(H  12,C   4,C   3,N  14)      0.01  0.000002    0.02      0.02   
    71. D(H  13,C   5,C   4,H  12)      0.00  0.000002   -0.01     -0.00   
    72. D(C   0,C   5,C   4,C   3)     -0.09  0.000001   -0.00     -0.09   
    73. D(H  13,C   5,C   4,C   3)    179.82  0.000007   -0.02    179.81   
    74. D(H  13,C   5,C   0,C   6)      1.37 -0.000003   -0.03      1.35   
    75. D(C   0,C   5,C   4,H  12)   -179.91 -0.000005    0.01   -179.90   
    76. D(H  13,C   5,C   0,C   1)   -179.68 -0.000004   -0.00   -179.68   
    77. D(C   4,C   5,C   0,C   6)   -178.72  0.000004   -0.04   -178.76   
    78. D(C   4,C   5,C   0,C   1)      0.23  0.000002   -0.02      0.21   
    79. D(H   9,C   6,C   0,C   5)     99.94 -0.000002    0.26    100.20   
    80. D(H   9,C   6,C   0,C   1)    -78.98 -0.000001    0.23    -78.75   
    81. D(H   8,C   6,C   0,C   5)   -141.11  0.000012    0.25   -140.87   
    82. D(H   8,C   6,C   0,C   1)     39.96  0.000013    0.22     40.19   
    83. D(H   7,C   6,C   0,C   5)    -19.70 -0.000001    0.24    -19.46   
    84. D(H   7,C   6,C   0,C   1)    161.38  0.000000    0.22    161.59   
    85. D(O  15,N  14,C   3,C   2)   -179.75  0.000018   -0.16   -179.91   
    86. D(O  16,N  14,C   3,C   4)    179.98  0.000001   -0.16    179.82   
    87. D(O  16,N  14,C   3,C   2)      0.22  0.000000   -0.15      0.07   
    88. D(O  15,N  14,C   3,C   4)      0.01  0.000020   -0.17     -0.16   
    89. D(H  17,O  15,N  14,O  16)     -1.18  0.000017   -0.28     -1.47   
    90. D(H  17,O  15,N  14,C   3)    178.78 -0.000003   -0.27    178.51   
    91. D(H  17,O  16,N  14,O  15)      1.27 -0.000019    0.34      1.62   
    92. D(H  17,O  16,N  14,C   3)   -178.69  0.000001    0.33   -178.36   
    93. D(O  15,H  17,O  16,N  14)     -0.59  0.000009   -0.16     -0.75   
    94. D(O  16,H  17,O  15,N  14)      0.56 -0.000008    0.14      0.70   
    95. D(O  16,H  17,N  14,O  15)   -178.85 -0.000017    0.30   -178.56   
    96. D(O  15,H  17,N  14,O  16)    178.85  0.000017   -0.30    178.56   
    97. D(O  16,H  17,C   3,C   4)   -178.49 -0.000000    0.29   -178.20   
    98. D(O  16,H  17,C   3,C   2)      2.84 -0.000000    0.58      3.41   
    99. D(O  15,H  17,C   3,C   4)     -2.21  0.000015   -0.65     -2.86   
   100. D(O  15,H  17,C   3,C   2)    179.12  0.000015   -0.36    178.75   
    ----------------------------------------------------------------------------




    ----------------------------------------------------------------------------
                                   ERROR !!!
       The optimization did not converge but reached the maximum 
       number of optimization cycles.
       As a subsequent Frequencies calculation has been requested
       ORCA will abort at this point of the run.
       Please restart the calculation with the lowest energy geometry and/or
       a larger maxiter for the geometry optimization.
    ----------------------------------------------------------------------------


[file orca_main/run.cpp, line 12331]: ORCA finished with error return - aborting the run
