
                                 *****************
                                 * O   R   C   A *
                                 *****************

           --- An Ab Initio, DFT and Semiempirical electronic structure package ---

                  #######################################################
                  #                        -***-                        #
                  #          Department of theory and spectroscopy      #
                  #               Directorship: Frank Neese             #
                  #        Max Planck Institute fuer Kohlenforschung    #
                  #                Kaiser Wilhelm Platz 1               #
                  #                 D-45470 Muelheim/Ruhr               #
                  #                      Germany                        #
                  #                                                     #
                  #                  All rights reserved                #
                  #                        -***-                        #
                  #######################################################


                         Program Version 4.2.1 -  RELEASE  -


 With contributions from (in alphabetic order):
   Daniel Aravena         : Magnetic Suceptibility
   Michael Atanasov       : Ab Initio Ligand Field Theory (pilot matlab implementation)
   Alexander A. Auer      : GIAO ZORA, VPT2
   Ute Becker             : Parallelization
   Giovanni Bistoni       : ED, misc. LED, open-shell LED, HFLD
   Martin Brehm           : Molecular dynamics
   Dmytro Bykov           : SCF Hessian
   Vijay G. Chilkuri      : MRCI spin determinant printing, contributions to CSF-ICE
   Dipayan Datta          : RHF DLPNO-CCSD density
   Achintya Kumar Dutta   : EOM-CC, STEOM-CC
   Dmitry Ganyushin       : Spin-Orbit,Spin-Spin,Magnetic field MRCI
   Miquel Garcia          : C-PCM Hessian, Gaussian charge scheme
   Yang Guo               : DLPNO-NEVPT2, CIM, IAO-localization
   Andreas Hansen         : Spin unrestricted coupled pair/coupled cluster methods
   Benjamin Helmich-Paris : CASSCF linear response (MC-RPA)
   Lee Huntington         : MR-EOM, pCC
   Robert Izsak           : Overlap fitted RIJCOSX, COSX-SCS-MP3, EOM
   Christian Kollmar      : KDIIS, OOCD, Brueckner-CCSD(T), CCSD density
   Simone Kossmann        : Meta GGA functionals, TD-DFT gradient, OOMP2, MP2 Hessian
   Martin Krupicka        : AUTO-CI
   Lucas Lang             : DCDCAS
   Dagmar Lenk            : GEPOL surface, SMD
   Dimitrios Liakos       : Extrapolation schemes; Compound Job, initial MDCI parallelization
   Dimitrios Manganas     : Further ROCIS development; embedding schemes
   Dimitrios Pantazis     : SARC Basis sets
   Taras Petrenko         : DFT Hessian,TD-DFT gradient, ASA, ECA, R-Raman, ABS, FL, XAS/XES, NRVS
   Peter Pinski           : DLPNO-MP2, DLPNO-MP2 Gradient
   Christoph Reimann      : Effective Core Potentials
   Marius Retegan         : Local ZFS, SOC
   Christoph Riplinger    : Optimizer, TS searches, QM/MM, DLPNO-CCSD(T), (RO)-DLPNO pert. Triples
   Tobias Risthaus        : Range-separated hybrids, TD-DFT gradient, RPA, STAB
   Michael Roemelt        : Original ROCIS implementation
   Masaaki Saitow         : Open-shell DLPNO-CCSD energy and density
   Barbara Sandhoefer     : DKH picture change effects
   Avijit Sen             : IP-ROCIS
   Kantharuban Sivalingam : CASSCF convergence, NEVPT2, FIC-MRCI
   Bernardo de Souza      : ESD, SOC TD-DFT
   Georgi Stoychev        : AutoAux, RI-MP2 NMR
   Willem Van den Heuvel  : Paramagnetic NMR
   Boris Wezisla          : Elementary symmetry handling
   Frank Wennmohs         : Technical directorship


 We gratefully acknowledge several colleagues who have allowed us to
 interface, adapt or use parts of their codes:
   Stefan Grimme, W. Hujo, H. Kruse,             : VdW corrections, initial TS optimization,
                  C. Bannwarth                     DFT functionals, gCP, sTDA/sTD-DF
   Ed Valeev, F. Pavosevic, A. Kumar             : LibInt (2-el integral package), F12 methods
   Garnet Chan, S. Sharma, J. Yang, R. Olivares  : DMRG
   Ulf Ekstrom                                   : XCFun DFT Library
   Mihaly Kallay                                 : mrcc  (arbitrary order and MRCC methods)
   Andreas Klamt, Michael Diedenhofen            : otool_cosmo (COSMO solvation model)
   Jiri Pittner, Ondrej Demel                    : Mk-CCSD
   Frank Weinhold                                : gennbo (NPA and NBO analysis)
   Christopher J. Cramer and Donald G. Truhlar   : smd solvation model
   Lars Goerigk                                  : TD-DFT with DH, B97 family of functionals
   V. Asgeirsson, H. Jonsson                     : NEB implementation
   FAccTs GmbH                                   : IRC, NEB, NEB-TS, Multilevel, MM, QM/MM, CI optimization
   S Lehtola, MJT Oliveira, MAL Marques          : LibXC Library


 Your calculation uses the libint2 library for the computation of 2-el integrals
 For citations please refer to: http://libint.valeyev.net

 Your ORCA version has been built with support for libXC version: 4.2.3
 For citations please refer to: https://tddft.org/programs/libxc/

 This ORCA versions uses:
   CBLAS   interface :  Fast vector & matrix operations
   LAPACKE interface :  Fast linear algebra routines


----- Orbital basis set information -----
Your calculation utilizes the basis: def2-SVP
   F. Weigend and R. Ahlrichs, Phys. Chem. Chem. Phys. 7, 3297 (2005).

================================================================================
                                        WARNINGS
                       Please study these warnings very carefully!
================================================================================


WARNING: Geometry Optimization
  ===> : Switching off AutoStart
         For restart on a previous wavefunction, please use MOREAD

INFO   : the flag for use of LIBINT has been found!

================================================================================
                                       INPUT FILE
================================================================================
NAME = neb_orto_ts_optfreq.inp
|  1> !B3LYP DEF2-SVP OPT FREQ
|  2> 
|  3> %geom
|  4> maxIter 150
|  5> end
|  6> 
|  7> * xyz 1 1
|  8>    C       -4.00718        2.27900       -0.80607
|  9>    C       -4.99549        1.49226       -1.65972
| 10>    C       -4.87240       -0.01127       -1.48846
| 11>    C       -3.98325       -0.60218       -0.69805
| 12>    C       -3.04433        0.24761        0.08043
| 13>    C       -3.07947        1.63644        0.00946
| 14>    C       -4.04987        3.79402       -0.89989
| 15>    H       -3.93769       -1.68560       -0.61852
| 16>    H       -5.56828       -0.61708       -2.06448
| 17>    H       -6.01570        1.79494       -1.40702
| 18>    H       -3.29467        4.14961       -1.60433
| 19>    H       -3.85441        4.24727        0.07452
| 20>    H       -5.02836        4.13672       -1.24427
| 21>    H       -2.37494        2.22096        0.59664
| 22>    H       -2.31710       -0.24646        0.72023
| 23>    N       -4.88329        1.71237       -3.18379
| 24>    O       -3.76883        1.66438       -3.67792
| 25>    O       -5.88774        2.08624       -3.76571
| 26> **                         ****END OF INPUT****
================================================================================

                       *****************************
                       * Geometry Optimization Run *
                       *****************************

Geometry optimization settings:
Update method            Update   .... BFGS
Choice of coordinates    CoordSys .... Z-matrix Internals
Initial Hessian          InHess   .... Almoef's Model

Convergence Tolerances:
Energy Change            TolE     ....  5.0000e-06 Eh
Max. Gradient            TolMAXG  ....  3.0000e-04 Eh/bohr
RMS Gradient             TolRMSG  ....  1.0000e-04 Eh/bohr
Max. Displacement        TolMAXD  ....  4.0000e-03 bohr
RMS Displacement         TolRMSD  ....  2.0000e-03 bohr
Strict Convergence                ....  False
------------------------------------------------------------------------------
                        ORCA OPTIMIZATION COORDINATE SETUP
------------------------------------------------------------------------------

The optimization will be done in new redundant internal coordinates
Making redundant internal coordinates   ...  (new redundants) done
Evaluating the initial hessian          ...  (Almloef) done
Evaluating the coordinates              ...  done
Calculating the B-matrix                .... done
Calculating the G-matrix                .... done
Diagonalizing the G-matrix              .... done
The first mode is                       ....   40
The number of degrees of freedom        ....   48

    -----------------------------------------------------------------
                    Redundant Internal Coordinates


    -----------------------------------------------------------------
         Definition                    Initial Value    Approx d2E/dq
    -----------------------------------------------------------------
      1. B(C   1,C   0)                  1.5246         0.381046   
      2. B(C   2,C   1)                  1.5183         0.390053   
      3. B(C   3,C   2)                  1.3283         0.783609   
      4. B(C   4,C   3)                  1.4865         0.438274   
      5. B(C   5,C   4)                  1.3911         0.622309   
      6. B(C   5,C   0)                  1.3923         0.619442   
      7. B(C   6,C   0)                  1.5185         0.389663   
      8. B(H   7,C   3)                  1.0873         0.363703   
      9. B(H   8,C   2)                  1.0877         0.363179   
     10. B(H   9,C   1)                  1.0938         0.355166   
     11. B(H  10,C   6)                  1.0922         0.357138   
     12. B(H  11,C   6)                  1.0923         0.357073   
     13. B(H  12,C   6)                  1.0925         0.356852   
     14. B(H  13,C   5)                  1.0876         0.363330   
     15. B(H  14,C   4)                  1.0873         0.363633   
     16. B(N  15,C   1)                  1.5440         0.317859   
     17. B(O  16,N  15)                  1.2200         0.935790   
     18. B(O  17,N  15)                  1.2196         0.937425   
     19. A(C   1,C   0,C   5)          121.4483         0.398003   
     20. A(C   5,C   0,C   6)          121.0209         0.399571   
     21. A(C   1,C   0,C   6)          117.5175         0.367226   
     22. A(C   2,C   1,H   9)          108.8815         0.325888   
     23. A(C   0,C   1,N  15)          115.5962         0.352505   
     24. A(H   9,C   1,N  15)          104.8562         0.313304   
     25. A(C   0,C   1,C   2)          113.2853         0.367289   
     26. A(C   2,C   1,N  15)          104.2785         0.353902   
     27. A(C   0,C   1,H   9)          109.4197         0.324639   
     28. A(C   3,C   2,H   8)          119.7094         0.367812   
     29. A(C   1,C   2,H   8)          116.1017         0.327087   
     30. A(C   1,C   2,C   3)          124.1887         0.416618   
     31. A(C   2,C   3,C   4)          118.6918         0.425376   
     32. A(C   4,C   3,H   7)          120.3218         0.333532   
     33. A(C   2,C   3,H   7)          120.9863         0.367903   
     34. A(C   5,C   4,H  14)          120.0371         0.353715   
     35. A(C   3,C   4,H  14)          118.0881         0.333521   
     36. A(C   3,C   4,C   5)          121.8747         0.408279   
     37. A(C   0,C   5,C   4)          120.4948         0.434286   
     38. A(C   4,C   5,H  13)          119.5166         0.353665   
     39. A(C   0,C   5,H  13)          119.9886         0.353389   
     40. A(C   0,C   6,H  10)          110.1950         0.326132   
     41. A(H  11,C   6,H  12)          108.1386         0.290041   
     42. A(H  10,C   6,H  12)          108.2914         0.290050   
     43. A(C   0,C   6,H  12)          110.9545         0.326089   
     44. A(H  10,C   6,H  11)          108.4528         0.290078   
     45. A(C   0,C   6,H  11)          110.7228         0.326122   
     46. A(O  16,N  15,O  17)          124.8304         0.491262   
     47. A(C   1,N  15,O  17)          117.0558         0.406709   
     48. A(C   1,N  15,O  16)          117.4237         0.406583   
     49. D(N  15,C   1,C   0,C   6)     59.9284         0.010831   
     50. D(C   2,C   1,C   0,C   5)      1.5004         0.010831   
     51. D(C   2,C   1,C   0,C   6)   -179.8142         0.010831   
     52. D(N  15,C   1,C   0,C   5)   -118.7570         0.010831   
     53. D(H   9,C   1,C   0,C   6)    -58.1270         0.010831   
     54. D(H   9,C   1,C   0,C   5)    123.1876         0.010831   
     55. D(H   8,C   2,C   1,N  15)    -54.4996         0.011319   
     56. D(C   3,C   2,C   1,C   0)     -1.1744         0.011319   
     57. D(C   3,C   2,C   1,N  15)    125.3278         0.011319   
     58. D(H   8,C   2,C   1,H   9)     57.0099         0.011319   
     59. D(H   8,C   2,C   1,C   0)    178.9981         0.011319   
     60. D(C   3,C   2,C   1,H   9)   -123.1627         0.011319   
     61. D(H   7,C   3,C   2,C   1)   -179.6843         0.044178   
     62. D(C   4,C   3,C   2,H   8)   -179.9144         0.044178   
     63. D(C   4,C   3,C   2,C   1)      0.2640         0.044178   
     64. D(H   7,C   3,C   2,H   8)      0.1372         0.044178   
     65. D(H  14,C   4,C   3,H   7)      0.2687         0.013109   
     66. D(H  14,C   4,C   3,C   2)   -179.6800         0.013109   
     67. D(C   5,C   4,C   3,H   7)   -179.5995         0.013109   
     68. D(C   5,C   4,C   3,C   2)      0.4518         0.013109   
     69. D(H  13,C   5,C   4,H  14)      0.0666         0.026810   
     70. D(C   0,C   5,C   4,H  14)   -179.9635         0.026810   
     71. D(C   0,C   5,C   4,C   3)     -0.0978         0.026810   
     72. D(H  13,C   5,C   0,C   6)      0.3926         0.026549   
     73. D(H  13,C   5,C   0,C   1)    179.0321         0.026549   
     74. D(H  13,C   5,C   4,C   3)    179.9322         0.026810   
     75. D(C   4,C   5,C   0,C   6)   -179.5772         0.026549   
     76. D(C   4,C   5,C   0,C   1)     -0.9377         0.026549   
     77. D(H  11,C   6,C   0,C   1)    143.4224         0.011297   
     78. D(H  10,C   6,C   0,C   5)     82.0967         0.011297   
     79. D(H  10,C   6,C   0,C   1)    -96.5946         0.011297   
     80. D(H  12,C   6,C   0,C   5)   -157.9726         0.011297   
     81. D(H  12,C   6,C   0,C   1)     23.3361         0.011297   
     82. D(H  11,C   6,C   0,C   5)    -37.8863         0.011297   
     83. D(O  17,N  15,C   1,H   9)     -3.1995         0.008858   
     84. D(O  17,N  15,C   1,C   2)    111.1929         0.008858   
     85. D(O  17,N  15,C   1,C   0)   -123.7625         0.008858   
     86. D(O  16,N  15,C   1,H   9)    167.7486         0.008858   
     87. D(O  16,N  15,C   1,C   2)    -77.8589         0.008858   
     88. D(O  16,N  15,C   1,C   0)     47.1856         0.008858   
    -----------------------------------------------------------------

Number of atoms                         .... 18
Number of degrees of freedom            .... 88

         *************************************************************
         *                GEOMETRY OPTIMIZATION CYCLE   1            *
         *************************************************************
---------------------------------
CARTESIAN COORDINATES (ANGSTROEM)
---------------------------------
  C     -4.007180    2.279000   -0.806070
  C     -4.995490    1.492260   -1.659720
  C     -4.872400   -0.011270   -1.488460
  C     -3.983250   -0.602180   -0.698050
  C     -3.044330    0.247610    0.080430
  C     -3.079470    1.636440    0.009460
  C     -4.049870    3.794020   -0.899890
  H     -3.937690   -1.685600   -0.618520
  H     -5.568280   -0.617080   -2.064480
  H     -6.015700    1.794940   -1.407020
  H     -3.294670    4.149610   -1.604330
  H     -3.854410    4.247270    0.074520
  H     -5.028360    4.136720   -1.244270
  H     -2.374940    2.220960    0.596640
  H     -2.317100   -0.246460    0.720230
  N     -4.883290    1.712370   -3.183790
  O     -3.768830    1.664380   -3.677920
  O     -5.887740    2.086240   -3.765710

----------------------------
CARTESIAN COORDINATES (A.U.)
----------------------------
  NO LB      ZA    FRAG     MASS         X           Y           Z
   0 C     6.0000    0    12.011   -7.572473    4.306686   -1.523252
   1 C     6.0000    0    12.011   -9.440108    2.819963   -3.136416
   2 C     6.0000    0    12.011   -9.207502   -0.021297   -2.812782
   3 C     6.0000    0    12.011   -7.527252   -1.137955   -1.319123
   4 C     6.0000    0    12.011   -5.752950    0.467915    0.151991
   5 C     6.0000    0    12.011   -5.819355    3.092423    0.017877
   6 C     6.0000    0    12.011   -7.653145    7.169659   -1.700546
   7 H     1.0000    0     1.008   -7.441156   -3.185322   -1.168833
   8 H     1.0000    0     1.008  -10.522524   -1.166112   -3.901302
   9 H     1.0000    0     1.008  -11.368026    3.391945   -2.658882
  10 H     1.0000    0     1.008   -6.226024    7.841626   -3.031744
  11 H     1.0000    0     1.008   -7.283779    8.026177    0.140822
  12 H     1.0000    0     1.008   -9.502223    7.817268   -2.351330
  13 H     1.0000    0     1.008   -4.487986    4.197006    1.127486
  14 H     1.0000    0     1.008   -4.378684   -0.465742    1.361037
  15 N     7.0000    0    14.007   -9.228081    3.235910   -6.016491
  16 O     8.0000    0    15.999   -7.122057    3.145222   -6.950262
  17 O     8.0000    0    15.999  -11.126216    3.942422   -7.116161

--------------------------------
INTERNAL COORDINATES (ANGSTROEM)
--------------------------------
 C      0   0   0     0.000000000000     0.00000000     0.00000000
 C      1   0   0     1.524609722585     0.00000000     0.00000000
 C      2   1   0     1.518250175893   113.28532417     0.00000000
 C      3   2   1     1.328348718786   124.18871831   358.82555464
 C      4   3   2     1.486521079871   118.69178140     0.26402794
 C      5   4   3     1.391086025162   121.87471322     0.45179250
 C      1   2   3     1.518522383404   117.51750327   180.18576239
 H      4   3   2     1.087290039916   120.98634963   180.31569663
 H      3   2   1     1.087682752874   116.10170441   178.99814922
 H      2   1   3     1.093755418958   109.41969328   121.68727161
 H      7   1   2     1.092248598855   110.19499704   263.40539987
 H      7   1   2     1.092298046414   110.72282878   143.42237657
 H      7   1   2     1.092466729242   110.95448935    23.33608601
 H      6   5   4     1.087569079967   119.51657534   179.93224026
 H      5   4   3     1.087342024296   118.08807700   180.31998571
 N      2   1   3     1.543964577638   115.59620077   239.74264734
 O     16   2   1     1.220036306263   117.42374495    47.18562621
 O     16   2   1     1.219561177555   117.05583114   236.23747681

---------------------------
INTERNAL COORDINATES (A.U.)
---------------------------
 C      0   0   0     0.000000000000     0.00000000     0.00000000
 C      1   0   0     2.881094836799     0.00000000     0.00000000
 C      2   1   0     2.869077035216   113.28532417     0.00000000
 C      3   2   1     2.510215288850   124.18871831   358.82555464
 C      4   3   2     2.809117733257   118.69178140     0.26402794
 C      5   4   3     2.628771616281   121.87471322     0.45179250
 C      1   2   3     2.869591432864   117.51750327   180.18576239
 H      4   3   2     2.054680403581   120.98634963   180.31569663
 H      3   2   1     2.055422523522   116.10170441   178.99814922
 H      2   1   3     2.066898199323   109.41969328   121.68727161
 H      7   1   2     2.064050721995   110.19499704   263.40539987
 H      7   1   2     2.064144164340   110.72282878   143.42237657
 H      7   1   2     2.064462928687   110.95448935    23.33608601
 H      6   5   4     2.055207712858   119.51657534   179.93224026
 H      5   4   3     2.054778639823   118.08807700   180.31998571
 N      2   1   3     2.917670212211   115.59620077   239.74264734
 O     16   2   1     2.305534492278   117.42374495    47.18562621
 O     16   2   1     2.304636629142   117.05583114   236.23747681

---------------------
BASIS SET INFORMATION
---------------------
There are 4 groups of distinct atoms

 Group   1 Type C   : 7s4p1d contracted to 3s2p1d pattern {511/31/1}
 Group   2 Type H   : 4s1p contracted to 2s1p pattern {31/1}
 Group   3 Type N   : 7s4p1d contracted to 3s2p1d pattern {511/31/1}
 Group   4 Type O   : 7s4p1d contracted to 3s2p1d pattern {511/31/1}

Atom   0C    basis set group =>   1
Atom   1C    basis set group =>   1
Atom   2C    basis set group =>   1
Atom   3C    basis set group =>   1
Atom   4C    basis set group =>   1
Atom   5C    basis set group =>   1
Atom   6C    basis set group =>   1
Atom   7H    basis set group =>   2
Atom   8H    basis set group =>   2
Atom   9H    basis set group =>   2
Atom  10H    basis set group =>   2
Atom  11H    basis set group =>   2
Atom  12H    basis set group =>   2
Atom  13H    basis set group =>   2
Atom  14H    basis set group =>   2
Atom  15N    basis set group =>   3
Atom  16O    basis set group =>   4
Atom  17O    basis set group =>   4
------------------------------------------------------------------------------
                           ORCA GTO INTEGRAL CALCULATION
------------------------------------------------------------------------------

                         BASIS SET STATISTICS AND STARTUP INFO

 # of primitive gaussian shells          ...  160
 # of primitive gaussian functions       ...  296
 # of contracted shells                  ...   84
 # of contracted basis functions         ...  180
 Highest angular momentum                ...    2
 Maximum contraction depth               ...    5
 Integral package used                   ... LIBINT
 Integral threshhold            Thresh   ...  2.500e-11
 Primitive cut-off              TCut     ...  2.500e-12


------------------------------ INTEGRAL EVALUATION ----------------------------


 * One electron integrals 
 Pre-screening matrix                    ... done
 Shell pair data                         ... done (   0.003 sec)

Timings:
 Total evaluation time               ...     0.005 sec (   0.000 min)
 One electron matrix time            ...     0.075 sec (   0.001 min) =1500.0%
 Schwartz matrix evaluation time     ...     0.298 sec (   0.005 min) =5960.0%

-------------------------------------------------------------------------------
                                 ORCA SCF
-------------------------------------------------------------------------------

------------
SCF SETTINGS
------------
Hamiltonian:
 Density Functional     Method          .... DFT(GTOs)
 Exchange Functional    Exchange        .... B88
   X-Alpha parameter    XAlpha          ....  0.666667
   Becke's b parameter  XBeta           ....  0.004200
 Correlation Functional Correlation     .... LYP
 LDA part of GGA corr.  LDAOpt          .... VWN-5
 Gradients option       PostSCFGGA      .... off
 Hybrid DFT is turned on
   Fraction HF Exchange ScalHFX         ....  0.200000
   Scaling of DF-GGA-X  ScalDFX         ....  0.720000
   Scaling of DF-GGA-C  ScalDFC         ....  0.810000
   Scaling of DF-LDA-C  ScalLDAC        ....  1.000000
   Perturbative correction              ....  0.000000
   Density functional embedding theory  .... OFF
   NL short-range parameter             ....  4.800000


General Settings:
 Integral files         IntName         .... neb_orto_ts_optfreq
 Hartree-Fock type      HFTyp           .... RHF
 Total Charge           Charge          ....    1
 Multiplicity           Mult            ....    1
 Number of Electrons    NEL             ....   72
 Basis Dimension        Dim             ....  180
 Nuclear Repulsion      ENuc            ....    514.2481100311 Eh

Convergence Acceleration:
 DIIS                   CNVDIIS         .... on
   Start iteration      DIISMaxIt       ....    12
   Startup error        DIISStart       ....  0.200000
   # of expansion vecs  DIISMaxEq       ....     5
   Bias factor          DIISBfac        ....   1.050
   Max. coefficient     DIISMaxC        ....  10.000
 Newton-Raphson         CNVNR           .... off
 SOSCF                  CNVSOSCF        .... on
   Start iteration      SOSCFMaxIt      ....   150
   Startup grad/error   SOSCFStart      ....  0.003300
 Level Shifting         CNVShift        .... on
   Level shift para.    LevelShift      ....    0.2500
   Turn off err/grad.   ShiftErr        ....    0.0010
 Zerner damping         CNVZerner       .... off
 Static damping         CNVDamp         .... on
   Fraction old density DampFac         ....    0.7000
   Max. Damping (<1)    DampMax         ....    0.9800
   Min. Damping (>=0)   DampMin         ....    0.0000
   Turn off err/grad.   DampErr         ....    0.1000
 Fernandez-Rico         CNVRico         .... off

SCF Procedure:
 Maximum # iterations   MaxIter         ....   125
 SCF integral mode      SCFMode         .... Direct
   Integral package                     .... LIBINT
 Reset frequency        DirectResetFreq ....    20
 Integral Threshold     Thresh          ....  2.500e-11 Eh
 Primitive CutOff       TCut            ....  2.500e-12 Eh

Convergence Tolerance:
 Convergence Check Mode ConvCheckMode   .... Total+1el-Energy
 Convergence forced     ConvForced      .... 0
 Energy Change          TolE            ....  1.000e-08 Eh
 1-El. energy change                    ....  1.000e-05 Eh
 Orbital Gradient       TolG            ....  1.000e-05
 Orbital Rotation angle TolX            ....  1.000e-05
 DIIS Error             TolErr          ....  5.000e-07


Diagonalization of the overlap matrix:
Smallest eigenvalue                        ... 3.610e-04
Time for diagonalization                   ...    0.014 sec
Threshold for overlap eigenvalues          ... 1.000e-08
Number of eigenvalues below threshold      ... 0
Time for construction of square roots      ...    0.024 sec
Total time needed                          ...    0.039 sec

-------------------
DFT GRID GENERATION
-------------------

General Integration Accuracy     IntAcc      ...  4.340
Radial Grid Type                 RadialGrid  ... Gauss-Chebyshev
Angular Grid (max. acc.)         AngularGrid ... Lebedev-110
Angular grid pruning method      GridPruning ... 3 (G Style)
Weight generation scheme         WeightScheme... Becke
Basis function cutoff            BFCut       ...    1.0000e-11
Integration weight cutoff        WCut        ...    1.0000e-14
Grids for H and He will be reduced by one unit

# of grid points (after initial pruning)     ...  23078 (   0.2 sec)
# of grid points (after weights+screening)   ...  21219 (   0.3 sec)
nearest neighbour list constructed           ...    0.0 sec
Grid point re-assignment to atoms done       ...    0.0 sec
Grid point division into batches done        ...    0.1 sec
Reduced shell lists constructed in    0.7 sec

Total number of grid points                  ...    21219
Total number of batches                      ...      342
Average number of points per batch           ...       62
Average number of grid points per atom       ...     1179
Average number of shells per batch           ...    58.48 (69.62%)
Average number of basis functions per batch  ...   123.18 (68.43%)
Average number of large shells per batch     ...    44.92 (76.81%)
Average number of large basis fcns per batch ...    92.37 (74.99%)
Maximum spatial batch extension              ...  20.60, 23.03, 20.65 au
Average spatial batch extension              ...   3.62,  3.67,  3.78 au

Time for grid setup =    1.186 sec

------------------------------
INITIAL GUESS: MODEL POTENTIAL
------------------------------
Loading Hartree-Fock densities                     ... done
Calculating cut-offs                               ... done
Setting up the integral package                    ... done
Initializing the effective Hamiltonian             ... done
Starting the Coulomb interaction                   ... done (   0.6 sec)
Reading the grid                                   ... done
Mapping shells                                     ... done
Starting the XC term evaluation                    ... done (   0.9 sec)
  promolecular density results
     # of electrons  =     73.008529566
     EX              =    -61.277194552
     EC              =     -2.488189390
     EX+EC           =    -63.765383941
Transforming the Hamiltonian                       ... done (   0.0 sec)
Diagonalizing the Hamiltonian                      ... done (   0.0 sec)
Back transforming the eigenvectors                 ... done (   0.0 sec)
Now organizing SCF variables                       ... done
                      ------------------
                      INITIAL GUESS DONE (   3.2 sec)
                      ------------------
--------------
SCF ITERATIONS
--------------
ITER       Energy         Delta-E        Max-DP      RMS-DP      [F,P]     Damp
               ***  Starting incremental Fock matrix formation  ***
  0   -475.4701239172   0.000000000000 0.10311361  0.00277766  0.2516928 0.7000
  1   -475.5906517115  -0.120527794284 0.04863943  0.00166576  0.0843892 0.7000
                               ***Turning on DIIS***
  2   -475.6285446888  -0.037892977369 0.07122827  0.00254311  0.0320740 0.0000
  3   -475.7041577544  -0.075613065558 0.04529862  0.00109139  0.0414532 0.0000
  4   -475.7134790824  -0.009321328046 0.01721333  0.00032463  0.0190690 0.0000
                      *** Initiating the SOSCF procedure ***
                           *** Shutting down DIIS ***
                      *** Re-Reading the Fockian *** 
                      *** Removing any level shift *** 
ITER      Energy       Delta-E        Grad      Rot      Max-DP    RMS-DP
  5   -475.71491881  -0.0014397285  0.000588  0.000588  0.004584  0.000104
               *** Restarting incremental Fock matrix formation ***
  6   -475.71496061  -0.0000418015  0.000507  0.003794  0.002670  0.000073
  7   -475.71494976   0.0000108565  0.000826  0.001302  0.001804  0.000043
  8   -475.71497113  -0.0000213715  0.000328  0.001013  0.001774  0.000035
  9   -475.71496453   0.0000065997  0.000753  0.000752  0.001327  0.000024
 10   -475.71497236  -0.0000078372  0.000069  0.000307  0.000320  0.000011
 11   -475.71497203   0.0000003372  0.000128  0.000194  0.000223  0.000007
 12   -475.71497256  -0.0000005318  0.000006  0.000024  0.000045  0.000001
 13   -475.71497256   0.0000000036  0.000012  0.000016  0.000028  0.000001
                 **** Energy Check signals convergence ****
              ***Rediagonalizing the Fockian in SOSCF/NRSCF***

               *****************************************************
               *                     SUCCESS                       *
               *           SCF CONVERGED AFTER  14 CYCLES          *
               *****************************************************

Setting up the final grid:

General Integration Accuracy     IntAcc      ...  4.670
Radial Grid Type                 RadialGrid  ... Gauss-Chebyshev
Angular Grid (max. acc.)         AngularGrid ... Lebedev-302
Angular grid pruning method      GridPruning ... 3 (G Style)
Weight generation scheme         WeightScheme... Becke
Basis function cutoff            BFCut       ...    1.0000e-11
Integration weight cutoff        WCut        ...    1.0000e-14
Grids for H and He will be reduced by one unit

# of grid points (after initial pruning)     ...  89272 (   0.1 sec)
# of grid points (after weights+screening)   ...  80989 (   0.8 sec)
nearest neighbour list constructed           ...    0.0 sec
Grid point re-assignment to atoms done       ...    0.0 sec
Grid point division into batches done        ...    0.6 sec
Reduced shell lists constructed in    1.9 sec

Total number of grid points                  ...    80989
Total number of batches                      ...     1273
Average number of points per batch           ...       63
Average number of grid points per atom       ...     4499
Average number of shells per batch           ...    53.35 (63.51%)
Average number of basis functions per batch  ...   111.16 (61.76%)
Average number of large shells per batch     ...    40.19 (75.34%)
Average number of large basis fcns per batch ...    81.92 (73.70%)
Maximum spatial batch extension              ...  18.89, 19.33, 17.10 au
Average spatial batch extension              ...   2.42,  2.44,  2.48 au

Final grid set up in    2.7 sec
Final integration                            ... done (   2.8 sec)
Change in XC energy                          ...     0.000226468
Integrated number of electrons               ...    72.000029036
Previous integrated no of electrons          ...    72.006530479

----------------
TOTAL SCF ENERGY
----------------

Total Energy       :         -475.71474609 Eh          -12944.85634 eV

Components:
Nuclear Repulsion  :          514.24811003 Eh           13993.40248 eV
Electronic Energy  :         -989.96285612 Eh          -26938.25883 eV
One Electron Energy:        -1651.40696446 Eh          -44937.06806 eV
Two Electron Energy:          661.44410833 Eh           17998.80923 eV

Virial components:
Potential Energy   :         -947.18198099 Eh          -25774.13203 eV
Kinetic Energy     :          471.46723490 Eh           12829.27569 eV
Virial Ratio       :            2.00900913


DFT components:
N(Alpha)           :       36.000014517764 electrons
N(Beta)            :       36.000014517764 electrons
N(Total)           :       72.000029035528 electrons
E(X)               :      -49.053570663934 Eh       
E(C)               :       -2.896767021858 Eh       
E(XC)              :      -51.950337685792 Eh       
DFET-embed. en.    :        0.000000000000 Eh       

---------------
SCF CONVERGENCE
---------------

  Last Energy change         ...   -5.4662e-09  Tolerance :   1.0000e-08
  Last MAX-Density change    ...    8.8558e-06  Tolerance :   1.0000e-07
  Last RMS-Density change    ...    3.3435e-07  Tolerance :   5.0000e-09
  Last Orbital Gradient      ...    2.1094e-06  Tolerance :   1.0000e-05
  Last Orbital Rotation      ...    6.3615e-06  Tolerance :   1.0000e-05

             **** THE GBW FILE WAS UPDATED (neb_orto_ts_optfreq.gbw) ****
             **** DENSITY FILE WAS UPDATED (neb_orto_ts_optfreq.scfp) ****
             **** ENERGY FILE WAS UPDATED (neb_orto_ts_optfreq.en.tmp) ****
             **** THE GBW FILE WAS UPDATED (neb_orto_ts_optfreq.gbw) ****
             **** DENSITY FILE WAS UPDATED (neb_orto_ts_optfreq.scfp) ****
----------------
ORBITAL ENERGIES
----------------

  NO   OCC          E(Eh)            E(eV) 
   0   2.0000     -19.339568      -526.2564 
   1   2.0000     -19.337275      -526.1940 
   2   2.0000     -14.736367      -400.9969 
   3   2.0000     -10.463939      -284.7383 
   4   2.0000     -10.456111      -284.5252 
   5   2.0000     -10.454851      -284.4910 
   6   2.0000     -10.424108      -283.6544 
   7   2.0000     -10.412552      -283.3399 
   8   2.0000     -10.407040      -283.1900 
   9   2.0000     -10.375021      -282.3187 
  10   2.0000      -1.394165       -37.9372 
  11   2.0000      -1.220585       -33.2138 
  12   2.0000      -1.079372       -29.3712 
  13   2.0000      -0.995196       -27.0806 
  14   2.0000      -0.985434       -26.8150 
  15   2.0000      -0.908780       -24.7292 
  16   2.0000      -0.855213       -23.2715 
  17   2.0000      -0.807787       -21.9810 
  18   2.0000      -0.784983       -21.3605 
  19   2.0000      -0.725235       -19.7347 
  20   2.0000      -0.714971       -19.4554 
  21   2.0000      -0.709792       -19.3144 
  22   2.0000      -0.686793       -18.6886 
  23   2.0000      -0.665875       -18.1194 
  24   2.0000      -0.662850       -18.0371 
  25   2.0000      -0.642155       -17.4739 
  26   2.0000      -0.621199       -16.9037 
  27   2.0000      -0.603841       -16.4313 
  28   2.0000      -0.588942       -16.0259 
  29   2.0000      -0.569361       -15.4931 
  30   2.0000      -0.550637       -14.9836 
  31   2.0000      -0.546201       -14.8629 
  32   2.0000      -0.485198       -13.2029 
  33   2.0000      -0.478250       -13.0139 
  34   2.0000      -0.472415       -12.8551 
  35   2.0000      -0.461934       -12.5699 
  36   0.0000      -0.338852        -9.2206 
  37   0.0000      -0.247092        -6.7237 
  38   0.0000      -0.209992        -5.7142 
  39   0.0000      -0.143003        -3.8913 
  40   0.0000      -0.107300        -2.9198 
  41   0.0000      -0.084759        -2.3064 
  42   0.0000      -0.077087        -2.0977 
  43   0.0000      -0.053604        -1.4586 
  44   0.0000      -0.045610        -1.2411 
  45   0.0000      -0.034256        -0.9321 
  46   0.0000      -0.028988        -0.7888 
  47   0.0000      -0.015570        -0.4237 
  48   0.0000      -0.006857        -0.1866 
  49   0.0000       0.014425         0.3925 
  50   0.0000       0.026793         0.7291 
  51   0.0000       0.051063         1.3895 
  52   0.0000       0.076437         2.0800 
  53   0.0000       0.108866         2.9624 
  54   0.0000       0.131886         3.5888 
  55   0.0000       0.161753         4.4015 
  56   0.0000       0.184568         5.0224 
  57   0.0000       0.202795         5.5183 
  58   0.0000       0.216432         5.8894 
  59   0.0000       0.228299         6.2123 
  60   0.0000       0.238090         6.4788 
  61   0.0000       0.244584         6.6555 
  62   0.0000       0.263500         7.1702 
  63   0.0000       0.273211         7.4345 
  64   0.0000       0.295158         8.0316 
  65   0.0000       0.297963         8.1080 
  66   0.0000       0.329868         8.9762 
  67   0.0000       0.334856         9.1119 
  68   0.0000       0.352614         9.5951 
  69   0.0000       0.375294        10.2123 
  70   0.0000       0.399569        10.8728 
  71   0.0000       0.421416        11.4673 
  72   0.0000       0.424549        11.5526 
  73   0.0000       0.443317        12.0633 
  74   0.0000       0.455174        12.3859 
  75   0.0000       0.463274        12.6063 
  76   0.0000       0.477528        12.9942 
  77   0.0000       0.484401        13.1812 
  78   0.0000       0.494673        13.4607 
  79   0.0000       0.502154        13.6643 
  80   0.0000       0.507268        13.8035 
  81   0.0000       0.512065        13.9340 
  82   0.0000       0.522410        14.2155 
  83   0.0000       0.531092        14.4517 
  84   0.0000       0.540814        14.7163 
  85   0.0000       0.558719        15.2035 
  86   0.0000       0.578860        15.7516 
  87   0.0000       0.624109        16.9829 
  88   0.0000       0.631384        17.1808 
  89   0.0000       0.715752        19.4766 
  90   0.0000       0.720285        19.5999 
  91   0.0000       0.742246        20.1975 
  92   0.0000       0.757837        20.6218 
  93   0.0000       0.763662        20.7803 
  94   0.0000       0.826314        22.4851 
  95   0.0000       0.842779        22.9332 
  96   0.0000       0.847762        23.0688 
  97   0.0000       0.878555        23.9067 
  98   0.0000       0.895470        24.3670 
  99   0.0000       0.910641        24.7798 
 100   0.0000       0.943350        25.6699 
 101   0.0000       0.978521        26.6269 
 102   0.0000       1.000079        27.2135 
 103   0.0000       1.044850        28.4318 
 104   0.0000       1.067199        29.0400 
 105   0.0000       1.070762        29.1369 
 106   0.0000       1.078225        29.3400 
 107   0.0000       1.127707        30.6865 
 108   0.0000       1.201476        32.6938 
 109   0.0000       1.224029        33.3075 
 110   0.0000       1.259710        34.2785 
 111   0.0000       1.303097        35.4591 
 112   0.0000       1.328873        36.1605 
 113   0.0000       1.373480        37.3743 
 114   0.0000       1.404337        38.2139 
 115   0.0000       1.440561        39.1997 
 116   0.0000       1.463609        39.8268 
 117   0.0000       1.479261        40.2527 
 118   0.0000       1.496721        40.7278 
 119   0.0000       1.506346        40.9898 
 120   0.0000       1.534619        41.7591 
 121   0.0000       1.554972        42.3129 
 122   0.0000       1.575446        42.8701 
 123   0.0000       1.584018        43.1033 
 124   0.0000       1.595150        43.4062 
 125   0.0000       1.620310        44.0909 
 126   0.0000       1.623852        44.1873 
 127   0.0000       1.637080        44.5472 
 128   0.0000       1.641536        44.6685 
 129   0.0000       1.661824        45.2205 
 130   0.0000       1.694073        46.0981 
 131   0.0000       1.714124        46.6437 
 132   0.0000       1.751946        47.6729 
 133   0.0000       1.765972        48.0545 
 134   0.0000       1.820712        49.5441 
 135   0.0000       1.830104        49.7997 
 136   0.0000       1.837953        50.0133 
 137   0.0000       1.867164        50.8081 
 138   0.0000       1.897289        51.6279 
 139   0.0000       1.915714        52.1292 
 140   0.0000       1.933497        52.6131 
 141   0.0000       1.969675        53.5976 
 142   0.0000       2.002977        54.5038 
 143   0.0000       2.060621        56.0724 
 144   0.0000       2.068962        56.2993 
 145   0.0000       2.095575        57.0235 
 146   0.0000       2.117077        57.6086 
 147   0.0000       2.133500        58.0555 
 148   0.0000       2.168592        59.0104 
 149   0.0000       2.230679        60.6999 
 150   0.0000       2.238854        60.9223 
 151   0.0000       2.251142        61.2567 
 152   0.0000       2.258849        61.4664 
 153   0.0000       2.304031        62.6959 
 154   0.0000       2.361276        64.2536 
 155   0.0000       2.385460        64.9117 
 156   0.0000       2.409964        65.5784 
 157   0.0000       2.420253        65.8584 
 158   0.0000       2.458244        66.8922 
 159   0.0000       2.479895        67.4814 
 160   0.0000       2.494784        67.8865 
 161   0.0000       2.523110        68.6573 
 162   0.0000       2.538172        69.0672 
 163   0.0000       2.555424        69.5366 
 164   0.0000       2.562766        69.7364 
 165   0.0000       2.619998        71.2938 
 166   0.0000       2.649430        72.0946 
 167   0.0000       2.667172        72.5774 
 168   0.0000       2.721498        74.0557 
 169   0.0000       2.755289        74.9752 
 170   0.0000       2.794494        76.0421 
 171   0.0000       2.869420        78.0809 
 172   0.0000       2.898065        78.8604 
 173   0.0000       2.940803        80.0233 
 174   0.0000       2.979977        81.0893 
 175   0.0000       3.122116        84.9571 
 176   0.0000       3.244280        88.2813 
 177   0.0000       3.267861        88.9230 
 178   0.0000       3.556807        96.7856 
 179   0.0000       3.593741        97.7907 

                    ********************************
                    * MULLIKEN POPULATION ANALYSIS *
                    ********************************

-----------------------
MULLIKEN ATOMIC CHARGES
-----------------------
   0 C :   -0.092732
   1 C :    0.212636
   2 C :    0.021812
   3 C :    0.059040
   4 C :    0.113617
   5 C :    0.064317
   6 C :    0.071781
   7 H :    0.073654
   8 H :    0.083814
   9 H :    0.107216
  10 H :    0.115934
  11 H :    0.085693
  12 H :    0.070900
  13 H :    0.057213
  14 H :    0.091874
  15 N :    0.181298
  16 O :   -0.168650
  17 O :   -0.149415
Sum of atomic charges:    1.0000000

--------------------------------
MULLIKEN REDUCED ORBITAL CHARGES
--------------------------------
  0 C s       :     3.187863  s :     3.187863
      pz      :     0.856931  p :     2.862658
      px      :     0.889536
      py      :     1.116191
      dz2     :     0.005836  d :     0.042212
      dxz     :     0.005492
      dyz     :     0.010006
      dx2y2   :     0.009902
      dxy     :     0.010976
  1 C s       :     2.961130  s :     2.961130
      pz      :     0.787096  p :     2.782920
      px      :     1.027373
      py      :     0.968451
      dz2     :     0.013346  d :     0.043313
      dxz     :     0.005595
      dyz     :     0.008057
      dx2y2   :     0.009095
      dxy     :     0.007221
  2 C s       :     3.213004  s :     3.213004
      pz      :     0.886712  p :     2.730628
      px      :     0.897569
      py      :     0.946348
      dz2     :     0.005874  d :     0.034556
      dxz     :     0.004588
      dyz     :     0.006477
      dx2y2   :     0.008827
      dxy     :     0.008790
  3 C s       :     3.165964  s :     3.165964
      pz      :     0.947507  p :     2.742139
      px      :     0.942408
      py      :     0.852223
      dz2     :     0.004267  d :     0.032856
      dxz     :     0.005700
      dyz     :     0.006807
      dx2y2   :     0.007948
      dxy     :     0.008134
  4 C s       :     3.216093  s :     3.216093
      pz      :     0.805811  p :     2.636005
      px      :     0.857453
      py      :     0.972741
      dz2     :     0.003902  d :     0.034286
      dxz     :     0.004064
      dyz     :     0.008653
      dx2y2   :     0.008198
      dxy     :     0.009469
  5 C s       :     3.199773  s :     3.199773
      pz      :     0.941118  p :     2.704182
      px      :     0.896098
      py      :     0.866965
      dz2     :     0.003985  d :     0.031729
      dxz     :     0.004388
      dyz     :     0.006575
      dx2y2   :     0.008611
      dxy     :     0.008170
  6 C s       :     2.969919  s :     2.969919
      pz      :     1.037169  p :     2.933195
      px      :     1.036447
      py      :     0.859579
      dz2     :     0.005150  d :     0.025105
      dxz     :     0.004878
      dyz     :     0.003883
      dx2y2   :     0.008065
      dxy     :     0.003129
  7 H s       :     0.902899  s :     0.902899
      pz      :     0.003584  p :     0.023448
      px      :     0.003380
      py      :     0.016484
  8 H s       :     0.892735  s :     0.892735
      pz      :     0.007164  p :     0.023451
      px      :     0.008940
      py      :     0.007347
  9 H s       :     0.869916  s :     0.869916
      pz      :     0.003111  p :     0.022868
      px      :     0.015188
      py      :     0.004569
 10 H s       :     0.858664  s :     0.858664
      pz      :     0.009619  p :     0.025402
      px      :     0.010148
      py      :     0.005635
 11 H s       :     0.889884  s :     0.889884
      pz      :     0.013012  p :     0.024424
      px      :     0.005217
      py      :     0.006195
 12 H s       :     0.905063  s :     0.905063
      pz      :     0.005776  p :     0.024037
      px      :     0.012966
      py      :     0.005296
 13 H s       :     0.919322  s :     0.919322
      pz      :     0.007490  p :     0.023465
      px      :     0.009155
      py      :     0.006819
 14 H s       :     0.885367  s :     0.885367
      pz      :     0.007572  p :     0.022759
      px      :     0.009083
      py      :     0.006104
 15 N s       :     3.340314  s :     3.340314
      pz      :     1.138536  p :     3.364252
      px      :     1.035120
      py      :     1.190596
      dz2     :     0.027283  d :     0.114135
      dxz     :     0.032559
      dyz     :     0.006308
      dx2y2   :     0.020571
      dxy     :     0.027415
 16 O s       :     3.875067  s :     3.875067
      pz      :     1.664491  p :     4.270564
      px      :     1.195484
      py      :     1.410589
      dz2     :     0.002958  d :     0.023019
      dxz     :     0.006766
      dyz     :     0.001381
      dx2y2   :     0.006378
      dxy     :     0.005536
 17 O s       :     3.878083  s :     3.878083
      pz      :     1.605625  p :     4.248161
      px      :     1.315490
      py      :     1.327046
      dz2     :     0.003070  d :     0.023171
      dxz     :     0.006842
      dyz     :     0.002385
      dx2y2   :     0.005237
      dxy     :     0.005638


                     *******************************
                     * LOEWDIN POPULATION ANALYSIS *
                     *******************************

----------------------
LOEWDIN ATOMIC CHARGES
----------------------
   0 C :    0.145212
   1 C :    0.024156
   2 C :    0.091562
   3 C :    0.003055
   4 C :    0.193448
   5 C :   -0.008473
   6 C :   -0.024303
   7 H :    0.068971
   8 H :    0.066315
   9 H :    0.093055
  10 H :    0.085761
  11 H :    0.067606
  12 H :    0.056790
  13 H :    0.066754
  14 H :    0.071528
  15 N :    0.278859
  16 O :   -0.152577
  17 O :   -0.127720

-------------------------------
LOEWDIN REDUCED ORBITAL CHARGES
-------------------------------
  0 C s       :     2.908105  s :     2.908105
      pz      :     0.873683  p :     2.849426
      px      :     0.898450
      py      :     1.077292
      dz2     :     0.012077  d :     0.097257
      dxz     :     0.014749
      dyz     :     0.022218
      dx2y2   :     0.023224
      dxy     :     0.024988
  1 C s       :     2.869823  s :     2.869823
      pz      :     0.888039  p :     3.000569
      px      :     1.068891
      py      :     1.043638
      dz2     :     0.032715  d :     0.105452
      dxz     :     0.014624
      dyz     :     0.017672
      dx2y2   :     0.023413
      dxy     :     0.017028
  2 C s       :     2.883148  s :     2.883148
      pz      :     0.942305  p :     2.937838
      px      :     0.975107
      py      :     1.020426
      dz2     :     0.012433  d :     0.087451
      dxz     :     0.012727
      dyz     :     0.017272
      dx2y2   :     0.023420
      dxy     :     0.021600
  3 C s       :     2.867111  s :     2.867111
      pz      :     0.989005  p :     3.043906
      px      :     1.001325
      py      :     1.053576
      dz2     :     0.009570  d :     0.085928
      dxz     :     0.016240
      dyz     :     0.017610
      dx2y2   :     0.020650
      dxy     :     0.021857
  4 C s       :     2.903006  s :     2.903006
      pz      :     0.839337  p :     2.821341
      px      :     0.902210
      py      :     1.079795
      dz2     :     0.008445  d :     0.082205
      dxz     :     0.008931
      dyz     :     0.020403
      dx2y2   :     0.021058
      dxy     :     0.023368
  5 C s       :     2.861493  s :     2.861493
      pz      :     1.002715  p :     3.059917
      px      :     1.006636
      py      :     1.050567
      dz2     :     0.009444  d :     0.087063
      dxz     :     0.012086
      dyz     :     0.017854
      dx2y2   :     0.024865
      dxy     :     0.022813
  6 C s       :     2.832153  s :     2.832153
      pz      :     1.079367  p :     3.125541
      px      :     1.079717
      py      :     0.966457
      dz2     :     0.013670  d :     0.066609
      dxz     :     0.011924
      dyz     :     0.010034
      dx2y2   :     0.022834
      dxy     :     0.008147
  7 H s       :     0.860639  s :     0.860639
      pz      :     0.011558  p :     0.070390
      px      :     0.010965
      py      :     0.047868
  8 H s       :     0.862276  s :     0.862276
      pz      :     0.021183  p :     0.071410
      px      :     0.026226
      py      :     0.024000
  9 H s       :     0.834064  s :     0.834064
      pz      :     0.011996  p :     0.072881
      px      :     0.045541
      py      :     0.015343
 10 H s       :     0.844969  s :     0.844969
      pz      :     0.025960  p :     0.069269
      px      :     0.027688
      py      :     0.015622
 11 H s       :     0.864548  s :     0.864548
      pz      :     0.036881  p :     0.067845
      px      :     0.013592
      py      :     0.017373
 12 H s       :     0.875886  s :     0.875886
      pz      :     0.015590  p :     0.067324
      px      :     0.036914
      py      :     0.014820
 13 H s       :     0.863063  s :     0.863063
      pz      :     0.022701  p :     0.070183
      px      :     0.026916
      py      :     0.020566
 14 H s       :     0.858641  s :     0.858641
      pz      :     0.023072  p :     0.069831
      px      :     0.027754
      py      :     0.019005
 15 N s       :     3.066804  s :     3.066804
      pz      :     1.140436  p :     3.417133
      px      :     1.135548
      py      :     1.141149
      dz2     :     0.057019  d :     0.237205
      dxz     :     0.071038
      dyz     :     0.010927
      dx2y2   :     0.046973
      dxy     :     0.051248
 16 O s       :     3.628177  s :     3.628177
      pz      :     1.702308  p :     4.480009
      px      :     1.353049
      py      :     1.424651
      dz2     :     0.004819  d :     0.044391
      dxz     :     0.014966
      dyz     :     0.001769
      dx2y2   :     0.014872
      dxy     :     0.007965
 17 O s       :     3.629137  s :     3.629137
      pz      :     1.654301  p :     4.454045
      px      :     1.439770
      py      :     1.359974
      dz2     :     0.004636  d :     0.044538
      dxz     :     0.015329
      dyz     :     0.004121
      dx2y2   :     0.010228
      dxy     :     0.010224


                      *****************************
                      * MAYER POPULATION ANALYSIS *
                      *****************************

  NA   - Mulliken gross atomic population
  ZA   - Total nuclear charge
  QA   - Mulliken gross atomic charge
  VA   - Mayer's total valence
  BVA  - Mayer's bonded valence
  FA   - Mayer's free valence

  ATOM       NA         ZA         QA         VA         BVA        FA
  0 C      6.0927     6.0000    -0.0927     3.9735     3.9735    -0.0000
  1 C      5.7874     6.0000     0.2126     3.7455     3.7455     0.0000
  2 C      5.9782     6.0000     0.0218     3.9299     3.9299    -0.0000
  3 C      5.9410     6.0000     0.0590     3.8633     3.8633    -0.0000
  4 C      5.8864     6.0000     0.1136     3.7574     3.7574     0.0000
  5 C      5.9357     6.0000     0.0643     3.8408     3.8408    -0.0000
  6 C      5.9282     6.0000     0.0718     3.9045     3.9045     0.0000
  7 H      0.9263     1.0000     0.0737     0.9828     0.9828    -0.0000
  8 H      0.9162     1.0000     0.0838     0.9850     0.9850    -0.0000
  9 H      0.8928     1.0000     0.1072     1.0009     1.0009    -0.0000
 10 H      0.8841     1.0000     0.1159     0.9938     0.9938    -0.0000
 11 H      0.9143     1.0000     0.0857     0.9945     0.9945     0.0000
 12 H      0.9291     1.0000     0.0709     0.9982     0.9982     0.0000
 13 H      0.9428     1.0000     0.0572     0.9929     0.9929    -0.0000
 14 H      0.9081     1.0000     0.0919     0.9776     0.9776     0.0000
 15 N      6.8187     7.0000     0.1813     3.9733     3.9733    -0.0000
 16 O      8.1686     8.0000    -0.1686     1.9913     1.9913    -0.0000
 17 O      8.1494     8.0000    -0.1494     2.0238     2.0238    -0.0000

  Mayer bond orders larger than 0.100000
B(  0-C ,  1-C ) :   0.9928 B(  0-C ,  4-C ) :   0.1296 B(  0-C ,  5-C ) :   1.4624 
B(  0-C ,  6-C ) :   1.0883 B(  1-C ,  2-C ) :   0.9901 B(  1-C ,  9-H ) :   0.8607 
B(  1-C , 15-N ) :   0.7872 B(  2-C ,  3-C ) :   1.6793 B(  2-C ,  8-H ) :   0.9644 
B(  3-C ,  4-C ) :   1.1629 B(  3-C ,  7-H ) :   0.9797 B(  4-C ,  5-C ) :   1.3464 
B(  4-C , 14-H ) :   0.9699 B(  5-C , 13-H ) :   0.9873 B(  6-C , 10-H ) :   0.9149 
B(  6-C , 11-H ) :   0.9397 B(  6-C , 12-H ) :   0.9519 B( 15-N , 16-O ) :   1.5678 
B( 15-N , 17-O ) :   1.5530 B( 16-O , 17-O ) :   0.3106 

-------
TIMINGS
-------

Total SCF time: 0 days 0 hours 3 min 14 sec 

Total time                  ....     194.702 sec
Sum of individual times     ....     193.564 sec  ( 99.4%)

Fock matrix formation       ....     187.299 sec  ( 96.2%)
  XC integration            ....      13.266 sec  (  7.1% of F)
    Basis function eval.    ....       4.037 sec  ( 30.4% of XC)
    Density eval.           ....       3.228 sec  ( 24.3% of XC)
    XC-Functional eval.     ....       0.674 sec  (  5.1% of XC)
    XC-Potential eval.      ....       4.533 sec  ( 34.2% of XC)
Diagonalization             ....       0.090 sec  (  0.0%)
Density matrix formation    ....       0.018 sec  (  0.0%)
Population analysis         ....       0.055 sec  (  0.0%)
Initial guess               ....       2.013 sec  (  1.0%)
Orbital Transformation      ....       0.000 sec  (  0.0%)
Orbital Orthonormalization  ....       0.000 sec  (  0.0%)
DIIS solution               ....       0.096 sec  (  0.0%)
SOSCF solution              ....       0.103 sec  (  0.1%)
Grid generation             ....       3.890 sec  (  2.0%)

-------------------------   --------------------
FINAL SINGLE POINT ENERGY      -475.714746093117
-------------------------   --------------------

------------------------------------------------------------------------------
                         ORCA SCF GRADIENT CALCULATION
------------------------------------------------------------------------------

Gradient of the Kohn-Sham DFT energy:
Kohn-Sham wavefunction type      ... RKS
Hartree-Fock exchange scaling    ...    0.200
Number of operators              ...    1
Number of atoms                  ...   18
Basis set dimensions             ...  180
Integral neglect threshold       ... 2.5e-11
Integral primitive cutoff        ... 2.5e-12

Nuclear repulsion gradient       ... done
One Electron Gradient            ... done
Pre-screening matrix             ... done
Starting the two electron gradient:
Two electron gradient done
Exchange-correlation gradient    ... done

------------------
CARTESIAN GRADIENT
------------------

   1   C   :    0.000489786   -0.024503388    0.017349407
   2   C   :   -0.018591886    0.034423152   -0.023754526
   3   C   :    0.025282416   -0.019460038    0.018519581
   4   C   :   -0.040919295   -0.013555698   -0.036245053
   5   C   :    0.026032202    0.026311727    0.022735307
   6   C   :    0.009114926   -0.002302273    0.005932390
   7   C   :    0.010397056    0.023443365   -0.006402043
   8   H   :   -0.002186721    0.003119114   -0.002140901
   9   H   :    0.003831583    0.001645786    0.004264299
  10   H   :    0.005427723   -0.003161320   -0.001463999
  11   H   :   -0.007461416   -0.001957389    0.006295957
  12   H   :   -0.004511512   -0.002354245   -0.004741844
  13   H   :    0.003384197   -0.002397189    0.003778125
  14   H   :   -0.001076902   -0.003193744   -0.002413364
  15   H   :   -0.004261261    0.002113247   -0.002984421
  16   N   :   -0.007146043   -0.047786790    0.035572994
  17   O   :    0.007466796    0.013045124   -0.016911345
  18   O   :   -0.005271648    0.016570560   -0.017390564

Difference to translation invariance:
           :    0.0000000000    0.0000000000    0.0000000000

Norm of the cartesian gradient     ...    0.1236089819
RMS gradient                       ...    0.0168210518
MAX gradient                       ...    0.0477867898

-------
TIMINGS
-------

Total SCF gradient time            ...       61.717 sec

One electron gradient       ....       0.356 sec  (  0.6%)
Prescreening matrices       ....       0.234 sec  (  0.4%)
Two electron gradient       ....      47.322 sec  ( 76.7%)
XC gradient                 ....      13.513 sec  ( 21.9%)
------------------------------------------------------------------------------
                         ORCA GEOMETRY RELAXATION STEP
------------------------------------------------------------------------------

Reading the OPT-File                    .... done
Getting information on internals        .... done
Copying old internal coords+grads       .... done
Making the new internal coordinates     .... (new redundants).... done
Validating the new internal coordinates .... (new redundants).... done
Calculating the B-matrix                .... done
Calculating the G,G- and P matrices     .... done
Transforming gradient to internals      .... done
Projecting the internal gradient        .... done
Number of atoms                         ....  18
Number of internal coordinates          ....  88
Current Energy                          ....  -475.714746093 Eh
Current gradient norm                   ....     0.123608982 Eh/bohr
Maximum allowed component of the step   ....  0.300
Current trust radius                    ....  0.300
Evaluating the initial hessian          ....  (Almloef) done
Projecting the Hessian                  .... done
Forming the augmented Hessian           .... done
Diagonalizing the augmented Hessian     .... done
Last element of RFO vector              ....  0.876236695
Lowest eigenvalues of augmented Hessian:
 -0.020482418  0.008859476  0.011297105  0.012322569  0.015273853
Length of the computed step             ....  0.549943820
Warning: the length of the step is outside the trust region - taking restricted step instead
The input lambda is                     ....    -0.020482
   iter:   1  x=   -0.032768  g=   17.292128 f(x)=     0.212438
   iter:   2  x=   -0.044963  g=    6.563837 f(x)=     0.080050
   iter:   3  x=   -0.052308  g=    3.221518 f(x)=     0.023661
   iter:   4  x=   -0.053981  g=    2.266512 f(x)=     0.003791
   iter:   5  x=   -0.054046  g=    2.105316 f(x)=     0.000137
   iter:   6  x=   -0.054046  g=    2.099367 f(x)=     0.000000
   iter:   7  x=   -0.054046  g=    2.099359 f(x)=     0.000000
   iter:   8  x=   -0.054046  g=    2.099359 f(x)=    -0.000000
The output lambda is                    ....    -0.054046 (8 iterations)
The final length of the internal step   ....  0.300000000
Converting the step to cartesian space:
 Initial RMS(Int)=    0.0319801075
Transforming coordinates:
 Iter   0:  RMS(Cart)=    0.0342520188 RMS(Int)=    1.1589673711
 Iter   1:  RMS(Cart)=    0.0017207773 RMS(Int)=    0.0011067555
 Iter   2:  RMS(Cart)=    0.0000787033 RMS(Int)=    0.0000563401
 Iter   3:  RMS(Cart)=    0.0000089475 RMS(Int)=    0.0000059004
 Iter   4:  RMS(Cart)=    0.0000008722 RMS(Int)=    0.0000006293
 Iter   5:  RMS(Cart)=    0.0000000994 RMS(Int)=    0.0000000620
done
Storing new coordinates                 .... done

                                .--------------------.
          ----------------------|Geometry convergence|-------------------------
          Item                value                   Tolerance       Converged
          ---------------------------------------------------------------------
          RMS gradient        0.0079523651            0.0001000000      NO
          MAX gradient        0.0354792503            0.0003000000      NO
          RMS step            0.0319801075            0.0020000000      NO
          MAX step            0.1205936857            0.0040000000      NO
          ........................................................
          Max(Bonds)      0.0369      Max(Angles)    3.28
          Max(Dihed)        6.91      Max(Improp)    0.00
          ---------------------------------------------------------------------

The optimization has not yet converged - more geometry cycles are needed


    ---------------------------------------------------------------------------
                         Redundant Internal Coordinates
                            (Angstroem and degrees)

        Definition                    Value    dE/dq     Step     New-Value
    ----------------------------------------------------------------------------
     1. B(C   1,C   0)                1.5246  0.015292 -0.0201    1.5046   
     2. B(C   2,C   1)                1.5183  0.009682 -0.0121    1.5062   
     3. B(C   3,C   2)                1.3283 -0.029268  0.0189    1.3473   
     4. B(C   4,C   3)                1.4865  0.035479 -0.0369    1.4496   
     5. B(C   5,C   4)                1.3911 -0.008798  0.0073    1.3984   
     6. B(C   5,C   0)                1.3923  0.005705 -0.0050    1.3874   
     7. B(C   6,C   0)                1.5185  0.016712 -0.0199    1.4986   
     8. B(H   7,C   3)                1.0873 -0.003357  0.0043    1.0915   
     9. B(H   8,C   2)                1.0877 -0.005625  0.0071    1.0948   
    10. B(H   9,C   1)                1.0938 -0.006276  0.0081    1.1019   
    11. B(H  10,C   6)                1.0922 -0.009849  0.0127    1.1049   
    12. B(H  11,C   6)                1.0923 -0.006016  0.0077    1.1000   
    13. B(H  12,C   6)                1.0925 -0.004979  0.0064    1.0989   
    14. B(H  13,C   5)                1.0876 -0.003718  0.0047    1.0923   
    15. B(H  14,C   4)                1.0873 -0.005567  0.0071    1.0944   
    16. B(N  15,C   1)                1.5440 -0.004202  0.0060    1.5499   
    17. B(O  16,N  15)                1.2200  0.013159 -0.0070    1.2130   
    18. B(O  17,N  15)                1.2196  0.017718 -0.0095    1.2101   
    19. A(C   1,C   0,C   5)          121.45  0.006657   -1.23    120.22   
    20. A(C   5,C   0,C   6)          121.02 -0.003951    0.67    121.69   
    21. A(C   1,C   0,C   6)          117.52 -0.002724    0.57    118.08   
    22. A(C   2,C   1,H   9)          108.88  0.003447   -0.04    108.84   
    23. A(C   0,C   1,N  15)          115.60  0.016400   -3.28    112.32   
    24. A(H   9,C   1,N  15)          104.86 -0.002863    0.02    104.88   
    25. A(C   0,C   1,C   2)          113.29 -0.009937    1.70    114.99   
    26. A(C   2,C   1,N  15)          104.28 -0.006899    1.72    105.99   
    27. A(C   0,C   1,H   9)          109.42 -0.000085   -0.09    109.33   
    28. A(C   3,C   2,H   8)          119.71 -0.006299    0.85    120.56   
    29. A(C   1,C   2,H   8)          116.10 -0.002575    0.38    116.48   
    30. A(C   1,C   2,C   3)          124.19  0.008876   -1.23    122.96   
    31. A(C   2,C   3,C   4)          118.69  0.000987   -0.00    118.69   
    32. A(C   4,C   3,H   7)          120.32  0.002386   -0.40    119.92   
    33. A(C   2,C   3,H   7)          120.99 -0.003372    0.41    121.40   
    34. A(C   5,C   4,H  14)          120.04  0.001942   -0.30    119.74   
    35. A(C   3,C   4,H  14)          118.09  0.000944   -0.16    117.92   
    36. A(C   3,C   4,C   5)          121.87 -0.002887    0.46    122.33   
    37. A(C   0,C   5,C   4)          120.49 -0.003735    0.32    120.81   
    38. A(C   4,C   5,H  13)          119.52  0.000440    0.04    119.56   
    39. A(C   0,C   5,H  13)          119.99  0.003295   -0.36    119.63   
    40. A(C   0,C   6,H  10)          110.19  0.003347   -0.68    109.52   
    41. A(H  11,C   6,H  12)          108.14 -0.001646    0.63    108.77   
    42. A(H  10,C   6,H  12)          108.29  0.000504   -0.19    108.11   
    43. A(C   0,C   6,H  12)          110.95 -0.002673    0.52    111.48   
    44. A(H  10,C   6,H  11)          108.45  0.000581   -0.36    108.10   
    45. A(C   0,C   6,H  11)          110.72 -0.000123    0.07    110.79   
    46. A(O  16,N  15,O  17)          124.83 -0.021639    2.86    127.69   
    47. A(C   1,N  15,O  17)          117.06  0.007374   -0.23    116.82   
    48. A(C   1,N  15,O  16)          117.42  0.012533   -0.88    116.55   
    49. D(N  15,C   1,C   0,C   6)     59.93  0.005263   -1.67     58.26   
    50. D(C   2,C   1,C   0,C   5)      1.50  0.001625   -0.83      0.67   
    51. D(C   2,C   1,C   0,C   6)   -179.81  0.000668   -0.52   -180.34   
    52. D(N  15,C   1,C   0,C   5)   -118.76  0.006220   -1.98   -120.73   
    53. D(H   9,C   1,C   0,C   6)    -58.13 -0.001726    0.51    -57.61   
    54. D(H   9,C   1,C   0,C   5)    123.19 -0.000769    0.20    123.39   
    55. D(H   8,C   2,C   1,N  15)    -54.50  0.005889   -0.89    -55.39   
    56. D(C   3,C   2,C   1,C   0)     -1.17 -0.002750    0.77     -0.40   
    57. D(C   3,C   2,C   1,N  15)    125.33  0.006616   -1.04    124.29   
    58. D(H   8,C   2,C   1,H   9)     57.01  0.000824   -0.08     56.93   
    59. D(H   8,C   2,C   1,C   0)    179.00 -0.003478    0.91    179.91   
    60. D(C   3,C   2,C   1,H   9)   -123.16  0.001552   -0.23   -123.39   
    61. D(H   7,C   3,C   2,C   1)   -179.68  0.000647   -0.10   -179.78   
    62. D(C   4,C   3,C   2,H   8)   -179.91  0.003126   -0.61   -180.52   
    63. D(C   4,C   3,C   2,C   1)      0.26  0.002367   -0.46     -0.19   
    64. D(H   7,C   3,C   2,H   8)      0.14  0.001406   -0.25     -0.11   
    65. D(H  14,C   4,C   3,H   7)      0.27  0.000714   -0.13      0.14   
    66. D(H  14,C   4,C   3,C   2)   -179.68 -0.000991    0.22   -179.46   
    67. D(C   5,C   4,C   3,H   7)   -179.60  0.001190   -0.24   -179.84   
    68. D(C   5,C   4,C   3,C   2)      0.45 -0.000515    0.11      0.56   
    69. D(H  13,C   5,C   4,H  14)      0.07  0.000778   -0.34     -0.27   
    70. D(C   0,C   5,C   4,H  14)   -179.96 -0.000031   -0.31   -180.27   
    71. D(C   0,C   5,C   4,C   3)     -0.10 -0.000518   -0.19     -0.29   
    72. D(H  13,C   5,C   0,C   6)      0.39 -0.000054    0.32      0.71   
    73. D(H  13,C   5,C   0,C   1)    179.03 -0.001022    0.64    179.67   
    74. D(H  13,C   5,C   4,C   3)    179.93  0.000292   -0.23    179.71   
    75. D(C   4,C   5,C   0,C   6)   -179.58  0.000760    0.28   -179.29   
    76. D(C   4,C   5,C   0,C   1)     -0.94 -0.000208    0.60     -0.34   
    77. D(H  11,C   6,C   0,C   1)    143.42 -0.002069    0.73    144.16   
    78. D(H  10,C   6,C   0,C   5)     82.10 -0.000056    0.17     82.27   
    79. D(H  10,C   6,C   0,C   1)    -96.59  0.000750   -0.11    -96.70   
    80. D(H  12,C   6,C   0,C   5)   -157.97  0.001039   -0.17   -158.14   
    81. D(H  12,C   6,C   0,C   1)     23.34  0.001844   -0.45     22.89   
    82. D(H  11,C   6,C   0,C   5)    -37.89 -0.002874    1.01    -36.87   
    83. D(O  17,N  15,C   1,H   9)     -3.20  0.009440   -6.91    -10.11   
    84. D(O  17,N  15,C   1,C   2)    111.19  0.009313   -6.25    104.94   
    85. D(O  17,N  15,C   1,C   0)   -123.76  0.001896   -4.88   -128.64   
    86. D(O  16,N  15,C   1,H   9)    167.75 -0.003916    4.74    172.49   
    87. D(O  16,N  15,C   1,C   2)    -77.86 -0.004043    5.40    -72.46   
    88. D(O  16,N  15,C   1,C   0)     47.19 -0.011459    6.78     53.96   
    ----------------------------------------------------------------------------

         *************************************************************
         *                GEOMETRY OPTIMIZATION CYCLE   2            *
         *************************************************************
---------------------------------
CARTESIAN COORDINATES (ANGSTROEM)
---------------------------------
  C     -4.016899    2.284590   -0.813430
  C     -4.992150    1.490242   -1.638975
  C     -4.880533   -0.004669   -1.492865
  C     -3.973340   -0.597068   -0.692154
  C     -3.059349    0.238681    0.061282
  C     -3.094717    1.635042   -0.005675
  C     -4.062176    3.779232   -0.912278
  H     -3.912495   -1.683673   -0.608177
  H     -5.580145   -0.606382   -2.082025
  H     -6.019372    1.796732   -1.384025
  H     -3.299652    4.124783   -1.633395
  H     -3.845340    4.241629    0.062024
  H     -5.044093    4.129919   -1.259256
  H     -2.387400    2.220957    0.585500
  H     -2.321641   -0.255688    0.700882
  N     -4.854961    1.783587   -3.154709
  O     -3.745672    1.650814   -3.627174
  O     -5.873066    2.070500   -3.742498

----------------------------
CARTESIAN COORDINATES (A.U.)
----------------------------
  NO LB      ZA    FRAG     MASS         X           Y           Z
   0 C     6.0000    0    12.011   -7.590839    4.317250   -1.537160
   1 C     6.0000    0    12.011   -9.433797    2.816149   -3.097213
   2 C     6.0000    0    12.011   -9.222870   -0.008822   -2.821106
   3 C     6.0000    0    12.011   -7.508524   -1.128296   -1.307981
   4 C     6.0000    0    12.011   -5.781331    0.451041    0.115805
   5 C     6.0000    0    12.011   -5.848168    3.089782   -0.010725
   6 C     6.0000    0    12.011   -7.676400    7.141714   -1.723955
   7 H     1.0000    0     1.008   -7.393544   -3.181681   -1.149289
   8 H     1.0000    0     1.008  -10.544945   -1.145895   -3.934457
   9 H     1.0000    0     1.008  -11.374964    3.395331   -2.615428
  10 H     1.0000    0     1.008   -6.235439    7.794711   -3.086669
  11 H     1.0000    0     1.008   -7.266640    8.015518    0.117208
  12 H     1.0000    0     1.008   -9.531954    7.804416   -2.379650
  13 H     1.0000    0     1.008   -4.511532    4.197000    1.106435
  14 H     1.0000    0     1.008   -4.387266   -0.483181    1.324474
  15 N     7.0000    0    14.007   -9.174546    3.370492   -5.961537
  16 O     8.0000    0    15.999   -7.078295    3.119586   -6.854365
  17 O     8.0000    0    15.999  -11.098486    3.912679   -7.072296

--------------------------------
INTERNAL COORDINATES (ANGSTROEM)
--------------------------------
 C      0   0   0     0.000000000000     0.00000000     0.00000000
 C      1   0   0     1.504535457025     0.00000000     0.00000000
 C      2   1   0     1.506175441321   115.00868147     0.00000000
 C      3   2   1     1.347247297678   122.95485556   359.59680101
 C      4   3   2     1.449662375528   118.68161346   359.81812564
 C      1   2   3     1.387371663334   120.20796764     0.66454219
 C      1   2   3     1.498591479813   118.08628147   179.65200267
 H      4   3   2     1.091541879979   121.39810841   180.22198111
 H      3   2   1     1.094817428335   116.48298612   179.91108902
 H      2   1   3     1.101870782964   109.29776980   122.72741856
 H      7   1   2     1.104924394819   109.51848943   263.29786400
 H      7   1   2     1.100041934097   110.78491775   144.15638409
 H      7   1   2     1.098879307382   111.47619744    22.88810664
 H      6   1   2     1.092283050225   119.63042388   179.66299058
 H      5   4   3     1.094395596445   117.92510101   180.53885530
 N      2   1   3     1.549943384562   112.28998936   238.63024874
 O     16   2   1     1.213001177942   116.17613337    53.95675489
 O     16   2   1     1.210104595057   116.45007257   231.31808648

---------------------------
INTERNAL COORDINATES (A.U.)
---------------------------
 C      0   0   0     0.000000000000     0.00000000     0.00000000
 C      1   0   0     2.843159972551     0.00000000     0.00000000
 C      2   1   0     2.846259093734   115.00868147     0.00000000
 C      3   2   1     2.545928427277   122.95485556   359.59680101
 C      4   3   2     2.739464876397   118.68161346   359.81812564
 C      1   2   3     2.621752489664   120.20796764     0.66454219
 C      1   2   3     2.831927483474   118.08628147   179.65200267
 H      4   3   2     2.062715216865   121.39810841   180.22198111
 H      3   2   1     2.068905106198   116.48298612   179.91108902
 H      2   1   3     2.082234014772   109.29776980   122.72741856
 H      7   1   2     2.088004504896   109.51848943   263.29786400
 H      7   1   2     2.078777991272   110.78491775   144.15638409
 H      7   1   2     2.076580945185   111.47619744    22.88810664
 H      6   1   2     2.064115825649   119.63042388   179.66299058
 H      5   4   3     2.068107959451   117.92510101   180.53885530
 N      2   1   3     2.928968519905   112.28998936   238.63024874
 O     16   2   1     2.292240026435   116.17613337    53.95675489
 O     16   2   1     2.286766278058   116.45007257   231.31808648


Diagonalization of the overlap matrix:
Smallest eigenvalue                        ... 3.344e-04
Time for diagonalization                   ...    0.010 sec
Threshold for overlap eigenvalues          ... 1.000e-08
Number of eigenvalues below threshold      ... 0
Time for construction of square roots      ...    0.005 sec
Total time needed                          ...    0.016 sec

-------------------
DFT GRID GENERATION
-------------------

General Integration Accuracy     IntAcc      ...  4.340
Radial Grid Type                 RadialGrid  ... Gauss-Chebyshev
Angular Grid (max. acc.)         AngularGrid ... Lebedev-110
Angular grid pruning method      GridPruning ... 3 (G Style)
Weight generation scheme         WeightScheme... Becke
Basis function cutoff            BFCut       ...    1.0000e-11
Integration weight cutoff        WCut        ...    1.0000e-14
Grids for H and He will be reduced by one unit

# of grid points (after initial pruning)     ...  23078 (   0.1 sec)
# of grid points (after weights+screening)   ...  21209 (   0.2 sec)
nearest neighbour list constructed           ...    0.0 sec
Grid point re-assignment to atoms done       ...    0.0 sec
Grid point division into batches done        ...    0.0 sec
Reduced shell lists constructed in    0.4 sec

Total number of grid points                  ...    21209
Total number of batches                      ...      341
Average number of points per batch           ...       62
Average number of grid points per atom       ...     1178
Average number of shells per batch           ...    58.63 (69.80%)
Average number of basis functions per batch  ...   123.55 (68.64%)
Average number of large shells per batch     ...    45.13 (76.96%)
Average number of large basis fcns per batch ...    92.87 (75.17%)
Maximum spatial batch extension              ...  20.61, 23.00, 20.18 au
Average spatial batch extension              ...   3.62,  3.69,  3.81 au

Time for grid setup =    0.694 sec

--------------
SCF ITERATIONS
--------------
ITER       Energy         Delta-E        Max-DP      RMS-DP      [F,P]     Damp
               ***  Starting incremental Fock matrix formation  ***
  0   -475.7144854429   0.000000000000 0.01308843  0.00042460  0.0404142 0.7000
  1   -475.7171803015  -0.002694858593 0.01104425  0.00038814  0.0313140 0.7000
                               ***Turning on DIIS***
  2   -475.7192749721  -0.002094670607 0.02810248  0.00099226  0.0232366 0.0000
                      *** Initiating the SOSCF procedure ***
                           *** Shutting down DIIS ***
                      *** Re-Reading the Fockian *** 
                      *** Removing any level shift *** 
ITER      Energy       Delta-E        Grad      Rot      Max-DP    RMS-DP
  3   -475.72454055  -0.0052655769  0.001725  0.001725  0.003136  0.000114
               *** Restarting incremental Fock matrix formation ***
  4   -475.72461829  -0.0000777371  0.000965  0.006048  0.003280  0.000108
  5   -475.72460681   0.0000114798  0.001481  0.003521  0.002175  0.000066
  6   -475.72464970  -0.0000428971  0.000491  0.001673  0.001732  0.000037
[...]
      5      -0.002706   0.019275  -0.041339   0.009226  -0.021159  -0.001782
      6       0.115255   0.019417   0.190199   0.001345   0.001101  -0.000437
      7      -0.094978  -0.095195  -0.214286  -0.019215  -0.001562   0.000168
      8       0.132586   0.022020   0.216351  -0.009340  -0.000215  -0.000470
      9      -0.169328   0.068224  -0.237858   0.006644  -0.000803   0.000409
     10       0.022340   0.141281   0.125682   0.011885  -0.000139  -0.000019
     11      -0.176103   0.059255  -0.254955   0.007020  -0.001260   0.000526
     12       0.038103  -0.132865   0.055540  -0.003305   0.000136  -0.000246
     13       0.142003  -0.292423  -0.132095  -0.018213   0.000253  -0.001328
     14       0.026433  -0.112989   0.066224  -0.002335   0.000466  -0.000066
     15       0.095260   0.108689  -0.118551  -0.007748   0.000044  -0.000792
     16      -0.254645   0.069576   0.228823   0.030611   0.000488   0.002306
     17       0.121623   0.107283  -0.138653  -0.013209  -0.000405  -0.000652
     18       0.013315   0.013115  -0.010154  -0.003783   0.000460  -0.025078
     19      -0.084191  -0.017001   0.030994   0.002943   0.004125  -0.040688
     20      -0.024247   0.017473  -0.009420  -0.009994  -0.003172   0.034286
     21       0.149025  -0.038693   0.260635  -0.020436   0.001099   0.000410
     22       0.076413   0.155731   0.225901   0.011697   0.001961   0.000045
     23       0.158945  -0.048133   0.260990  -0.009208  -0.000727  -0.000130
     24       0.051947  -0.099328  -0.008482  -0.048225   0.003960   0.002135
     25       0.163182   0.187710   0.379136   0.060089   0.003643   0.001059
     26       0.016332  -0.108143  -0.038263  -0.050712   0.009395   0.002042
     27       0.005276   0.016717  -0.001464  -0.039551  -0.914197  -0.091738
     28       0.017809   0.051052   0.019002  -0.005027   0.275775   0.028371
     29      -0.001264   0.013378   0.023340  -0.133474   0.264768   0.028380
     30       0.170838   0.075114  -0.059188   0.037109  -0.051254   0.500481
     31      -0.028098  -0.039484   0.028411   0.059666  -0.021913   0.215484
     32       0.094290   0.059368  -0.036482   0.055627   0.063007  -0.660450
     33      -0.285188   0.033685   0.020081   0.027373  -0.011773   0.128828
     34       0.334438   0.121132  -0.105409   0.031902  -0.013332   0.143631
     35      -0.089816  -0.062388   0.045107  -0.034821  -0.028988   0.300754
     36      -0.006631  -0.047753   0.028677  -0.003797   0.051658  -0.325222
     37       0.120942  -0.150789   0.090245   0.009112  -0.021258   0.126685
     38       0.434958   0.049473  -0.077250   0.032157   0.008721  -0.061479
     39      -0.145999   0.062034   0.094815   0.016989   0.000584  -0.002259
     40       0.377178   0.266084  -0.328428  -0.038654  -0.000935  -0.003379
     41      -0.176116   0.037598   0.118509   0.018650  -0.001215  -0.002769
     42       0.003182   0.241751   0.177015   0.008235  -0.001492  -0.000703
     43       0.061668   0.682406   0.088244   0.013646   0.001147   0.000412
     44      -0.005949   0.192004   0.153284   0.009879  -0.001517  -0.001954
     45      -0.015801   0.006239   0.004435  -0.573430   0.000451  -0.000469
     46      -0.002917   0.003049   0.025007  -0.573037   0.000648  -0.000251
     47      -0.031819   0.004507  -0.036486  -0.073985  -0.001280  -0.000479
     48      -0.005388  -0.000892  -0.017122   0.234955  -0.000211   0.000250
     49      -0.008430  -0.000395  -0.022741   0.282168  -0.000478   0.000292
     50       0.007196   0.000891   0.014869  -0.118968   0.000186   0.000632
     51       0.020162  -0.004238   0.007819   0.250725  -0.000038   0.000131
     52       0.015715  -0.002163   0.005627   0.201339   0.000035   0.000060
     53       0.019891  -0.004664   0.007946   0.184156   0.000361   0.000139
                 48         49         50         51         52         53    
      0       0.000304   0.000331   0.000840   0.001458   0.001453  -0.000069
      1       0.002339  -0.000581  -0.000408  -0.001815  -0.000688  -0.000525
      2      -0.000741   0.000488   0.000855   0.001858   0.001423   0.000100
      3       0.001116   0.000756  -0.000270   0.000603  -0.000189   0.000687
      4      -0.000173  -0.000570   0.000270  -0.000411   0.001076  -0.001434
      5      -0.000315  -0.000081   0.000035   0.000065   0.000530  -0.000032
      6       0.000183  -0.000095  -0.004333   0.021391  -0.037416   0.031018
      7      -0.000016  -0.000068  -0.004564   0.019715  -0.033078   0.021940
      8       0.000177  -0.000055  -0.004442   0.021981  -0.038535   0.032316
      9      -0.000144  -0.000040  -0.002429   0.000547   0.002162  -0.004232
     10      -0.000046  -0.000057   0.016240  -0.032792   0.031800   0.074398
     11      -0.000211  -0.000001  -0.003419   0.002323   0.000398  -0.009392
     12       0.000036   0.000264   0.049716  -0.008910  -0.018498  -0.010093
     13       0.000480  -0.000119  -0.035433   0.010965   0.014032   0.004438
     14      -0.000007   0.000154   0.051702  -0.009551  -0.019267  -0.010260
     15       0.000755  -0.001028  -0.019271  -0.043239  -0.025942  -0.004198
     16      -0.000014  -0.000910  -0.012410  -0.037413  -0.023238  -0.004667
     17       0.000299  -0.001684  -0.019043  -0.042158  -0.025277  -0.004050
     18       0.061778   0.063389  -0.000389  -0.000953  -0.000329  -0.000102
     19      -0.031364   0.008398  -0.000232  -0.000506  -0.000244  -0.000102
     20      -0.048854   0.070362  -0.001097  -0.001131  -0.000770   0.000074
     21      -0.000013  -0.000104   0.007310  -0.010588   0.008282   0.023707
     22       0.001067   0.000620  -0.196913   0.382163  -0.363519  -0.817434
     23      -0.000193  -0.000109   0.019552  -0.034349   0.030682   0.074622
     24      -0.001303   0.000125   0.052939  -0.248006   0.426877  -0.317850
     25      -0.001309   0.000117   0.047928  -0.222499   0.382429  -0.281614
     26      -0.001484   0.000697   0.054347  -0.254713   0.439297  -0.327413
     27      -0.014908  -0.013021   0.002363  -0.004113   0.004157  -0.006272
     28       0.004704   0.003737  -0.001117   0.002088  -0.002609   0.002853
     29       0.003206   0.003177  -0.000457   0.000442  -0.000601   0.000784
     30      -0.271326   0.068560  -0.002444   0.000340  -0.001394   0.001051
     31      -0.130884   0.024110  -0.000812   0.001055  -0.000163   0.000616
     32       0.369215  -0.057375   0.002695  -0.001613   0.001249  -0.001483
     33       0.189073  -0.300775   0.004184   0.006102   0.003381   0.000379
     34       0.195750  -0.334491   0.005350   0.008163   0.004914   0.000262
     35       0.388208  -0.669805   0.009462   0.013061   0.007631   0.000411
     36      -0.660494  -0.520442   0.003077   0.005282   0.001684  -0.000181
     37       0.279094   0.217495  -0.000884  -0.001256   0.000078   0.000079
     38      -0.162832  -0.111994   0.000835   0.001271   0.000575  -0.000196
     39      -0.003107   0.011749   0.211991   0.488006   0.291650   0.047090
     40      -0.003449   0.012791   0.177776   0.416073   0.249740   0.040619
     41      -0.003505   0.012811   0.206924   0.475071   0.284101   0.045679
     42       0.000954  -0.003202  -0.564076   0.108539   0.205258   0.096195
     43      -0.001209   0.002291   0.404233  -0.082732  -0.147581  -0.066292
     44       0.002299  -0.002987  -0.586506   0.114425   0.213173   0.100336
     45       0.000051  -0.000193   0.000012   0.000143  -0.000286   0.000167
     46       0.000020  -0.000225  -0.000100   0.000298  -0.000523   0.000355
     47       0.000123   0.000004   0.000055   0.000271  -0.000377   0.000143
     48      -0.000163   0.000039   0.000009   0.000013   0.000021  -0.000021
     49      -0.000049   0.000201   0.000026  -0.000002   0.000050  -0.000040
     50      -0.000281   0.000032  -0.000011  -0.000066   0.000082  -0.000018
     51       0.000004   0.000102   0.000000  -0.000061   0.000139  -0.000072
     52      -0.000011   0.000042   0.000049  -0.000229   0.000403  -0.000255
     53      -0.000033   0.000042  -0.000029   0.000051  -0.000068   0.000077


-----------
IR SPECTRUM
-----------

 Mode    freq (cm**-1)   T**2         TX         TY         TZ
-------------------------------------------------------------------
   6:        41.17    0.032985  (  0.091346  -0.032828  -0.153503)
   7:        74.66    6.110861  ( -1.350607   1.126092  -1.737423)
   8:       135.25    1.784132  ( -1.238566  -0.002082  -0.500081)
   9:       201.25    3.582154  ( -0.169462  -1.403430   1.258500)
  10:       241.71    3.098182  (  0.592328   1.478512   0.749220)
  11:       302.41   13.712580  (  0.156498  -0.691750   3.634497)
  12:       336.63    3.783854  (  0.001123   0.454936  -1.891265)
  13:       410.54   15.159129  ( -1.317764   2.218705  -2.915472)
  14:       435.77    5.465175  (  1.240274   0.509743  -1.914956)
  15:       496.72    0.293559  (  0.473471  -0.102901  -0.242478)
  16:       520.05    7.993800  (  0.788680   1.987768   1.849475)
  17:       608.72    4.881842  ( -1.114007  -1.008150   1.620019)
  18:       649.93   28.117870  (  1.355364   0.296874  -5.117883)
  19:       709.57   33.779278  (  3.195831  -1.005737  -4.749151)
  20:       780.07   15.682342  ( -2.061530   1.122467  -3.189436)
  21:       825.52  159.897291  (  4.964600  -2.245503  11.410861)
  22:       835.97   85.098492  (  0.786765   2.164266  -8.932830)
  23:       877.20    2.580397  (  0.157493   1.547395   0.401448)
  24:       917.80   21.077196  ( -1.841653   0.913144  -4.105080)
  25:       994.63    8.916143  (  0.437291  -1.800771   2.341398)
  26:      1002.20   14.713941  ( -2.252636  -3.104173   0.060683)
  27:      1024.91    5.163663  ( -1.701806  -0.271931  -1.481071)
  28:      1049.46    0.539935  ( -0.036536  -0.418649  -0.602772)
  29:      1063.87    6.281997  (  0.777452  -1.811001   1.548496)
  30:      1071.20    8.906909  ( -0.981377  -1.809209   2.161151)
  31:      1100.60   80.111638  (  1.255143  -2.295685   8.559561)
  32:      1160.21    4.818540  ( -0.947162  -1.980127   0.022855)
  33:      1187.20   15.444080  ( -1.792621  -2.991615  -1.811307)
  34:      1208.66   12.602002  ( -0.165879   3.442697  -0.849897)
  35:      1297.78   13.820098  ( -0.245762   3.629502   0.765775)
  36:      1354.52   68.071807  ( -0.784848  -7.354581   3.655948)
  37:      1377.02   69.485361  (  4.233975   0.721516   7.144105)
  38:      1398.10   88.805967  ( -0.136993   1.421133  -9.314912)
  39:      1411.62    1.679968  (  1.116764  -0.554765   0.353612)
  40:      1444.60   93.675555  (  5.747109   0.344139   7.779966)
  41:      1457.17   71.137759  ( -0.275097   5.775320  -6.140665)
  42:      1514.16  273.827172  (  2.602317  16.193619   2.195868)
  43:      1555.57    5.679590  ( -1.381339   0.669705  -1.822906)
  44:      1654.96  104.420588  (  6.544139  -4.934010   6.103309)
  45:      1786.71  264.766472  (-11.228510 -11.596047  -2.053952)
  46:      2977.62   48.050245  ( -6.758474   0.367307   1.496115)
  47:      3015.37   55.931555  (  1.190998   6.987292  -2.385545)
  48:      3098.26    9.134445  ( -1.485895  -1.957440   1.759258)
  49:      3155.87    1.081032  ( -0.092131   0.933486  -0.448496)
  50:      3189.67    1.288490  ( -0.369975   0.927074  -0.540502)
  51:      3203.72    0.003409  (  0.017887   0.015022  -0.053510)
  52:      3205.19   22.096933  (  3.220745   0.686762   3.354414)
  53:      3216.83   15.126634  ( -0.879421  -3.723376  -0.699804)

The first frequency considered to be a vibration is 6
The total number of vibrations considered is 48


--------------------------
THERMOCHEMISTRY AT 298.15K
--------------------------

Temperature         ... 298.15 K
Pressure            ... 1.00 atm
Total Mass          ... 138.15 AMU

Throughout the following assumptions are being made:
  (1) The electronic state is orbitally nondegenerate
  (2) There are no thermally accessible electronically excited states
  (3) Hindered rotations indicated by low frequency modes are not
      treated as such but are treated as vibrations and this may
      cause some error
  (4) All equations used are the standard statistical mechanics
      equations for an ideal gas
  (5) All vibrations are strictly harmonic

freq.      41.17  E(vib)   ...       0.54 
freq.      74.66  E(vib)   ...       0.49 
freq.     135.25  E(vib)   ...       0.42 
freq.     201.25  E(vib)   ...       0.35 
freq.     241.71  E(vib)   ...       0.31 
freq.     302.41  E(vib)   ...       0.26 
freq.     336.63  E(vib)   ...       0.24 
freq.     410.54  E(vib)   ...       0.19 
freq.     435.77  E(vib)   ...       0.17 
freq.     496.72  E(vib)   ...       0.14 
freq.     520.05  E(vib)   ...       0.13 
freq.     608.72  E(vib)   ...       0.10 
freq.     649.93  E(vib)   ...       0.08 
freq.     709.57  E(vib)   ...       0.07 
freq.     780.07  E(vib)   ...       0.05 
freq.     825.52  E(vib)   ...       0.04 
freq.     835.97  E(vib)   ...       0.04 
freq.     877.20  E(vib)   ...       0.04 
freq.     917.80  E(vib)   ...       0.03 
freq.     994.63  E(vib)   ...       0.02 
freq.    1002.20  E(vib)   ...       0.02 
freq.    1024.91  E(vib)   ...       0.02 
freq.    1049.46  E(vib)   ...       0.02 
freq.    1063.87  E(vib)   ...       0.02 
freq.    1071.20  E(vib)   ...       0.02 
freq.    1100.60  E(vib)   ...       0.02 
freq.    1160.21  E(vib)   ...       0.01 
freq.    1187.20  E(vib)   ...       0.01 
freq.    1208.66  E(vib)   ...       0.01 
freq.    1297.78  E(vib)   ...       0.01 
freq.    1354.52  E(vib)   ...       0.01 
freq.    1377.02  E(vib)   ...       0.01 
freq.    1398.10  E(vib)   ...       0.00 
freq.    1411.62  E(vib)   ...       0.00 
freq.    1444.60  E(vib)   ...       0.00 
freq.    1457.17  E(vib)   ...       0.00 
freq.    1514.16  E(vib)   ...       0.00 
freq.    1555.57  E(vib)   ...       0.00 
freq.    1654.96  E(vib)   ...       0.00 
freq.    1786.71  E(vib)   ...       0.00 
freq.    2977.62  E(vib)   ...       0.00 
freq.    3015.37  E(vib)   ...       0.00 
freq.    3098.26  E(vib)   ...       0.00 
freq.    3155.87  E(vib)   ...       0.00 
freq.    3189.67  E(vib)   ...       0.00 
freq.    3203.72  E(vib)   ...       0.00 
freq.    3205.19  E(vib)   ...       0.00 
freq.    3216.83  E(vib)   ...       0.00 

------------
INNER ENERGY
------------

The inner energy is: U= E(el) + E(ZPE) + E(vib) + E(rot) + E(trans)
    E(el)   - is the total energy from the electronic structure calculation
              = E(kin-el) + E(nuc-el) + E(el-el) + E(nuc-nuc)
    E(ZPE)  - the the zero temperature vibrational energy from the frequency calculation
    E(vib)  - the the finite temperature correction to E(ZPE) due to population
              of excited vibrational states
    E(rot)  - is the rotational thermal energy
    E(trans)- is the translational thermal energy

Summary of contributions to the inner energy U:
Electronic energy                ...   -475.73125463 Eh
Zero point energy                ...      0.14028641 Eh      88.03 kcal/mol
Thermal vibrational correction   ...      0.00624245 Eh       3.92 kcal/mol
Thermal rotational correction    ...      0.00141627 Eh       0.89 kcal/mol
Thermal translational correction ...      0.00141627 Eh       0.89 kcal/mol
-----------------------------------------------------------------------
Total thermal energy                   -475.58189323 Eh


Summary of corrections to the electronic energy:
(perhaps to be used in another calculation)
Total thermal correction                  0.00907499 Eh       5.69 kcal/mol
Non-thermal (ZPE) correction              0.14028641 Eh      88.03 kcal/mol
-----------------------------------------------------------------------
Total correction                          0.14936140 Eh      93.73 kcal/mol


--------
ENTHALPY
--------

The enthalpy is H = U + kB*T
                kB is Boltzmann's constant
Total free energy                 ...   -475.58189323 Eh 
Thermal Enthalpy correction       ...      0.00094421 Eh       0.59 kcal/mol
-----------------------------------------------------------------------
Total Enthalpy                    ...   -475.58094902 Eh


Note: Only C1 symmetry has been detected, increase convergence thresholds 
      if your molecule has a higher symmetry. Symmetry factor of 1.0 is   
      used for the rotational entropy correction. 
 

Note: Rotational entropy computed according to Herzberg 
Infrared and Raman Spectra, Chapter V,1, Van Nostrand Reinhold, 1945 
Point Group:  C1, Symmetry Number:   1  
Rotational constants in cm-1:     0.068595     0.041974     0.028102 

Vibrational entropy computed according to the QRRHO of S. Grimme
Chem.Eur.J. 2012 18 9955


-------
ENTROPY
-------

The entropy contributions are T*S = T*(S(el)+S(vib)+S(rot)+S(trans))
     S(el)   - electronic entropy
     S(vib)  - vibrational entropy
     S(rot)  - rotational entropy
     S(trans)- translational entropy
The entropies will be listed as mutliplied by the temperature to get
units of energy

Electronic entropy                ...      0.00000000 Eh      0.00 kcal/mol
Vibrational entropy               ...      0.01062497 Eh      6.67 kcal/mol
Rotational entropy                ...      0.01395892 Eh      8.76 kcal/mol
Translational entropy             ...      0.01932890 Eh     12.13 kcal/mol
-----------------------------------------------------------------------
Final entropy term                ...      0.04391279 Eh     27.56 kcal/mol

In case the symmetry of your molecule has not been determined correctly
or in case you have a reason to use a different symmetry number we print 
out the resulting rotational entropy values for sn=1,12 :
 --------------------------------------------------------
|  sn= 1 | S(rot)=       0.01395892 Eh      8.76 kcal/mol|
|  sn= 2 | S(rot)=       0.01330447 Eh      8.35 kcal/mol|
|  sn= 3 | S(rot)=       0.01292164 Eh      8.11 kcal/mol|
|  sn= 4 | S(rot)=       0.01265001 Eh      7.94 kcal/mol|
|  sn= 5 | S(rot)=       0.01243932 Eh      7.81 kcal/mol|
|  sn= 6 | S(rot)=       0.01226718 Eh      7.70 kcal/mol|
|  sn= 7 | S(rot)=       0.01212163 Eh      7.61 kcal/mol|
|  sn= 8 | S(rot)=       0.01199556 Eh      7.53 kcal/mol|
|  sn= 9 | S(rot)=       0.01188435 Eh      7.46 kcal/mol|
|  sn=10 | S(rot)=       0.01178487 Eh      7.40 kcal/mol|
|  sn=11 | S(rot)=       0.01169488 Eh      7.34 kcal/mol|
|  sn=12 | S(rot)=       0.01161272 Eh      7.29 kcal/mol|
 --------------------------------------------------------


-------------------
GIBBS FREE ENERGY
-------------------

The Gibbs free energy is G = H - T*S

Total enthalpy                    ...   -475.58094902 Eh 
Total entropy correction          ...     -0.04391279 Eh    -27.56 kcal/mol
-----------------------------------------------------------------------
Final Gibbs free energy         ...   -475.62486182 Eh

For completeness - the Gibbs free energy minus the electronic energy
G-E(el)                           ...      0.10639281 Eh     66.76 kcal/mol


Timings for individual modules:

Sum of individual times         ...     8664.879 sec (= 144.415 min)
GTO integral calculation        ...       10.271 sec (=   0.171 min)   0.1 %
SCF iterations                  ...     2325.038 sec (=  38.751 min)  26.8 %
SCF Gradient evaluation         ...      907.512 sec (=  15.125 min)  10.5 %
Geometry relaxation             ...        4.412 sec (=   0.074 min)   0.1 %
Analytical frequency calculation...     5417.646 sec (=  90.294 min)  62.5 %
                             ****ORCA TERMINATED NORMALLY****
TOTAL RUN TIME: 0 days 2 hours 24 minutes 29 seconds 685 msec
