
                                 *****************
                                 * O   R   C   A *
                                 *****************

                                            #,                                       
                                            ###                                      
                                            ####                                     
                                            #####                                    
                                            ######                                   
                                           ########,                                 
                                     ,,################,,,,,                         
                               ,,#################################,,                 
                          ,,##########################################,,             
                       ,#########################################, ''#####,          
                    ,#############################################,,   '####,        
                  ,##################################################,,,,####,       
                ,###########''''           ''''###############################       
              ,#####''   ,,,,##########,,,,          '''####'''          '####       
            ,##' ,,,,###########################,,,                        '##       
           ' ,,###''''                  '''############,,,                           
         ,,##''                                '''############,,,,        ,,,,,,###''
      ,#''                                            '''#######################'''  
     '                                                          ''''####''''         
             ,#######,   #######,   ,#######,      ##                                
            ,#'     '#,  ##    ##  ,#'     '#,    #''#        ######   ,####,        
            ##       ##  ##   ,#'  ##            #'  '#       #        #'  '#        
            ##       ##  #######   ##           ,######,      #####,   #    #        
            '#,     ,#'  ##    ##  '#,     ,#' ,#      #,         ##   #,  ,#        
             '#######'   ##     ##  '#######'  #'      '#     #####' # '####'        



                  #######################################################
                  #                        -***-                        #
                  #          Department of theory and spectroscopy      #
                  #    Directorship and core code : Frank Neese         #
                  #        Max Planck Institute fuer Kohlenforschung    #
                  #                Kaiser Wilhelm Platz 1               #
                  #                 D-45470 Muelheim/Ruhr               #
                  #                      Germany                        #
                  #                                                     #
                  #                  All rights reserved                #
                  #                        -***-                        #
                  #######################################################



                         Program Version 5.0.4 -  RELEASE  -

 With contributions from (in alphabetic order):
   Daniel Aravena         : Magnetic Suceptibility
   Michael Atanasov       : Ab Initio Ligand Field Theory (pilot matlab implementation)
   Alexander A. Auer      : GIAO ZORA, VPT2 properties, NMR spectrum
   Ute Becker             : Parallelization
   Giovanni Bistoni       : ED, misc. LED, open-shell LED, HFLD
   Martin Brehm           : Molecular dynamics
   Dmytro Bykov           : SCF Hessian
   Vijay G. Chilkuri      : MRCI spin determinant printing, contributions to CSF-ICE
   Dipayan Datta          : RHF DLPNO-CCSD density
   Achintya Kumar Dutta   : EOM-CC, STEOM-CC
   Dmitry Ganyushin       : Spin-Orbit,Spin-Spin,Magnetic field MRCI
   Miquel Garcia          : C-PCM and meta-GGA Hessian, CC/C-PCM, Gaussian charge scheme
   Yang Guo               : DLPNO-NEVPT2, F12-NEVPT2, CIM, IAO-localization
   Andreas Hansen         : Spin unrestricted coupled pair/coupled cluster methods
   Benjamin Helmich-Paris : MC-RPA, TRAH-SCF, COSX integrals
   Lee Huntington         : MR-EOM, pCC
   Robert Izsak           : Overlap fitted RIJCOSX, COSX-SCS-MP3, EOM
   Marcus Kettner         : VPT2
   Christian Kollmar      : KDIIS, OOCD, Brueckner-CCSD(T), CCSD density, CASPT2, CASPT2-K
   Simone Kossmann        : Meta GGA functionals, TD-DFT gradient, OOMP2, MP2 Hessian
   Martin Krupicka        : Initial AUTO-CI
   Lucas Lang             : DCDCAS
   Marvin Lechner         : AUTO-CI (C++ implementation), FIC-MRCC
   Dagmar Lenk            : GEPOL surface, SMD
   Dimitrios Liakos       : Extrapolation schemes; Compound Job, initial MDCI parallelization
   Dimitrios Manganas     : Further ROCIS development; embedding schemes
   Dimitrios Pantazis     : SARC Basis sets
   Anastasios Papadopoulos: AUTO-CI, single reference methods and gradients
   Taras Petrenko         : DFT Hessian,TD-DFT gradient, ASA, ECA, R-Raman, ABS, FL, XAS/XES, NRVS
   Peter Pinski           : DLPNO-MP2, DLPNO-MP2 Gradient
   Christoph Reimann      : Effective Core Potentials
   Marius Retegan         : Local ZFS, SOC
   Christoph Riplinger    : Optimizer, TS searches, QM/MM, DLPNO-CCSD(T), (RO)-DLPNO pert. Triples
   Tobias Risthaus        : Range-separated hybrids, TD-DFT gradient, RPA, STAB
   Michael Roemelt        : Original ROCIS implementation
   Masaaki Saitow         : Open-shell DLPNO-CCSD energy and density
   Barbara Sandhoefer     : DKH picture change effects
   Avijit Sen             : IP-ROCIS
   Kantharuban Sivalingam : CASSCF convergence, NEVPT2, FIC-MRCI
   Bernardo de Souza      : ESD, SOC TD-DFT
   Georgi Stoychev        : AutoAux, RI-MP2 NMR, DLPNO-MP2 response
   Willem Van den Heuvel  : Paramagnetic NMR
   Boris Wezisla          : Elementary symmetry handling
   Frank Wennmohs         : Technical directorship


 We gratefully acknowledge several colleagues who have allowed us to
 interface, adapt or use parts of their codes:
   Stefan Grimme, W. Hujo, H. Kruse, P. Pracht,  : VdW corrections, initial TS optimization,
                  C. Bannwarth, S. Ehlert          DFT functionals, gCP, sTDA/sTD-DF
   Ed Valeev, F. Pavosevic, A. Kumar             : LibInt (2-el integral package), F12 methods
   Garnet Chan, S. Sharma, J. Yang, R. Olivares  : DMRG
   Ulf Ekstrom                                   : XCFun DFT Library
   Mihaly Kallay                                 : mrcc  (arbitrary order and MRCC methods)
   Jiri Pittner, Ondrej Demel                    : Mk-CCSD
   Frank Weinhold                                : gennbo (NPA and NBO analysis)
   Christopher J. Cramer and Donald G. Truhlar   : smd solvation model
   Lars Goerigk                                  : TD-DFT with DH, B97 family of functionals
   V. Asgeirsson, H. Jonsson                     : NEB implementation
   FAccTs GmbH                                   : IRC, NEB, NEB-TS, DLPNO-Multilevel, CI-OPT
                                                   MM, QMMM, 2- and 3-layer-ONIOM, Crystal-QMMM,
                                                   LR-CPCM, SF, NACMEs, symmetry and pop. for TD-DFT,
                                                   nearIR, NL-DFT gradient (VV10), updates on ESD,
                                                   ML-optimized integration grids
   S Lehtola, MJT Oliveira, MAL Marques          : LibXC Library
   Liviu Ungur et al                             : ANISO software


 Your calculation uses the libint2 library for the computation of 2-el integrals
 For citations please refer to: http://libint.valeyev.net

 Your ORCA version has been built with support for libXC version: 5.1.0
 For citations please refer to: https://tddft.org/programs/libxc/

 This ORCA versions uses:
   CBLAS   interface :  Fast vector & matrix operations
   LAPACKE interface :  Fast linear algebra routines
   Shared memory     :  Shared parallel matrices


Your calculation utilizes the atom-pairwise dispersion correction
based on tight binding partial charges (D4)
Cite in your paper:
E.Caldeweyher, C.Bannwarth, S.Grimme, J.Chem.Phys., (2017), 147, 034112.
E.Caldeweyher, S.Ehlert, A.Hansen, H.Neugebauer, S.Grimme, J.Chem.Phys., (2018), in progress.
   

================================================================================

----- Orbital basis set information -----
Your calculation utilizes the basis: def2-QZVPP
   F. Weigend and R. Ahlrichs, Phys. Chem. Chem. Phys. 7, 3297 (2005).

----- AuxJ basis set information -----
Your calculation utilizes the auxiliary basis: def2/J
   F. Weigend, Phys. Chem. Chem. Phys. 8, 1057 (2006).

================================================================================
                                        WARNINGS
                       Please study these warnings very carefully!
================================================================================

WARNING: Old DensityContainer found on disk!
         Will remove this file - 
         If you want to keep old densities, please start your calculation with a different basename. 


INFO   : the flag for use of the SHARK integral package has been found!

================================================================================
                                       INPUT FILE
================================================================================
NAME = neutral.inp
|  1> !B3LYP DEF2-QZVPP D4 KEEPDENS SOSCF
|  2> 
|  3> %scf
|  4> convergence verytight
|  5> end
|  6> 
|  7> * xyz 0 1
|  8>   C   -3.86516734357010      0.94434157945665     -0.07538725943809
|  9>   C   -4.92272831379506      0.26873722983356     -0.70264597592121
| 10>   C   -5.03057771819703     -1.11798142899817     -0.59784356576840
| 11>   C   -4.08352665954933     -1.84223577131705      0.13553018590779
| 12>   C   -3.02981102252337     -1.17199643200787      0.76088165488684
| 13>   C   -2.91953321612422      0.21863970639081      0.65722704147654
| 14>   C   -3.81073419980518      2.46478525764726     -0.19518116082199
| 15>   H   -5.65406019384117      0.84349861132032     -1.27491300280147
| 16>   H   -5.85623938274783     -1.63850776567522     -1.09027562821825
| 17>   H   -4.16802260279406     -2.92913883238131      0.21698779894580
| 18>   H   -2.28611135457989     -1.73328106107773      1.33282673748350
| 19>   H   -2.09792478362700      0.74948053847094      1.13911505725274
| 20>   O   -4.89378187167171      3.07132909731433      0.44720048381772
| 21>   H   -4.93072682950342      2.71104471332091      1.34348100678890
| 22>   O   -2.59608443456263      2.90295951283218      0.34520695932434
| 23>   H   -2.62116462808870      3.87067963083761      0.29505823914507
| 24>   O   -3.95270938377184      2.89080295116375     -1.51804130322301
| 25>   H   -3.24608606124737      2.46925246286899     -2.02593726883681
| 26> **                         ****END OF INPUT****
================================================================================

                       ****************************
                       * Single Point Calculation *
                       ****************************

---------------------------------
CARTESIAN COORDINATES (ANGSTROEM)
---------------------------------
  C     -3.865167    0.944342   -0.075387
  C     -4.922728    0.268737   -0.702646
  C     -5.030578   -1.117981   -0.597844
  C     -4.083527   -1.842236    0.135530
  C     -3.029811   -1.171996    0.760882
  C     -2.919533    0.218640    0.657227
  C     -3.810734    2.464785   -0.195181
  H     -5.654060    0.843499   -1.274913
  H     -5.856239   -1.638508   -1.090276
  H     -4.168023   -2.929139    0.216988
  H     -2.286111   -1.733281    1.332827
  H     -2.097925    0.749481    1.139115
  O     -4.893782    3.071329    0.447200
  H     -4.930727    2.711045    1.343481
  O     -2.596084    2.902960    0.345207
  H     -2.621165    3.870680    0.295058
  O     -3.952709    2.890803   -1.518041
  H     -3.246086    2.469252   -2.025937

----------------------------
CARTESIAN COORDINATES (A.U.)
----------------------------
  NO LB      ZA    FRAG     MASS         X           Y           Z
   0 C     6.0000    0    12.011   -7.304108    1.784547   -0.142461
   1 C     6.0000    0    12.011   -9.302608    0.507840   -1.327808
   2 C     6.0000    0    12.011   -9.506414   -2.112679   -1.129761
   3 C     6.0000    0    12.011   -7.716747   -3.481321    0.256115
   4 C     6.0000    0    12.011   -5.725513   -2.214752    1.437858
   5 C     6.0000    0    12.011   -5.517118    0.413169    1.241979
   6 C     6.0000    0    12.011   -7.201244    4.657769   -0.368839
   7 H     1.0000    0     1.008  -10.684625    1.593981   -2.409236
   8 H     1.0000    0     1.008  -11.066689   -3.096331   -2.060322
   9 H     1.0000    0     1.008   -7.876421   -5.535270    0.410048
  10 H     1.0000    0     1.008   -4.320124   -3.275427    2.518678
  11 H     1.0000    0     1.008   -3.964503    1.416313    2.152615
  12 O     8.0000    0    15.999   -9.247907    5.803971    0.845086
  13 H     1.0000    0     1.008   -9.317723    5.123132    2.538811
  14 O     8.0000    0    15.999   -4.905889    5.485798    0.652347
  15 H     1.0000    0     1.008   -4.953283    7.314524    0.557579
  16 O     8.0000    0    15.999   -7.469538    5.462826   -2.868682
  17 H     1.0000    0     1.008   -6.134214    4.666211   -3.828467

--------------------------------
INTERNAL COORDINATES (ANGSTROEM)
--------------------------------
 C      0   0   0     0.000000000000     0.00000000     0.00000000
 C      1   0   0     1.402971824513     0.00000000     0.00000000
 C      2   1   0     1.394848980340   120.22763019     0.00000000
 C      3   2   1     1.399745376739   120.09630738     0.05558802
 C      4   3   2     1.396639493722   119.78517406   359.94463727
 C      5   4   3     1.398847505229   120.22365614     0.05578502
 C      1   2   3     1.526126641042   118.13499631   181.34013878
 H      2   1   3     1.092101879165   119.05374392   180.25029110
 H      3   2   1     1.093231076951   119.86197587   180.09111313
 H      4   3   2     1.093221464891   120.07765090   180.03543261
 H      5   4   3     1.093275266544   120.07212216   180.14944323
 H      6   5   4     1.090434988939   120.70453933   180.23468441
 O      7   1   2     1.397691620617   111.63117384    65.22807164
 H     13   7   1     0.966689476055   107.09783566    51.43966920
 O      7   1   2     1.399782143945   108.21065635   187.71899960
 H     15   7   1     0.969343147206   105.66917547   183.01997477
 O      7   1   2     1.396999278598   111.99472172   310.38055645
 H     17   7   1     0.966943455433   106.86800751   302.42020382

---------------------------
INTERNAL COORDINATES (A.U.)
---------------------------
 C      0   0   0     0.000000000000     0.00000000     0.00000000
 C      1   0   0     2.651232521937     0.00000000     0.00000000
 C      2   1   0     2.635882571022   120.22763019     0.00000000
 C      3   2   1     2.645135419258   120.09630738     0.05558802
 C      4   3   2     2.639266150954   119.78517406   359.94463727
 C      5   4   3     2.643438688002   120.22365614     0.05578502
 C      1   2   3     2.883961397251   118.13499631   181.34013878
 H      2   1   3     2.063773461962   119.05374392   180.25029110
 H      3   2   1     2.065907336530   119.86197587   180.09111313
 H      4   3   2     2.065889172367   120.07765090   180.03543261
 H      5   4   3     2.065990842757   120.07212216   180.14944323
 H      6   5   4     2.060623495940   120.70453933   180.23468441
 O      7   1   2     2.641254382643   111.63117384    65.22807164
 H     13   7   1     1.826778366288   107.09783566    51.43966920
 O      7   1   2     2.645204899208   108.21065635   187.71899960
 H     15   7   1     1.831793078013   105.66917547   183.01997477
 O      7   1   2     2.639946045837   111.99472172   310.38055645
 H     17   7   1     1.827258317755   106.86800751   302.42020382

---------------------
BASIS SET INFORMATION
---------------------
There are 3 groups of distinct atoms

 Group   1 Type C   : 15s8p3d2f1g contracted to 7s4p3d2f1g pattern {8211111/5111/111/11/1}
 Group   2 Type H   : 7s3p2d1f contracted to 4s3p2d1f pattern {4111/111/11/1}
 Group   3 Type O   : 15s8p3d2f1g contracted to 7s4p3d2f1g pattern {8211111/5111/111/11/1}

Atom   0C    basis set group =>   1
Atom   1C    basis set group =>   1
Atom   2C    basis set group =>   1
Atom   3C    basis set group =>   1
Atom   4C    basis set group =>   1
Atom   5C    basis set group =>   1
Atom   6C    basis set group =>   1
Atom   7H    basis set group =>   2
Atom   8H    basis set group =>   2
Atom   9H    basis set group =>   2
Atom  10H    basis set group =>   2
Atom  11H    basis set group =>   2
Atom  12O    basis set group =>   3
Atom  13H    basis set group =>   2
Atom  14O    basis set group =>   3
Atom  15H    basis set group =>   2
Atom  16O    basis set group =>   3
Atom  17H    basis set group =>   2
---------------------------------
AUXILIARY/J BASIS SET INFORMATION
---------------------------------
There are 3 groups of distinct atoms

 Group   1 Type C   : 12s5p4d2f1g contracted to 6s4p3d1f1g pattern {711111/2111/211/2/1}
 Group   2 Type H   : 5s2p1d contracted to 3s1p1d pattern {311/2/1}
 Group   3 Type O   : 12s5p4d2f1g contracted to 6s4p3d1f1g pattern {711111/2111/211/2/1}

Atom   0C    basis set group =>   1
Atom   1C    basis set group =>   1
Atom   2C    basis set group =>   1
Atom   3C    basis set group =>   1
Atom   4C    basis set group =>   1
Atom   5C    basis set group =>   1
Atom   6C    basis set group =>   1
Atom   7H    basis set group =>   2
Atom   8H    basis set group =>   2
Atom   9H    basis set group =>   2
Atom  10H    basis set group =>   2
Atom  11H    basis set group =>   2
Atom  12O    basis set group =>   3
Atom  13H    basis set group =>   2
Atom  14O    basis set group =>   3
Atom  15H    basis set group =>   2
Atom  16O    basis set group =>   3
Atom  17H    basis set group =>   2

Checking for AutoStart:
The File: neutral.gbw exists
Trying to determine its content:
     ... Fine, the file contains calculation information
     ... Fine, the calculation information was read
     ... Fine, the file contains a basis set
     ... Fine, the basis set was read
     ... Fine, the file contains a geometry
     ... Fine, the geometry was read
     ... Fine, the file contains a set of orbitals
     ... Fine, the orbitals can be read
     => possible old guess file was deleted
     => GBW file was renamed to GES file
     => GES file is set as startup file
     => Guess is set to MORead
     ... now leaving AutoStart

------------------------------------------------------------------------------
                           ORCA GTO INTEGRAL CALCULATION
                           -- RI-GTO INTEGRALS CHOSEN --
------------------------------------------------------------------------------
------------------------------------------------------------------------------
                   ___                                                        
                  /   \      - P O W E R E D   B Y -                         
                 /     \                                                     
                 |  |  |   _    _      __       _____    __    __             
                 |  |  |  | |  | |    /  \     |  _  \  |  |  /  |          
                  \  \/   | |  | |   /    \    | | | |  |  | /  /          
                 / \  \   | |__| |  /  /\  \   | |_| |  |  |/  /          
                |  |  |   |  __  | /  /__\  \  |    /   |      \           
                |  |  |   | |  | | |   __   |  |    \   |  |\   \          
                \     /   | |  | | |  |  |  |  | |\  \  |  | \   \       
                 \___/    |_|  |_| |__|  |__|  |_| \__\ |__|  \__/        
                                                                              
                      - O R C A' S   B I G   F R I E N D -                    
                                      &                                       
                       - I N T E G R A L  F E E D E R -                       
                                                                              
 v1 FN, 2020, v2 2021                                                         
------------------------------------------------------------------------------


Reading SHARK input file neutral.SHARKINP.tmp ... ok
----------------------
SHARK INTEGRAL PACKAGE
----------------------

Number of atoms                             ...     18
Number of basis functions                   ...    810
Number of shells                            ...    250
Maximum angular momentum                    ...      4
Integral batch strategy                     ... SHARK/LIBINT Hybrid
RI-J (if used) integral strategy            ... SPLIT-RIJ (Revised 2003 algorithm where possible)
Printlevel                                  ...      1
Contraction scheme used                     ... SEGMENTED contraction
Coulomb Range Separation                    ... NOT USED
Exchange Range Separation                   ... NOT USED
Finite Nucleus Model                        ... NOT USED
Auxiliary Coulomb fitting basis             ... AVAILABLE
   # of basis functions in Aux-J            ...    578
   # of shells in Aux-J                     ...    190
   Maximum angular momentum in Aux-J        ...      4
Auxiliary J/K fitting basis                 ... NOT available
Auxiliary Correlation fitting basis         ... NOT available
Auxiliary 'external' fitting basis          ... NOT available
Integral threshold                          ...     1.000000e-12
Primitive cut-off                           ...     1.000000e-14
Primitive pair pre-selection threshold      ...     1.000000e-14

Calculating pre-screening integrals         ... done (  1.1 sec) Dimension = 250
Organizing shell pair data                  ... done (  1.2 sec)
Shell pair information
Total number of shell pairs                 ...     31375
Shell pairs after pre-screening             ...     26462
Total number of primitive shell pairs       ...     78253
Primitive shell pairs kept                  ...     50047
          la=0 lb=0:   4098 shell pairs
          la=1 lb=0:   5699 shell pairs
          la=1 lb=1:   1920 shell pairs
          la=2 lb=0:   3804 shell pairs
          la=2 lb=1:   2604 shell pairs
          la=2 lb=2:    911 shell pairs
          la=3 lb=0:   2303 shell pairs
          la=3 lb=1:   1591 shell pairs
          la=3 lb=2:   1077 shell pairs
          la=3 lb=3:    338 shell pairs
          la=4 lb=0:    851 shell pairs
          la=4 lb=1:    581 shell pairs
          la=4 lb=2:    393 shell pairs
          la=4 lb=3:    243 shell pairs
          la=4 lb=4:     49 shell pairs

Calculating one electron integrals          ... done (  0.3 sec)
Calculating RI/J V-Matrix + Cholesky decomp.... done (  0.0 sec)
Calculating Nuclear repulsion               ... done (  0.0 sec) ENN=    527.801535938430 Eh

SHARK setup successfully completed in   5.7 seconds

Maximum memory used throughout the entire GTOINT-calculation: 886.5 MB
-------------------------------------------------------------------------------
                                 ORCA SCF
-------------------------------------------------------------------------------

------------
SCF SETTINGS
------------
Hamiltonian:
 Density Functional     Method          .... DFT(GTOs)
 Exchange Functional    Exchange        .... B88
   X-Alpha parameter    XAlpha          ....  0.666667
   Becke's b parameter  XBeta           ....  0.004200
 Correlation Functional Correlation     .... LYP
 LDA part of GGA corr.  LDAOpt          .... VWN-5
 Gradients option       PostSCFGGA      .... off
 Hybrid DFT is turned on
   Fraction HF Exchange ScalHFX         ....  0.200000
   Scaling of DF-GGA-X  ScalDFX         ....  0.720000
   Scaling of DF-GGA-C  ScalDFC         ....  0.810000
   Scaling of DF-LDA-C  ScalLDAC        ....  1.000000
   Perturbative correction              ....  0.000000
   Density functional embedding theory  .... OFF
   NL short-range parameter             ....  4.800000
 RI-approximation to the Coulomb term is turned on
   Number of AuxJ basis functions       .... 578
   RIJ-COSX (HFX calculated with COS-X)).... on


General Settings:
 Integral files         IntName         .... neutral
 Hartree-Fock type      HFTyp           .... RHF
 Total Charge           Charge          ....    0
 Multiplicity           Mult            ....    1
 Number of Electrons    NEL             ....   74
 Basis Dimension        Dim             ....  810
 Nuclear Repulsion      ENuc            ....    527.8015359384 Eh

Convergence Acceleration:
 DIIS                   CNVDIIS         .... on
   Start iteration      DIISMaxIt       ....    12
   Startup error        DIISStart       ....  0.200000
   # of expansion vecs  DIISMaxEq       ....     5
   Bias factor          DIISBfac        ....   1.050
   Max. coefficient     DIISMaxC        ....  10.000
 Trust-Rad. Augm. Hess. CNVTRAH         .... auto
   Auto Start mean grad. ratio tolernc. ....  1.125000
   Auto Start start iteration           ....     1
   Auto Start num. interpolation iter.  ....    10
   Max. Number of Micro iterations      ....    16
   Max. Number of Macro iterations      .... Maxiter - #DIIS iter
   Number of Davidson start vectors     ....     2
   Converg. threshold I  (grad. norm)   ....   2.000e-06
   Converg. threshold II (energy diff.) ....   1.000e-09
   Grad. Scal. Fac. for Micro threshold ....   0.100
   Minimum threshold for Micro iter.    ....   0.010
   NR start threshold (gradient norm)   ....   0.001
   Initial trust radius                 ....   0.400
   Minimum AH scaling param. (alpha)    ....   1.000
   Maximum AH scaling param. (alpha)    .... 1000.000
   Orbital update algorithm             .... Taylor
   White noise on init. David. guess    .... on
   Maximum white noise                  ....   0.010
   Quad. conv. algorithm                .... NR
 SOSCF                  CNVSOSCF        .... on
   Start iteration      SOSCFMaxIt      ....   150
   Startup grad/error   SOSCFStart      ....  0.003300
 Level Shifting         CNVShift        .... on
   Level shift para.    LevelShift      ....    0.2500
   Turn off err/grad.   ShiftErr        ....    0.0010
 Zerner damping         CNVZerner       .... off
 Static damping         CNVDamp         .... on
   Fraction old density DampFac         ....    0.7000
   Max. Damping (<1)    DampMax         ....    0.9800
   Min. Damping (>=0)   DampMin         ....    0.0000
   Turn off err/grad.   DampErr         ....    0.1000
 Fernandez-Rico         CNVRico         .... off

SCF Procedure:
 Maximum # iterations   MaxIter         ....   125
 SCF integral mode      SCFMode         .... Direct
   Integral package                     .... SHARK and LIBINT hybrid scheme
 Reset frequency        DirectResetFreq ....    20
 Integral Threshold     Thresh          ....  1.000e-12 Eh
 Primitive CutOff       TCut            ....  1.000e-14 Eh

Convergence Tolerance:
 Convergence Check Mode ConvCheckMode   .... Total+1el-Energy
 Convergence forced     ConvForced      .... 0
 Energy Change          TolE            ....  1.000e-09 Eh
 1-El. energy change                    ....  1.000e-06 Eh
 Orbital Gradient       TolG            ....  2.000e-06
 Orbital Rotation angle TolX            ....  2.000e-06
 DIIS Error             TolErr          ....  1.000e-08


Diagonalization of the overlap matrix:
Smallest eigenvalue                        ... 6.402e-06
Time for diagonalization                   ...    0.183 sec
Threshold for overlap eigenvalues          ... 1.000e-08
Number of eigenvalues below threshold      ... 0
Time for construction of square roots      ...    0.114 sec
Total time needed                          ...    0.299 sec

---------------------
INITIAL GUESS: MOREAD
---------------------
Guess MOs are being read from file: neutral.ges
Input Geometry matches current geometry (good)
Input basis set matches current basis set (good)
MOs were renormalized
MOs were reorthogonalized (Cholesky)
                      ------------------
                      INITIAL GUESS DONE (   0.4 sec)
                      ------------------
-------------------
DFT GRID GENERATION
-------------------

General Integration Accuracy     IntAcc      ... 4.388
Radial Grid Type                 RadialGrid  ... OptM3 with GC (2021)
Angular Grid (max. ang.)         AngularGrid ... 4 (Lebedev-302)
Angular grid pruning method      GridPruning ... 4 (adaptive)
Weight generation scheme         WeightScheme... Becke
Basis function cutoff            BFCut       ... 1.0000e-12
Integration weight cutoff        WCut        ... 1.0000e-14
Angular grids for H and He will be reduced by one unit
Partially contracted basis set               ... off
Rotationally invariant grid construction     ... off

Total number of grid points                  ...    88594
Total number of batches                      ...     1394
Average number of points per batch           ...       63
Average number of grid points per atom       ...     4922
Time for grid setup =    3.399 sec

--------------------
COSX GRID GENERATION
--------------------

GRIDX 1
-------
General Integration Accuracy     IntAcc      ... 3.816
Radial Grid Type                 RadialGrid  ... OptM3 with GC (2021)
Angular Grid (max. ang.)         AngularGrid ... 1 (Lebedev-50)
Angular grid pruning method      GridPruning ... 4 (adaptive)
Weight generation scheme         WeightScheme... Becke
Basis function cutoff            BFCut       ... 1.0000e-12
Integration weight cutoff        WCut        ... 1.0000e-14
Angular grids for H and He will be reduced by one unit
Partially contracted basis set               ... on
Rotationally invariant grid construction     ... off

Total number of grid points                  ...    11320
Total number of batches                      ...      188
Average number of points per batch           ...       60
Average number of grid points per atom       ...      629
UseSFitting                                  ... on

GRIDX 2
-------
General Integration Accuracy     IntAcc      ... 4.020
Radial Grid Type                 RadialGrid  ... OptM3 with GC (2021)
Angular Grid (max. ang.)         AngularGrid ... 2 (Lebedev-110)
Angular grid pruning method      GridPruning ... 4 (adaptive)
Weight generation scheme         WeightScheme... Becke
Basis function cutoff            BFCut       ... 1.0000e-12
Integration weight cutoff        WCut        ... 1.0000e-14
Angular grids for H and He will be reduced by one unit
Partially contracted basis set               ... on
Rotationally invariant grid construction     ... off

Total number of grid points                  ...    27087
Total number of batches                      ...      433
Average number of points per batch           ...       62
Average number of grid points per atom       ...     1505
UseSFitting                                  ... on

GRIDX 3
-------
General Integration Accuracy     IntAcc      ... 4.338
Radial Grid Type                 RadialGrid  ... OptM3 with GC (2021)
Angular Grid (max. ang.)         AngularGrid ... 3 (Lebedev-194)
Angular grid pruning method      GridPruning ... 4 (adaptive)
Weight generation scheme         WeightScheme... Becke
Basis function cutoff            BFCut       ... 1.0000e-12
Integration weight cutoff        WCut        ... 1.0000e-14
Angular grids for H and He will be reduced by one unit
Partially contracted basis set               ... on
Rotationally invariant grid construction     ... off

Total number of grid points                  ...    58468
Total number of batches                      ...      925
Average number of points per batch           ...       63
Average number of grid points per atom       ...     3248
UseSFitting                                  ... on

Time for X-Grid setup             =    8.267 sec

--------------
SCF ITERATIONS
--------------
ITER       Energy         Delta-E        Max-DP      RMS-DP      [F,P]     Damp
               ***  Starting incremental Fock matrix formation  ***
                      *** Initiating the SOSCF procedure ***
                      *** Re-Reading the Fockian *** 
                      *** Removing any level shift *** 
ITER      Energy       Delta-E        Grad      Rot      Max-DP    RMS-DP
  0   -497.20017830 -497.2001782964  0.000036  0.000036  0.000644  0.000008
               *** Restarting incremental Fock matrix formation ***
  1   -497.20017831  -0.0000000105  0.000001  0.000001  0.000097  0.000001
                  ***Gradient check signals convergence***
              ***Rediagonalizing the Fockian in SOSCF/NRSCF***

               *****************************************************
               *                     SUCCESS                       *
               *           SCF CONVERGED AFTER   2 CYCLES          *
               *****************************************************

Old exchange energy                            =    -12.760682518 Eh
New exchange energy                            =    -12.760680051 Eh
Exchange energy change after final integration =      0.000002467 Eh
Total energy after final integration           =   -497.200175840 Eh
Final COS-X integration done in                =   529.801 sec

----------------
TOTAL SCF ENERGY
----------------

Total Energy       :         -497.20017584 Eh          -13529.50461 eV

Components:
Nuclear Repulsion  :          527.80153594 Eh           14362.20995 eV
Electronic Energy  :        -1025.00171178 Eh          -27891.71456 eV
One Electron Energy:        -1724.38156116 Eh          -46922.80779 eV
Two Electron Energy:          699.37984938 Eh           19031.09322 eV
Max COSX asymmetry :            0.00000127 Eh               0.00003 eV

Virial components:
Potential Energy   :         -992.22380173 Eh          -26999.78229 eV
Kinetic Energy     :          495.02362589 Eh           13470.27768 eV
Virial Ratio       :            2.00439686


DFT components:
N(Alpha)           :       36.999968084665 electrons
N(Beta)            :       36.999968084665 electrons
N(Total)           :       73.999936169330 electrons
E(X)               :      -50.770117235808 Eh       
E(C)               :       -3.002564993151 Eh       
E(XC)              :      -53.772682228959 Eh       
DFET-embed. en.    :        0.000000000000 Eh       

---------------
SCF CONVERGENCE
---------------

  Last Energy change         ...    2.7865e-10  Tolerance :   1.0000e-09
  Last MAX-Density change    ...    1.1102e-15  Tolerance :   1.0000e-08
  Last RMS-Density change    ...    6.4984e-18  Tolerance :   1.0000e-09
  Last Orbital Gradient      ...    4.3426e-07  Tolerance :   2.0000e-06
  Last Orbital Rotation      ...    1.3449e-06  Tolerance :   2.0000e-06

             **** THE GBW FILE WAS UPDATED (neutral.gbw) ****
             **** DENSITY neutral.scfp WAS UPDATED ****
             **** ENERGY FILE WAS UPDATED (neutral.en.tmp) ****
             **** THE GBW FILE WAS UPDATED (neutral.gbw) ****
             **** DENSITY neutral.scfp WAS UPDATED ****
----------------
ORBITAL ENERGIES
----------------

  NO   OCC          E(Eh)            E(eV) 
   0   2.0000     -19.143928      -520.9328 
   1   2.0000     -19.143683      -520.9261 
   2   2.0000     -19.142960      -520.9064 
   3   2.0000     -10.337817      -281.3063 
   4   2.0000     -10.191540      -277.3259 
   5   2.0000     -10.185775      -277.1690 
   6   2.0000     -10.185056      -277.1495 
   7   2.0000     -10.184836      -277.1435 
   8   2.0000     -10.184254      -277.1276 
   9   2.0000     -10.184194      -277.1260 
  10   2.0000      -1.115322       -30.3495 
  11   2.0000      -1.017770       -27.6949 
  12   2.0000      -1.015025       -27.6202 
  13   2.0000      -0.861546       -23.4438 
  14   2.0000      -0.766050       -20.8453 
  15   2.0000      -0.750899       -20.4330 
  16   2.0000      -0.671133       -18.2625 
  17   2.0000      -0.622812       -16.9476 
  18   2.0000      -0.608569       -16.5600 
  19   2.0000      -0.573397       -15.6029 
  20   2.0000      -0.528142       -14.3715 
  21   2.0000      -0.505915       -13.7666 
  22   2.0000      -0.483789       -13.1646 
  23   2.0000      -0.453247       -12.3335 
  24   2.0000      -0.452360       -12.3093 
  25   2.0000      -0.432273       -11.7627 
  26   2.0000      -0.428060       -11.6481 
  27   2.0000      -0.423357       -11.5201 
  28   2.0000      -0.380117       -10.3435 
  29   2.0000      -0.376514       -10.2455 
  30   2.0000      -0.353009        -9.6059 
  31   2.0000      -0.349917        -9.5217 
  32   2.0000      -0.342741        -9.3265 
  33   2.0000      -0.307479        -8.3669 
  34   2.0000      -0.301005        -8.1908 
  35   2.0000      -0.262453        -7.1417 
  36   2.0000      -0.257484        -7.0065 
  37   0.0000      -0.026604        -0.7239 
  38   0.0000      -0.019644        -0.5345 
  39   0.0000       0.006410         0.1744 
  40   0.0000       0.029559         0.8043 
  41   0.0000       0.041344         1.1250 
  42   0.0000       0.042193         1.1481 
  43   0.0000       0.050022         1.3612 
  44   0.0000       0.066058         1.7975 
  45   0.0000       0.087793         2.3890 
  46   0.0000       0.106499         2.8980 
  47   0.0000       0.113268         3.0822 
  48   0.0000       0.118761         3.2316 
  49   0.0000       0.128147         3.4871 
  50   0.0000       0.145676         3.9641 
  51   0.0000       0.150522         4.0959 
  52   0.0000       0.155534         4.2323 
  53   0.0000       0.166882         4.5411 
  54   0.0000       0.173039         4.7086 
  55   0.0000       0.182134         4.9561 
  56   0.0000       0.186964         5.0875 
  57   0.0000       0.190256         5.1771 
  58   0.0000       0.199973         5.4416 
  59   0.0000       0.208863         5.6834 
  60   0.0000       0.215397         5.8613 
  61   0.0000       0.232132         6.3166 
  62   0.0000       0.237587         6.4651 
  63   0.0000       0.241759         6.5786 
  64   0.0000       0.252176         6.8621 
  65   0.0000       0.257054         6.9948 
  66   0.0000       0.263922         7.1817 
  67   0.0000       0.269227         7.3260 
  68   0.0000       0.281498         7.6599 
  69   0.0000       0.284944         7.7537 
  70   0.0000       0.290012         7.8916 
  71   0.0000       0.292664         7.9638 
  72   0.0000       0.294165         8.0046 
  73   0.0000       0.300414         8.1747 
  74   0.0000       0.310648         8.4532 
  75   0.0000       0.324866         8.8400 
  76   0.0000       0.332006         9.0343 
  77   0.0000       0.334192         9.0938 
  78   0.0000       0.339586         9.2406 
  79   0.0000       0.356700         9.7063 
  80   0.0000       0.362405         9.8615 
  81   0.0000       0.365125         9.9355 
  82   0.0000       0.378699        10.3049 
  83   0.0000       0.385007        10.4766 
  84   0.0000       0.399976        10.8839 
  85   0.0000       0.406944        11.0735 
  86   0.0000       0.419742        11.4217 
  87   0.0000       0.428811        11.6685 
  88   0.0000       0.432993        11.7823 
  89   0.0000       0.438407        11.9297 
  90   0.0000       0.446981        12.1630 
  91   0.0000       0.449344        12.2273 
  92   0.0000       0.460807        12.5392 
  93   0.0000       0.466930        12.7058 
  94   0.0000       0.482259        13.1229 
  95   0.0000       0.486303        13.2330 
  96   0.0000       0.503492        13.7007 
  97   0.0000       0.509589        13.8666 
  98   0.0000       0.518657        14.1134 
  99   0.0000       0.531443        14.4613 
 100   0.0000       0.536388        14.5959 
 101   0.0000       0.551499        15.0070 
 102   0.0000       0.561303        15.2738 
 103   0.0000       0.568179        15.4609 
 104   0.0000       0.579041        15.7565 
 105   0.0000       0.585751        15.9391 
 106   0.0000       0.588843        16.0232 
 107   0.0000       0.616360        16.7720 
 108   0.0000       0.622856        16.9488 
 109   0.0000       0.635486        17.2925 
 110   0.0000       0.638380        17.3712 
 111   0.0000       0.658815        17.9273 
 112   0.0000       0.670718        18.2512 
 113   0.0000       0.684305        18.6209 
 114   0.0000       0.692625        18.8473 
 115   0.0000       0.703787        19.1510 
 116   0.0000       0.712528        19.3889 
 117   0.0000       0.721514        19.6334 
 118   0.0000       0.734905        19.9978 
 119   0.0000       0.741807        20.1856 
 120   0.0000       0.748600        20.3705 
 121   0.0000       0.755033        20.5455 
 122   0.0000       0.759334        20.6625 
 123   0.0000       0.762928        20.7603 
 124   0.0000       0.764388        20.8001 
 125   0.0000       0.777132        21.1468 
 126   0.0000       0.787789        21.4368 
 127   0.0000       0.806520        21.9465 
 128   0.0000       0.812662        22.1137 
 129   0.0000       0.815447        22.1894 
 130   0.0000       0.833453        22.6794 
 131   0.0000       0.850331        23.1387 
 132   0.0000       0.859462        23.3871 
 133   0.0000       0.864868        23.5343 
 134   0.0000       0.867015        23.5927 
 135   0.0000       0.876676        23.8556 
 136   0.0000       0.887323        24.1453 
 137   0.0000       0.894172        24.3317 
 138   0.0000       0.906872        24.6773 
 139   0.0000       0.917922        24.9779 
 140   0.0000       0.920980        25.0611 
 141   0.0000       0.928119        25.2554 
 142   0.0000       0.931985        25.3606 
 143   0.0000       0.938876        25.5481 
 144   0.0000       0.944273        25.6950 
 145   0.0000       0.960964        26.1492 
 146   0.0000       0.970945        26.4208 
 147   0.0000       0.988981        26.9116 
 148   0.0000       1.000398        27.2222 
 149   0.0000       1.011237        27.5172 
 150   0.0000       1.017233        27.6803 
 151   0.0000       1.025303        27.8999 
 152   0.0000       1.030344        28.0371 
 153   0.0000       1.043640        28.3989 
 154   0.0000       1.046504        28.4768 
 155   0.0000       1.047710        28.5096 
 156   0.0000       1.066512        29.0213 
 157   0.0000       1.082601        29.4591 
 158   0.0000       1.085811        29.5464 
 159   0.0000       1.102455        29.9993 
 160   0.0000       1.107314        30.1315 
 161   0.0000       1.120701        30.4958 
 162   0.0000       1.128014        30.6948 
 163   0.0000       1.144432        31.1416 
 164   0.0000       1.158908        31.5355 
 165   0.0000       1.166799        31.7502 
 166   0.0000       1.175390        31.9840 
 167   0.0000       1.180029        32.1102 
 168   0.0000       1.203308        32.7437 
 169   0.0000       1.204986        32.7893 
 170   0.0000       1.241975        33.7959 
 171   0.0000       1.262484        34.3539 
 172   0.0000       1.277081        34.7511 
 173   0.0000       1.280582        34.8464 
 174   0.0000       1.287291        35.0290 
 175   0.0000       1.306463        35.5507 
 176   0.0000       1.315087        35.7853 
 177   0.0000       1.343121        36.5482 
 178   0.0000       1.361353        37.0443 
 179   0.0000       1.365371        37.1536 
 180   0.0000       1.369347        37.2618 
 181   0.0000       1.383315        37.6419 
 182   0.0000       1.402571        38.1659 
 183   0.0000       1.406525        38.2735 
 184   0.0000       1.418285        38.5935 
 185   0.0000       1.423477        38.7348 
 186   0.0000       1.437159        39.1071 
 187   0.0000       1.447154        39.3791 
 188   0.0000       1.474369        40.1196 
 189   0.0000       1.491584        40.5881 
 190   0.0000       1.500129        40.8206 
 191   0.0000       1.514205        41.2036 
 192   0.0000       1.522627        41.4328 
 193   0.0000       1.540679        41.9240 
 194   0.0000       1.541677        41.9512 
 195   0.0000       1.555539        42.3284 
 196   0.0000       1.574655        42.8486 
 197   0.0000       1.582148        43.0524 
 198   0.0000       1.601002        43.5655 
 199   0.0000       1.618743        44.0482 
 200   0.0000       1.623935        44.1895 
 201   0.0000       1.627080        44.2751 
 202   0.0000       1.652839        44.9760 
 203   0.0000       1.671703        45.4893 
 204   0.0000       1.682029        45.7703 
 205   0.0000       1.696617        46.1673 
 206   0.0000       1.713822        46.6355 
 207   0.0000       1.722468        46.8707 
 208   0.0000       1.733304        47.1656 
 209   0.0000       1.739722        47.3402 
 210   0.0000       1.749710        47.6120 
 211   0.0000       1.754340        47.7380 
 212   0.0000       1.765055        48.0296 
 213   0.0000       1.772791        48.2401 
 214   0.0000       1.788566        48.6693 
 215   0.0000       1.810987        49.2795 
 216   0.0000       1.815754        49.4092 
 217   0.0000       1.842618        50.1402 
 218   0.0000       1.861310        50.6488 
 219   0.0000       1.868488        50.8442 
 220   0.0000       1.877176        51.0806 
 221   0.0000       1.889879        51.4262 
 222   0.0000       1.903109        51.7862 
 223   0.0000       1.911987        52.0278 
 224   0.0000       1.918544        52.2062 
 225   0.0000       1.941868        52.8409 
 226   0.0000       1.949133        53.0386 
 227   0.0000       1.959476        53.3201 
 228   0.0000       1.967844        53.5478 
 229   0.0000       1.978601        53.8405 
 230   0.0000       1.980089        53.8810 
 231   0.0000       1.992237        54.2115 
 232   0.0000       1.994610        54.2761 
 233   0.0000       2.005505        54.5726 
 234   0.0000       2.020747        54.9873 
 235   0.0000       2.039069        55.4859 
 236   0.0000       2.042389        55.5762 
 237   0.0000       2.071091        56.3572 
 238   0.0000       2.075791        56.4851 
 239   0.0000       2.089300        56.8527 
 240   0.0000       2.101587        57.1871 
 241   0.0000       2.106549        57.3221 
 242   0.0000       2.113744        57.5179 
 243   0.0000       2.119357        57.6706 
 244   0.0000       2.126948        57.8772 
 245   0.0000       2.134104        58.0719 
 246   0.0000       2.146426        58.4072 
 247   0.0000       2.157782        58.7162 
 248   0.0000       2.168627        59.0113 
 249   0.0000       2.174844        59.1805 
 250   0.0000       2.191463        59.6327 
 251   0.0000       2.201947        59.9180 
 252   0.0000       2.206985        60.0551 
 253   0.0000       2.214629        60.2631 
 254   0.0000       2.227756        60.6203 
 255   0.0000       2.234586        60.8062 
 256   0.0000       2.248012        61.1715 
 257   0.0000       2.252731        61.2999 
 258   0.0000       2.266379        61.6713 
 259   0.0000       2.274866        61.9022 
 260   0.0000       2.285827        62.2005 
 261   0.0000       2.286072        62.2072 
 262   0.0000       2.295680        62.4686 
 263   0.0000       2.306122        62.7528 
 264   0.0000       2.327828        63.3434 
 265   0.0000       2.337708        63.6123 
 266   0.0000       2.351692        63.9928 
 267   0.0000       2.361785        64.2674 
 268   0.0000       2.376008        64.6545 
 269   0.0000       2.395064        65.1730 
 270   0.0000       2.396397        65.2093 
 271   0.0000       2.401418        65.3459 
 272   0.0000       2.412431        65.6456 
 273   0.0000       2.427241        66.0486 
 274   0.0000       2.435494        66.2732 
 275   0.0000       2.442809        66.4722 
 276   0.0000       2.450236        66.6743 
 277   0.0000       2.458095        66.8882 
 278   0.0000       2.461934        66.9926 
 279   0.0000       2.475406        67.3592 
 280   0.0000       2.489089        67.7316 
 281   0.0000       2.503537        68.1247 
 282   0.0000       2.506531        68.2062 
 283   0.0000       2.525182        68.7137 
 284   0.0000       2.530882        68.8688 
 285   0.0000       2.543364        69.2085 
 286   0.0000       2.560481        69.6742 
 287   0.0000       2.564676        69.7884 
 288   0.0000       2.572681        70.0062 
 289   0.0000       2.579779        70.1994 
 290   0.0000       2.591644        70.5222 
 291   0.0000       2.604491        70.8718 
 292   0.0000       2.608708        70.9866 
 293   0.0000       2.626756        71.4777 
 294   0.0000       2.629673        71.5570 
 295   0.0000       2.640015        71.8385 
 296   0.0000       2.642177        71.8973 
 297   0.0000       2.661766        72.4303 
 298   0.0000       2.666799        72.5673 
 299   0.0000       2.670623        72.6713 
 300   0.0000       2.680006        72.9267 
 301   0.0000       2.692399        73.2639 
 302   0.0000       2.705746        73.6271 
 303   0.0000       2.718155        73.9648 
 304   0.0000       2.726826        74.2007 
 305   0.0000       2.736299        74.4585 
 306   0.0000       2.748812        74.7990 
 307   0.0000       2.762418        75.1692 
 308   0.0000       2.772500        75.4436 
 309   0.0000       2.781620        75.6917 
 310   0.0000       2.784909        75.7812 
 311   0.0000       2.794332        76.0376 
 312   0.0000       2.804676        76.3191 
 313   0.0000       2.823790        76.8392 
 314   0.0000       2.827714        76.9460 
 315   0.0000       2.845360        77.4262 
 316   0.0000       2.857288        77.7508 
 317   0.0000       2.868707        78.0615 
 318   0.0000       2.890173        78.6456 
 319   0.0000       2.912597        79.2558 
 320   0.0000       2.913459        79.2792 
 321   0.0000       2.927085        79.6500 
 322   0.0000       2.943229        80.0893 
 323   0.0000       2.960769        80.5666 
 324   0.0000       2.970968        80.8441 
 325   0.0000       2.987393        81.2911 
 326   0.0000       2.994655        81.4887 
 327   0.0000       3.017935        82.1222 
 328   0.0000       3.029303        82.4315 
 329   0.0000       3.045840        82.8815 
 330   0.0000       3.060014        83.2672 
 331   0.0000       3.087683        84.0201 
 332   0.0000       3.113293        84.7170 
 333   0.0000       3.127522        85.1042 
 334   0.0000       3.133155        85.2575 
 335   0.0000       3.144137        85.5563 
 336   0.0000       3.155480        85.8650 
 337   0.0000       3.182990        86.6136 
 338   0.0000       3.185126        86.6717 
 339   0.0000       3.210108        87.3515 
 340   0.0000       3.220285        87.6284 
 341   0.0000       3.241698        88.2111 
 342   0.0000       3.264314        88.8265 
 343   0.0000       3.286455        89.4290 
 344   0.0000       3.296147        89.6927 
 345   0.0000       3.316959        90.2590 
 346   0.0000       3.321409        90.3801 
 347   0.0000       3.352273        91.2200 
 348   0.0000       3.360955        91.4562 
 349   0.0000       3.385381        92.1209 
 350   0.0000       3.405574        92.6704 
 351   0.0000       3.407999        92.7364 
 352   0.0000       3.423761        93.1653 
 353   0.0000       3.436240        93.5048 
 354   0.0000       3.448916        93.8498 
 355   0.0000       3.458629        94.1141 
 356   0.0000       3.465137        94.2912 
 357   0.0000       3.485403        94.8426 
 358   0.0000       3.509485        95.4979 
 359   0.0000       3.518176        95.7344 
 360   0.0000       3.521653        95.8291 
 361   0.0000       3.545793        96.4859 
 362   0.0000       3.555296        96.7445 
 363   0.0000       3.568530        97.1046 
 364   0.0000       3.590675        97.7072 
 365   0.0000       3.630215        98.7832 
 366   0.0000       3.636866        98.9642 
 367   0.0000       3.671074        99.8950 
 368   0.0000       3.683869       100.2432 
 369   0.0000       3.691057       100.4388 
 370   0.0000       3.728804       101.4659 
 371   0.0000       3.760438       102.3267 
 372   0.0000       3.775581       102.7388 
 373   0.0000       3.793462       103.2253 
 374   0.0000       3.816645       103.8562 
 375   0.0000       3.823445       104.0412 
 376   0.0000       3.842198       104.5515 
 377   0.0000       3.863398       105.1284 
 378   0.0000       3.889641       105.8425 
 379   0.0000       3.963677       107.8571 
 380   0.0000       3.967380       107.9579 
 381   0.0000       3.984288       108.4180 
 382   0.0000       3.998304       108.7994 
 383   0.0000       4.021068       109.4188 
 384   0.0000       4.040809       109.9560 
 385   0.0000       4.056291       110.3773 
 386   0.0000       4.070425       110.7619 
 387   0.0000       4.084719       111.1508 
 388   0.0000       4.093855       111.3995 
 389   0.0000       4.109102       111.8144 
 390   0.0000       4.138994       112.6278 
 391   0.0000       4.151643       112.9720 
 392   0.0000       4.179208       113.7220 
 393   0.0000       4.181478       113.7838 
 394   0.0000       4.208516       114.5195 
 395   0.0000       4.236885       115.2915 
 396   0.0000       4.252611       115.7194 
 397   0.0000       4.258488       115.8793 
 398   0.0000       4.277195       116.3884 
 399   0.0000       4.306644       117.1897 
 400   0.0000       4.313211       117.3684 
 401   0.0000       4.354188       118.4835 
 402   0.0000       4.365928       118.8029 
 403   0.0000       4.415950       120.1641 
 404   0.0000       4.434415       120.6666 
 405   0.0000       4.441096       120.8484 
 406   0.0000       4.447035       121.0100 
 407   0.0000       4.472561       121.7046 
 408   0.0000       4.503629       122.5500 
 409   0.0000       4.506040       122.6156 
 410   0.0000       4.530544       123.2824 
 411   0.0000       4.538117       123.4884 
 412   0.0000       4.550270       123.8191 
 413   0.0000       4.580329       124.6371 
 414   0.0000       4.598443       125.1300 
 415   0.0000       4.620242       125.7232 
 416   0.0000       4.628943       125.9600 
 417   0.0000       4.653163       126.6190 
 418   0.0000       4.718192       128.3885 
 419   0.0000       4.754220       129.3689 
 420   0.0000       4.778643       130.0335 
 421   0.0000       4.793247       130.4309 
 422   0.0000       4.812039       130.9422 
 423   0.0000       4.826058       131.3237 
 424   0.0000       4.839545       131.6907 
 425   0.0000       4.857578       132.1814 
 426   0.0000       4.863467       132.3417 
 427   0.0000       4.887268       132.9893 
 428   0.0000       4.907348       133.5357 
 429   0.0000       4.947496       134.6282 
 430   0.0000       4.974819       135.3717 
 431   0.0000       5.019308       136.5823 
 432   0.0000       5.038531       137.1054 
 433   0.0000       5.047045       137.3371 
 434   0.0000       5.059186       137.6675 
 435   0.0000       5.076570       138.1405 
 436   0.0000       5.082154       138.2924 
 437   0.0000       5.090155       138.5102 
 438   0.0000       5.131284       139.6293 
 439   0.0000       5.156779       140.3231 
 440   0.0000       5.163860       140.5158 
 441   0.0000       5.174862       140.8151 
 442   0.0000       5.201687       141.5451 
 443   0.0000       5.220956       142.0694 
 444   0.0000       5.228730       142.2810 
 445   0.0000       5.253455       142.9538 
 446   0.0000       5.263999       143.2407 
 447   0.0000       5.275674       143.5584 
 448   0.0000       5.292427       144.0143 
 449   0.0000       5.318497       144.7237 
 450   0.0000       5.337891       145.2514 
 451   0.0000       5.359328       145.8347 
 452   0.0000       5.367994       146.0705 
 453   0.0000       5.393353       146.7606 
 454   0.0000       5.398337       146.8962 
 455   0.0000       5.416706       147.3961 
 456   0.0000       5.425867       147.6453 
 457   0.0000       5.435652       147.9116 
 458   0.0000       5.451237       148.3357 
 459   0.0000       5.467357       148.7744 
 460   0.0000       5.491207       149.4233 
 461   0.0000       5.521025       150.2347 
 462   0.0000       5.532759       150.5540 
 463   0.0000       5.542859       150.8289 
 464   0.0000       5.549083       150.9982 
 465   0.0000       5.557846       151.2367 
 466   0.0000       5.589516       152.0985 
 467   0.0000       5.599333       152.3656 
 468   0.0000       5.621600       152.9715 
 469   0.0000       5.636588       153.3794 
 470   0.0000       5.674151       154.4015 
 471   0.0000       5.688344       154.7877 
 472   0.0000       5.709141       155.3536 
 473   0.0000       5.721721       155.6959 
 474   0.0000       5.736705       156.1037 
 475   0.0000       5.767957       156.9541 
 476   0.0000       5.775556       157.1609 
 477   0.0000       5.806233       157.9956 
 478   0.0000       5.811114       158.1285 
 479   0.0000       5.828583       158.6038 
 480   0.0000       5.837790       158.8543 
 481   0.0000       5.858078       159.4064 
 482   0.0000       5.874494       159.8531 
 483   0.0000       5.876916       159.9190 
 484   0.0000       5.884446       160.1239 
 485   0.0000       5.888715       160.2401 
 486   0.0000       5.902007       160.6018 
 487   0.0000       5.921065       161.1204 
 488   0.0000       5.925800       161.2492 
 489   0.0000       5.940457       161.6480 
 490   0.0000       5.957303       162.1065 
 491   0.0000       5.976977       162.6418 
 492   0.0000       5.980501       162.7377 
 493   0.0000       5.998262       163.2210 
 494   0.0000       6.002586       163.3387 
 495   0.0000       6.019903       163.8099 
 496   0.0000       6.027825       164.0255 
 497   0.0000       6.040115       164.3599 
 498   0.0000       6.055593       164.7811 
 499   0.0000       6.059792       164.8953 
 500   0.0000       6.088094       165.6655 
 501   0.0000       6.092870       165.7954 
 502   0.0000       6.095967       165.8797 
 503   0.0000       6.116731       166.4447 
 504   0.0000       6.118795       166.5009 
 505   0.0000       6.137800       167.0180 
 506   0.0000       6.144333       167.1958 
 507   0.0000       6.166259       167.7924 
 508   0.0000       6.173016       167.9763 
 509   0.0000       6.189821       168.4336 
 510   0.0000       6.208695       168.9472 
 511   0.0000       6.229727       169.5195 
 512   0.0000       6.234425       169.6473 
 513   0.0000       6.243661       169.8986 
 514   0.0000       6.248504       170.0304 
 515   0.0000       6.266739       170.5266 
 516   0.0000       6.280010       170.8878 
 517   0.0000       6.289013       171.1328 
 518   0.0000       6.295187       171.3007 
 519   0.0000       6.315441       171.8519 
 520   0.0000       6.316760       171.8878 
 521   0.0000       6.317245       171.9010 
 522   0.0000       6.341292       172.5553 
 523   0.0000       6.342482       172.5877 
 524   0.0000       6.397097       174.0739 
 525   0.0000       6.401383       174.1905 
 526   0.0000       6.412322       174.4881 
 527   0.0000       6.425503       174.8468 
 528   0.0000       6.443226       175.3291 
 529   0.0000       6.454977       175.6489 
 530   0.0000       6.466408       175.9599 
 531   0.0000       6.484978       176.4652 
 532   0.0000       6.515430       177.2939 
 533   0.0000       6.533682       177.7905 
 534   0.0000       6.540578       177.9782 
 535   0.0000       6.555715       178.3901 
 536   0.0000       6.561520       178.5480 
 537   0.0000       6.585807       179.2089 
 538   0.0000       6.589845       179.3188 
 539   0.0000       6.595586       179.4750 
 540   0.0000       6.625704       180.2946 
 541   0.0000       6.633788       180.5145 
 542   0.0000       6.638791       180.6507 
 543   0.0000       6.649593       180.9446 
 544   0.0000       6.655735       181.1117 
 545   0.0000       6.671915       181.5520 
 546   0.0000       6.686507       181.9491 
 547   0.0000       6.699079       182.2912 
 548   0.0000       6.710801       182.6102 
 549   0.0000       6.718144       182.8100 
 550   0.0000       6.731275       183.1673 
 551   0.0000       6.742521       183.4733 
 552   0.0000       6.745306       183.5491 
 553   0.0000       6.769656       184.2117 
 554   0.0000       6.770418       184.2324 
 555   0.0000       6.812219       185.3699 
 556   0.0000       6.821095       185.6114 
 557   0.0000       6.836559       186.0322 
 558   0.0000       6.847547       186.3312 
 559   0.0000       6.864312       186.7874 
 560   0.0000       6.900474       187.7714 
 561   0.0000       6.909177       188.0083 
 562   0.0000       6.915632       188.1839 
 563   0.0000       6.927800       188.5150 
 564   0.0000       6.952060       189.1752 
 565   0.0000       6.956662       189.3004 
 566   0.0000       6.964974       189.5266 
 567   0.0000       6.973885       189.7690 
 568   0.0000       7.005390       190.6263 
 569   0.0000       7.033013       191.3780 
 570   0.0000       7.036765       191.4801 
 571   0.0000       7.043191       191.6550 
 572   0.0000       7.066083       192.2779 
 573   0.0000       7.093984       193.0371 
 574   0.0000       7.132157       194.0759 
 575   0.0000       7.149793       194.5558 
 576   0.0000       7.178064       195.3250 
 577   0.0000       7.186458       195.5535 
 578   0.0000       7.206146       196.0892 
 579   0.0000       7.217191       196.3898 
 580   0.0000       7.223233       196.5542 
 581   0.0000       7.238868       196.9796 
 582   0.0000       7.293849       198.4757 
 583   0.0000       7.303484       198.7379 
 584   0.0000       7.328763       199.4258 
 585   0.0000       7.344890       199.8646 
 586   0.0000       7.355559       200.1549 
 587   0.0000       7.374810       200.6788 
 588   0.0000       7.394262       201.2081 
 589   0.0000       7.400566       201.3796 
 590   0.0000       7.416416       201.8109 
 591   0.0000       7.430470       202.1934 
 592   0.0000       7.448052       202.6718 
 593   0.0000       7.450174       202.7295 
 594   0.0000       7.465721       203.1526 
 595   0.0000       7.486511       203.7183 
 596   0.0000       7.497920       204.0288 
 597   0.0000       7.509404       204.3413 
 598   0.0000       7.512627       204.4290 
 599   0.0000       7.523295       204.7193 
 600   0.0000       7.536024       205.0656 
 601   0.0000       7.545971       205.3363 
 602   0.0000       7.576339       206.1627 
 603   0.0000       7.605463       206.9552 
 604   0.0000       7.641212       207.9280 
 605   0.0000       7.655090       208.3056 
 606   0.0000       7.668285       208.6647 
 607   0.0000       7.684316       209.1009 
 608   0.0000       7.709717       209.7921 
 609   0.0000       7.722365       210.1362 
 610   0.0000       7.734748       210.4732 
 611   0.0000       7.777182       211.6279 
 612   0.0000       7.807239       212.4458 
 613   0.0000       7.825457       212.9415 
 614   0.0000       7.830437       213.0770 
 615   0.0000       7.858420       213.8385 
 616   0.0000       7.864939       214.0159 
 617   0.0000       7.876972       214.3433 
 618   0.0000       7.902060       215.0260 
 619   0.0000       7.914807       215.3728 
 620   0.0000       7.931907       215.8382 
 621   0.0000       7.956366       216.5037 
 622   0.0000       7.958550       216.5632 
 623   0.0000       7.967854       216.8163 
 624   0.0000       8.000398       217.7019 
 625   0.0000       8.023267       218.3242 
 626   0.0000       8.071245       219.6297 
 627   0.0000       8.085663       220.0221 
 628   0.0000       8.094161       220.2533 
 629   0.0000       8.112504       220.7525 
 630   0.0000       8.119269       220.9365 
 631   0.0000       8.126849       221.1428 
 632   0.0000       8.133889       221.3344 
 633   0.0000       8.159070       222.0196 
 634   0.0000       8.175078       222.4552 
 635   0.0000       8.198680       223.0974 
 636   0.0000       8.212410       223.4710 
 637   0.0000       8.220515       223.6916 
 638   0.0000       8.240174       224.2265 
 639   0.0000       8.243470       224.3162 
 640   0.0000       8.251199       224.5265 
 641   0.0000       8.271544       225.0802 
 642   0.0000       8.282370       225.3747 
 643   0.0000       8.293369       225.6741 
 644   0.0000       8.301370       225.8918 
 645   0.0000       8.312339       226.1902 
 646   0.0000       8.322798       226.4748 
 647   0.0000       8.348440       227.1726 
 648   0.0000       8.363496       227.5823 
 649   0.0000       8.369946       227.7578 
 650   0.0000       8.378918       228.0019 
 651   0.0000       8.392075       228.3600 
 652   0.0000       8.397088       228.4964 
 653   0.0000       8.421315       229.1556 
 654   0.0000       8.442866       229.7421 
 655   0.0000       8.446790       229.8488 
 656   0.0000       8.462763       230.2835 
 657   0.0000       8.476460       230.6562 
 658   0.0000       8.492426       231.0907 
 659   0.0000       8.512735       231.6433 
 660   0.0000       8.513540       231.6652 
 661   0.0000       8.532333       232.1766 
 662   0.0000       8.589708       233.7378 
 663   0.0000       8.603452       234.1118 
 664   0.0000       8.612018       234.3449 
 665   0.0000       8.635678       234.9887 
 666   0.0000       8.644175       235.2200 
 667   0.0000       8.653017       235.4606 
 668   0.0000       8.662251       235.7118 
 669   0.0000       8.674596       236.0478 
 670   0.0000       8.684620       236.3205 
 671   0.0000       8.699272       236.7192 
 672   0.0000       8.719697       237.2750 
 673   0.0000       8.727992       237.5007 
 674   0.0000       8.758419       238.3287 
 675   0.0000       8.784895       239.0491 
 676   0.0000       8.795065       239.3259 
 677   0.0000       8.811946       239.7853 
 678   0.0000       8.838632       240.5114 
 679   0.0000       8.854241       240.9361 
 680   0.0000       8.881995       241.6914 
 681   0.0000       8.890869       241.9329 
 682   0.0000       8.906557       242.3597 
 683   0.0000       8.930136       243.0014 
 684   0.0000       8.957995       243.7594 
 685   0.0000       9.029984       245.7184 
 686   0.0000       9.066731       246.7183 
 687   0.0000       9.125103       248.3067 
 688   0.0000       9.202547       250.4140 
 689   0.0000       9.223553       250.9856 
 690   0.0000       9.270513       252.2635 
 691   0.0000       9.323708       253.7110 
 692   0.0000       9.346838       254.3404 
 693   0.0000       9.373111       255.0553 
 694   0.0000       9.434114       256.7153 
 695   0.0000       9.469080       257.6668 
 696   0.0000       9.505647       258.6618 
 697   0.0000       9.549924       259.8666 
 698   0.0000       9.601262       261.2636 
 699   0.0000       9.614696       261.6292 
 700   0.0000       9.658289       262.8154 
 701   0.0000       9.673674       263.2340 
 702   0.0000       9.697922       263.8939 
 703   0.0000       9.712196       264.2823 
 704   0.0000       9.717329       264.4220 
 705   0.0000       9.778099       266.0756 
 706   0.0000       9.781711       266.1739 
 707   0.0000       9.822278       267.2778 
 708   0.0000       9.856831       268.2180 
 709   0.0000       9.883492       268.9435 
 710   0.0000       9.924916       270.0707 
 711   0.0000       9.967782       271.2371 
 712   0.0000       9.979937       271.5679 
 713   0.0000      10.025633       272.8114 
 714   0.0000      10.040337       273.2115 
 715   0.0000      10.059533       273.7338 
 716   0.0000      10.079277       274.2711 
 717   0.0000      10.115516       275.2572 
 718   0.0000      10.164689       276.5953 
 719   0.0000      10.213672       277.9281 
 720   0.0000      10.238821       278.6125 
 721   0.0000      10.260427       279.2004 
 722   0.0000      10.287613       279.9402 
 723   0.0000      10.301231       280.3107 
 724   0.0000      10.357859       281.8517 
 725   0.0000      10.374634       282.3081 
 726   0.0000      10.388909       282.6966 
 727   0.0000      10.434101       283.9263 
 728   0.0000      10.514853       286.1237 
 729   0.0000      10.651729       289.8483 
 730   0.0000      10.666789       290.2581 
 731   0.0000      10.673920       290.4521 
 732   0.0000      10.693796       290.9930 
 733   0.0000      10.731800       292.0271 
 734   0.0000      10.787170       293.5338 
 735   0.0000      10.847372       295.1720 
 736   0.0000      10.897431       296.5342 
 737   0.0000      10.978031       298.7274 
 738   0.0000      10.983224       298.8687 
 739   0.0000      11.163889       303.7849 
 740   0.0000      11.219181       305.2894 
 741   0.0000      11.244596       305.9810 
 742   0.0000      11.310342       307.7701 
 743   0.0000      11.331558       308.3474 
 744   0.0000      11.377110       309.5869 
 745   0.0000      11.431601       311.0697 
 746   0.0000      11.574063       314.9463 
 747   0.0000      11.601022       315.6799 
 748   0.0000      11.652264       317.0742 
 749   0.0000      11.672921       317.6363 
 750   0.0000      11.686046       317.9935 
 751   0.0000      11.702538       318.4423 
 752   0.0000      11.754103       319.8454 
 753   0.0000      11.810220       321.3724 
 754   0.0000      11.825282       321.7823 
 755   0.0000      11.997673       326.4733 
 756   0.0000      12.038116       327.5738 
 757   0.0000      12.076588       328.6207 
 758   0.0000      12.082099       328.7706 
 759   0.0000      12.132556       330.1436 
 760   0.0000      12.166410       331.0648 
 761   0.0000      12.191691       331.7528 
 762   0.0000      12.243392       333.1596 
 763   0.0000      12.338550       335.7490 
 764   0.0000      12.540310       341.2392 
 765   0.0000      12.573711       342.1481 
 766   0.0000      12.603692       342.9639 
 767   0.0000      12.608636       343.0984 
 768   0.0000      12.695542       345.4633 
 769   0.0000      12.700837       345.6073 
 770   0.0000      12.726278       346.2996 
 771   0.0000      12.743303       346.7629 
 772   0.0000      12.751219       346.9783 
 773   0.0000      12.892095       350.8118 
 774   0.0000      13.116454       356.9169 
 775   0.0000      13.146801       357.7426 
 776   0.0000      13.156473       358.0058 
 777   0.0000      13.178265       358.5988 
 778   0.0000      13.770233       374.7071 
 779   0.0000      13.783616       375.0713 
 780   0.0000      13.813236       375.8773 
 781   0.0000      13.958857       379.8398 
 782   0.0000      14.019496       381.4899 
 783   0.0000      14.036582       381.9548 
 784   0.0000      14.380638       391.3171 
 785   0.0000      14.425263       392.5314 
 786   0.0000      14.522094       395.1663 
 787   0.0000      16.585096       451.3034 
 788   0.0000      16.637234       452.7222 
 789   0.0000      16.648910       453.0399 
 790   0.0000      27.927139       759.9361 
 791   0.0000      28.427665       773.5561 
 792   0.0000      28.502324       775.5877 
 793   0.0000      28.588661       777.9370 
 794   0.0000      28.873932       785.6996 
 795   0.0000      28.974410       788.4338 
 796   0.0000      29.293461       797.1156 
 797   0.0000      48.331066      1315.1552 
 798   0.0000      48.437141      1318.0416 
 799   0.0000      48.521226      1320.3297 
 800   0.0000     147.006093      4000.2392 
 801   0.0000     147.492947      4013.4871 
 802   0.0000     147.547456      4014.9704 
 803   0.0000     147.644512      4017.6114 
 804   0.0000     147.880266      4024.0266 
 805   0.0000     147.977809      4026.6809 
 806   0.0000     148.323830      4036.0966 
 807   0.0000     253.360357      6894.2858 
 808   0.0000     253.487828      6897.7545 
 809   0.0000     253.591247      6900.5686 

                    ********************************
                    * MULLIKEN POPULATION ANALYSIS *
                    ********************************

-----------------------
MULLIKEN ATOMIC CHARGES
-----------------------
   0 C :    0.069610
   1 C :   -0.128086
   2 C :   -0.089595
   3 C :   -0.061077
   4 C :   -0.087137
   5 C :   -0.118083
   6 C :    0.586844
   7 H :    0.107524
   8 H :    0.064027
   9 H :    0.058859
  10 H :    0.062779
  11 H :    0.077449
  12 O :   -0.388498
  13 H :    0.222233
  14 O :   -0.430502
  15 H :    0.220011
  16 O :   -0.395900
  17 H :    0.229542
Sum of atomic charges:   -0.0000000

--------------------------------
MULLIKEN REDUCED ORBITAL CHARGES
--------------------------------
  0 C s       :     3.322070  s :     3.322070
      pz      :     0.903794  p :     2.448203
      px      :     0.819960
      py      :     0.724449
      dz2     :     0.032325  d :     0.135163
      dxz     :     0.019253
      dyz     :     0.014631
      dx2y2   :     0.052378
      dxy     :     0.016575
      f0      :     0.000965  f :     0.023476
      f+1     :     0.002655
      f-1     :     0.003037
      f+2     :     0.004617
      f-2     :     0.001480
      f+3     :     0.007231
      f-3     :     0.003491
      g0      :     0.000137  g :     0.001478
      g+1     :     0.000090
      g-1     :     0.000096
      g+2     :     0.000090
      g-2     :     0.000214
      g+3     :     0.000199
      g-3     :     0.000207
      g+4     :     0.000229
      g-4     :     0.000216
  1 C s       :     3.364328  s :     3.364328
      pz      :     0.919145  p :     2.638903
      px      :     0.899315
      py      :     0.820443
      dz2     :     0.009784  d :     0.107634
      dxz     :     0.007854
      dyz     :     0.034138
      dx2y2   :     0.017418
      dxy     :     0.038440
      f0      :     0.001138  f :     0.016143
      f+1     :     0.001717
      f-1     :     0.001271
      f+2     :     0.003614
      f-2     :     0.000902
      f+3     :     0.006030
      f-3     :     0.001472
      g0      :     0.000082  g :     0.001077
      g+1     :     0.000056
      g-1     :     0.000123
      g+2     :     0.000078
      g-2     :     0.000103
      g+3     :     0.000095
      g-3     :     0.000146
      g+4     :     0.000164
      g-4     :     0.000229
  2 C s       :     3.326495  s :     3.326495
      pz      :     0.909736  p :     2.633326
      px      :     0.882162
      py      :     0.841428
      dz2     :     0.012159  d :     0.113414
      dxz     :     0.008528
      dyz     :     0.030626
      dx2y2   :     0.023245
      dxy     :     0.038858
      f0      :     0.001276  f :     0.015242
      f+1     :     0.001745
      f-1     :     0.001070
      f+2     :     0.003498
      f-2     :     0.000986
      f+3     :     0.004937
      f-3     :     0.001729
      g0      :     0.000068  g :     0.001117
      g+1     :     0.000069
      g-1     :     0.000129
      g+2     :     0.000076
      g-2     :     0.000114
      g+3     :     0.000118
      g-3     :     0.000168
      g+4     :     0.000163
      g-4     :     0.000212
  3 C s       :     3.330507  s :     3.330507
      pz      :     0.899736  p :     2.605457
      px      :     0.864545
      py      :     0.841175
      dz2     :     0.023727  d :     0.108918
      dxz     :     0.017566
      dyz     :     0.010900
      dx2y2   :     0.040660
      dxy     :     0.016065
      f0      :     0.000510  f :     0.015092
      f+1     :     0.002364
      f-1     :     0.001883
      f+2     :     0.002951
      f-2     :     0.001177
      f+3     :     0.004314
      f-3     :     0.001892
      g0      :     0.000093  g :     0.001104
      g+1     :     0.000083
      g-1     :     0.000052
      g+2     :     0.000047
      g-2     :     0.000197
      g+3     :     0.000194
      g-3     :     0.000175
      g+4     :     0.000128
      g-4     :     0.000134
  4 C s       :     3.319891  s :     3.319891
      pz      :     0.915704  p :     2.634548
      px      :     0.876387
      py      :     0.842458
      dz2     :     0.009388  d :     0.116176
      dxz     :     0.010916
      dyz     :     0.030829
      dx2y2   :     0.023676
      dxy     :     0.041367
      f0      :     0.001051  f :     0.015409
      f+1     :     0.001834
      f-1     :     0.001107
      f+2     :     0.003461
      f-2     :     0.001066
      f+3     :     0.005469
      f-3     :     0.001420
      g0      :     0.000084  g :     0.001114
      g+1     :     0.000055
      g-1     :     0.000114
      g+2     :     0.000084
      g-2     :     0.000108
      g+3     :     0.000109
      g-3     :     0.000155
      g+4     :     0.000179
      g-4     :     0.000226
  5 C s       :     3.393355  s :     3.393355
      pz      :     0.914091  p :     2.612269
      px      :     0.894391
      py      :     0.803787
      dz2     :     0.011814  d :     0.095476
      dxz     :     0.006340
      dyz     :     0.028758
      dx2y2   :     0.017329
      dxy     :     0.031235
      f0      :     0.001400  f :     0.015900
      f+1     :     0.001667
      f-1     :     0.001117
      f+2     :     0.003615
      f-2     :     0.000762
      f+3     :     0.005324
      f-3     :     0.002015
      g0      :     0.000069  g :     0.001082
      g+1     :     0.000071
      g-1     :     0.000133
      g+2     :     0.000071
      g-2     :     0.000112
      g+3     :     0.000111
      g-3     :     0.000158
      g+4     :     0.000153
      g-4     :     0.000206
  6 C s       :     3.144791  s :     3.144791
      pz      :     0.616362  p :     1.991272
      px      :     0.600567
      py      :     0.774344
      dz2     :     0.049869  d :     0.219270
      dxz     :     0.046554
      dyz     :     0.037876
      dx2y2   :     0.059792
      dxy     :     0.025180
      f0      :     0.006285  f :     0.053398
      f+1     :     0.014045
      f-1     :     0.005914
      f+2     :     0.007045
      f-2     :     0.005457
      f+3     :     0.009760
      f-3     :     0.004893
      g0      :     0.000671  g :     0.004425
      g+1     :     0.000553
      g-1     :     0.000542
[...]
   6 C :   -0.923844
   7 H :   -0.043702
   8 H :   -0.055751
   9 H :   -0.056253
  10 H :   -0.056227
  11 H :   -0.053622
  12 O :    0.663000
  13 H :   -0.339602
  14 O :    0.646974
  15 H :   -0.341887
  16 O :    0.661869
  17 H :   -0.338819

-------------------------------
LOEWDIN REDUCED ORBITAL CHARGES
-------------------------------
  0 C s       :     2.585396  s :     2.585396
      pz      :     0.858493  p :     2.736923
      px      :     0.945085
      py      :     0.933345
      dz2     :     0.097683  d :     0.621924
      dxz     :     0.093628
      dyz     :     0.101991
      dx2y2   :     0.182710
      dxy     :     0.145912
      f0      :     0.010761  f :     0.150570
      f+1     :     0.013035
      f-1     :     0.018545
      f+2     :     0.029314
      f-2     :     0.015587
      f+3     :     0.042242
      f-3     :     0.021086
      g0      :     0.001462  g :     0.014021
      g+1     :     0.000777
      g-1     :     0.001122
      g+2     :     0.000749
      g-2     :     0.001550
      g+3     :     0.002418
      g-3     :     0.002009
      g+4     :     0.002061
      g-4     :     0.001872
  1 C s       :     2.587472  s :     2.587472
      pz      :     0.822105  p :     2.704648
      px      :     0.897115
      py      :     0.985428
      dz2     :     0.047432  d :     0.500492
      dxz     :     0.062414
      dyz     :     0.111597
      dx2y2   :     0.123741
      dxy     :     0.155308
      f0      :     0.010449  f :     0.113275
      f+1     :     0.009820
      f-1     :     0.010862
      f+2     :     0.021300
      f-2     :     0.010069
      f+3     :     0.035980
      f-3     :     0.014795
      g0      :     0.001028  g :     0.011405
      g+1     :     0.000556
      g-1     :     0.001318
      g+2     :     0.000744
      g-2     :     0.001043
      g+3     :     0.001194
      g-3     :     0.001664
      g+4     :     0.001730
      g-4     :     0.002129
  2 C s       :     2.595273  s :     2.595273
      pz      :     0.835056  p :     2.720387
      px      :     0.899214
      py      :     0.986117
      dz2     :     0.053691  d :     0.499858
      dxz     :     0.057856
      dyz     :     0.113467
      dx2y2   :     0.125036
      dxy     :     0.149809
      f0      :     0.011467  f :     0.110360
      f+1     :     0.008929
      f-1     :     0.009829
      f+2     :     0.022861
      f-2     :     0.009420
      f+3     :     0.032167
      f-3     :     0.015687
      g0      :     0.000865  g :     0.011240
      g+1     :     0.000707
      g-1     :     0.001396
      g+2     :     0.000664
      g-2     :     0.000986
      g+3     :     0.001293
      g-3     :     0.001821
      g+4     :     0.001370
      g-4     :     0.002137
  3 C s       :     2.596066  s :     2.596066
      pz      :     0.842889  p :     2.718929
      px      :     0.929828
      py      :     0.946212
      dz2     :     0.084705  d :     0.501218
      dxz     :     0.091737
      dyz     :     0.059112
      dx2y2   :     0.161483
      dxy     :     0.104182
      f0      :     0.006219  f :     0.110373
      f+1     :     0.012592
      f-1     :     0.013831
      f+2     :     0.020142
      f-2     :     0.014506
      f+3     :     0.027509
      f-3     :     0.015574
      g0      :     0.001251  g :     0.011188
      g+1     :     0.000780
      g-1     :     0.000677
      g+2     :     0.000512
      g-2     :     0.001453
      g+3     :     0.002371
      g-3     :     0.001575
      g+4     :     0.001532
      g-4     :     0.001038
  4 C s       :     2.595361  s :     2.595361
      pz      :     0.831465  p :     2.721186
      px      :     0.906832
      py      :     0.982888
      dz2     :     0.046143  d :     0.500080
      dxz     :     0.063460
      dyz     :     0.109482
      dx2y2   :     0.125442
      dxy     :     0.155553
      f0      :     0.010193  f :     0.110125
      f+1     :     0.009510
      f-1     :     0.010287
      f+2     :     0.021325
      f-2     :     0.009278
      f+3     :     0.035309
      f-3     :     0.014224
      g0      :     0.001013  g :     0.011210
      g+1     :     0.000549
      g-1     :     0.001280
      g+2     :     0.000734
      g-2     :     0.000989
      g+3     :     0.001186
      g-3     :     0.001691
      g+4     :     0.001671
      g-4     :     0.002096
  5 C s       :     2.588895  s :     2.588895
      pz      :     0.826190  p :     2.708448
      px      :     0.895698
      py      :     0.986559
      dz2     :     0.055441  d :     0.501303
      dxz     :     0.057284
      dyz     :     0.113488
      dx2y2   :     0.124228
      dxy     :     0.150862
      f0      :     0.011699  f :     0.113110
      f+1     :     0.009101
      f-1     :     0.010407
      f+2     :     0.022542
      f-2     :     0.010173
      f+3     :     0.033021
      f-3     :     0.016167
      g0      :     0.000884  g :     0.011400
      g+1     :     0.000741
      g-1     :     0.001419
      g+2     :     0.000658
      g-2     :     0.001034
      g+3     :     0.001330
      g-3     :     0.001783
      g+4     :     0.001419
      g-4     :     0.002134
  6 C s       :     2.574829  s :     2.574829
      pz      :     0.801098  p :     2.561977
      px      :     0.817297
      py      :     0.943582
      dz2     :     0.274227  d :     1.270655
      dxz     :     0.271970
      dyz     :     0.217866
      dx2y2   :     0.295382
      dxy     :     0.211210
      f0      :     0.056462  f :     0.472112
      f+1     :     0.111423
      f-1     :     0.058923
      f+2     :     0.066855
      f-2     :     0.054979
      f+3     :     0.080641
      f-3     :     0.042830
      g0      :     0.005966  g :     0.044270
      g+1     :     0.005380
      g-1     :     0.004425
      g+2     :     0.003968
      g-2     :     0.006215
      g+3     :     0.005798
      g-3     :     0.003879
      g+4     :     0.004515
      g-4     :     0.004125
  7 H s       :     0.784502  s :     0.784502
      pz      :     0.061865  p :     0.186361
      px      :     0.066739
      py      :     0.057757
      dz2     :     0.012001  d :     0.063617
      dxz     :     0.012328
      dyz     :     0.009993
      dx2y2   :     0.016867
      dxy     :     0.012429
      f0      :     0.000581  f :     0.009223
      f+1     :     0.001459
      f-1     :     0.000912
      f+2     :     0.001771
      f-2     :     0.001602
      f+3     :     0.001672
      f-3     :     0.001226
  8 H s       :     0.797757  s :     0.797757
      pz      :     0.059371  p :     0.186314
      px      :     0.073589
      py      :     0.053355
      dz2     :     0.010581  d :     0.062551
      dxz     :     0.013202
      dyz     :     0.007877
      dx2y2   :     0.016983
      dxy     :     0.013907
      f0      :     0.000527  f :     0.009129
      f+1     :     0.001601
      f-1     :     0.000654
      f+2     :     0.001442
      f-2     :     0.001535
      f+3     :     0.002044
      f-3     :     0.001328
  9 H s       :     0.798501  s :     0.798501
      pz      :     0.049505  p :     0.186206
      px      :     0.045782
      py      :     0.090919
      dz2     :     0.004989  d :     0.062426
      dxz     :     0.000533
      dyz     :     0.020553
      dx2y2   :     0.014246
      dxy     :     0.022105
      f0      :     0.001077  f :     0.009120
      f+1     :     0.000199
      f-1     :     0.001088
      f+2     :     0.001765
      f-2     :     0.000132
      f+3     :     0.002975
      f-3     :     0.001882
 10 H s       :     0.798005  s :     0.798005
      pz      :     0.062968  p :     0.186503
      px      :     0.068305
      py      :     0.055230
      dz2     :     0.012109  d :     0.062588
      dxz     :     0.012190
      dyz     :     0.009537
      dx2y2   :     0.016548
      dxy     :     0.012203
      f0      :     0.000564  f :     0.009130
      f+1     :     0.001497
      f-1     :     0.000862
      f+2     :     0.001740
      f-2     :     0.001588
      f+3     :     0.001676
      f-3     :     0.001205
 11 H s       :     0.786239  s :     0.786239
      pz      :     0.058335  p :     0.193492
      px      :     0.073840
      py      :     0.061318
      dz2     :     0.010523  d :     0.064617
      dxz     :     0.013490
      dyz     :     0.008237
      dx2y2   :     0.018427
      dxy     :     0.013939
      f0      :     0.000544  f :     0.009273
      f+1     :     0.001581
      f-1     :     0.000672
      f+2     :     0.001454
      f-2     :     0.001556
      f+3     :     0.002099
      f-3     :     0.001367
 12 O s       :     3.047542  s :     3.047542
      pz      :     1.273056  p :     4.152829
      px      :     1.404007
      py      :     1.475766
      dz2     :     0.033775  d :     0.116140
      dxz     :     0.024069
      dyz     :     0.017481
      dx2y2   :     0.021884
      dxy     :     0.018930
      f0      :     0.002502  f :     0.019774
      f+1     :     0.003425
      f-1     :     0.003039
      f+2     :     0.002041
      f-2     :     0.003179
      f+3     :     0.003312
      f-3     :     0.002277
      g0      :     0.000109  g :     0.000715
      g+1     :     0.000074
      g-1     :     0.000055
      g+2     :     0.000074
      g-2     :     0.000078
      g+3     :     0.000104
      g-3     :     0.000062
      g+4     :     0.000088
      g-4     :     0.000072
 13 H s       :     0.677256  s :     0.677256
      pz      :     0.186968  p :     0.428485
      px      :     0.105371
      py      :     0.136146
      dz2     :     0.058415  d :     0.193888
      dxz     :     0.057477
      dyz     :     0.059160
      dx2y2   :     0.010715
      dxy     :     0.008123
      f0      :     0.012290  f :     0.039973
      f+1     :     0.010533
      f-1     :     0.008383
      f+2     :     0.004170
      f-2     :     0.004078
      f+3     :     0.000272
      f-3     :     0.000247
 14 O s       :     3.047295  s :     3.047295
      pz      :     1.504012  p :     4.169467
      px      :     1.387127
      py      :     1.278328
      dz2     :     0.017834  d :     0.115693
      dxz     :     0.020693
      dyz     :     0.007136
      dx2y2   :     0.044190
      dxy     :     0.025839
      f0      :     0.001102  f :     0.019877
      f+1     :     0.003114
      f-1     :     0.001166
      f+2     :     0.003310
      f-2     :     0.001841
      f+3     :     0.005170
      f-3     :     0.004176
      g0      :     0.000065  g :     0.000695
      g+1     :     0.000056
      g-1     :     0.000091
      g+2     :     0.000083
      g-2     :     0.000036
      g+3     :     0.000103
      g-3     :     0.000098
      g+4     :     0.000113
      g-4     :     0.000049
 15 H s       :     0.682417  s :     0.682417
      pz      :     0.119446  p :     0.425805
      px      :     0.099715
      py      :     0.206645
      dz2     :     0.015800  d :     0.193922
      dxz     :     0.000592
      dyz     :     0.069087
      dx2y2   :     0.043717
      dxy     :     0.064725
      f0      :     0.006024  f :     0.039742
      f+1     :     0.000876
      f-1     :     0.003597
      f+2     :     0.010132
      f-2     :     0.000052
      f+3     :     0.013384
      f-3     :     0.005677
 16 O s       :     3.046527  s :     3.046527
      pz      :     1.229632  p :     4.154831
      px      :     1.439744
      py      :     1.485455
      dz2     :     0.036711  d :     0.116250
      dxz     :     0.034310
      dyz     :     0.029067
      dx2y2   :     0.008859
      dxy     :     0.007304
      f0      :     0.004973  f :     0.019805
      f+1     :     0.004490
      f-1     :     0.004633
      f+2     :     0.002011
      f-2     :     0.002299
      f+3     :     0.000437
      f-3     :     0.000962
      g0      :     0.000128  g :     0.000717
      g+1     :     0.000115
      g-1     :     0.000078
      g+2     :     0.000103
      g-2     :     0.000102
      g+3     :     0.000077
      g-3     :     0.000049
      g+4     :     0.000035
      g-4     :     0.000031
 17 H s       :     0.677231  s :     0.677231
      pz      :     0.104617  p :     0.427725
      px      :     0.179087
      py      :     0.144022
      dz2     :     0.041625  d :     0.193895
      dxz     :     0.035447
      dyz     :     0.026018
      dx2y2   :     0.050269
      dxy     :     0.040535
      f0      :     0.002634  f :     0.039967
      f+1     :     0.008597
      f-1     :     0.002974
      f+2     :     0.007822
      f-2     :     0.005936
      f+3     :     0.008129
      f-3     :     0.003874


                      *****************************
                      * MAYER POPULATION ANALYSIS *
                      *****************************

  NA   - Mulliken gross atomic population
  ZA   - Total nuclear charge
  QA   - Mulliken gross atomic charge
  VA   - Mayer's total valence
  BVA  - Mayer's bonded valence
  FA   - Mayer's free valence

  ATOM       NA         ZA         QA         VA         BVA        FA
  0 C      5.9304     6.0000     0.0696     3.5054     3.5054    -0.0000
  1 C      6.1281     6.0000    -0.1281     3.7053     3.7053     0.0000
  2 C      6.0896     6.0000    -0.0896     3.8011     3.8011    -0.0000
  3 C      6.0611     6.0000    -0.0611     3.7907     3.7907     0.0000
  4 C      6.0871     6.0000    -0.0871     3.8040     3.8040     0.0000
  5 C      6.1181     6.0000    -0.1181     3.6613     3.6613     0.0000
  6 C      5.4132     6.0000     0.5868     4.0449     4.0449     0.0000
  7 H      0.8925     1.0000     0.1075     0.9962     0.9962    -0.0000
  8 H      0.9360     1.0000     0.0640     1.0003     1.0003     0.0000
  9 H      0.9411     1.0000     0.0589     0.9992     0.9992    -0.0000
 10 H      0.9372     1.0000     0.0628     1.0010     1.0010    -0.0000
 11 H      0.9226     1.0000     0.0774     1.0303     1.0303    -0.0000
 12 O      8.3885     8.0000    -0.3885     2.0657     2.0657    -0.0000
 13 H      0.7778     1.0000     0.2222     1.0300     1.0300     0.0000
 14 O      8.4305     8.0000    -0.4305     2.0625     2.0625     0.0000
 15 H      0.7800     1.0000     0.2200     1.0382     1.0382    -0.0000
 16 O      8.3959     8.0000    -0.3959     2.0578     2.0578    -0.0000
 17 H      0.7705     1.0000     0.2295     1.0218     1.0218    -0.0000

  Mayer bond orders larger than 0.100000
B(  0-C ,  1-C ) :   1.2564 B(  0-C ,  5-C ) :   1.2543 B(  0-C ,  6-C ) :   0.8493 
B(  1-C ,  2-C ) :   1.3306 B(  1-C ,  7-H ) :   0.9607 B(  2-C ,  3-C ) :   1.3174 
B(  2-C ,  8-H ) :   0.9699 B(  3-C ,  4-C ) :   1.3328 B(  3-C ,  9-H ) :   0.9674 
B(  4-C ,  5-C ) :   1.3225 B(  4-C , 10-H ) :   0.9707 B(  5-C , 11-H ) :   0.9569 
B(  6-C , 12-O ) :   1.0330 B(  6-C , 14-O ) :   1.0849 B(  6-C , 16-O ) :   1.0277 
B( 12-O , 13-H ) :   0.9768 B( 14-O , 15-H ) :   0.9649 B( 16-O , 17-H ) :   0.9705 


-------
TIMINGS
-------

Total SCF time: 0 days 0 hours 19 min 15 sec 

Total time                  ....    1155.691 sec
Sum of individual times     ....    1150.778 sec  ( 99.6%)

Fock matrix formation       ....    1137.150 sec  ( 98.4%)
  Split-RI-J                ....      72.151 sec  (  6.3% of F)
  Chain of spheres X        ....    1022.539 sec  ( 89.9% of F)
  XC integration            ....      42.248 sec  (  3.7% of F)
    Basis function eval.    ....       7.465 sec  ( 17.7% of XC)
    Density eval.           ....      17.949 sec  ( 42.5% of XC)
    XC-Functional eval.     ....       0.403 sec  (  1.0% of XC)
    XC-Potential eval.      ....      15.501 sec  ( 36.7% of XC)
Diagonalization             ....       0.350 sec  (  0.0%)
Density matrix formation    ....       0.151 sec  (  0.0%)
Population analysis         ....       0.405 sec  (  0.0%)
Initial guess               ....       0.362 sec  (  0.0%)
Orbital Transformation      ....       0.000 sec  (  0.0%)
Orbital Orthonormalization  ....       0.303 sec  (  0.0%)
DIIS solution               ....       0.107 sec  (  0.0%)
SOSCF solution              ....       0.587 sec  (  0.1%)
Grid generation             ....      11.666 sec  (  1.0%)

Maximum memory used throughout the entire SCF-calculation: 952.3 MB


-------------------------------------------------------------------------------
                          DFT DISPERSION CORRECTION                            
                                                                               
                                 DFTD4 V2.5                                    
-------------------------------------------------------------------------------
The B3LYP functional is recognized
Active option DFTDOPT                   ...         5   

Starting D4
-------------------------   ----------------
Dispersion correction           -0.029843094
-------------------------   ----------------


-------------------------   --------------------
FINAL SINGLE POINT ENERGY      -497.230018933768
-------------------------   --------------------


                            ***************************************
                            *     ORCA property calculations      *
                            ***************************************

                                    ---------------------
                                    Active property flags
                                    ---------------------
   (+) Dipole Moment


------------------------------------------------------------------------------
                       ORCA ELECTRIC PROPERTIES CALCULATION
------------------------------------------------------------------------------

Dipole Moment Calculation                       ... on
Quadrupole Moment Calculation                   ... off
Polarizability Calculation                      ... off
GBWName                                         ... neutral.gbw
Electron density                                ... neutral.scfp
The origin for moment calculation is the CENTER OF MASS  = (-7.368422,  1.933434 -0.160237)

-------------
DIPOLE MOMENT
-------------
                                X             Y             Z
Electronic contribution:      0.02450       3.03184      -0.33480
Nuclear contribution   :      0.31644      -3.51876       0.56972
                        -----------------------------------------
Total Dipole Moment    :      0.34094      -0.48692       0.23492
                        -----------------------------------------
Magnitude (a.u.)       :      0.63916
Magnitude (Debye)      :      1.62461



--------------------
Rotational spectrum 
--------------------
 
Rotational constants in cm-1:     0.093520     0.032173     0.027486 
Rotational constants in MHz :  2803.659723   964.517439   824.009769 

 Dipole components along the rotational axes: 
x,y,z [a.u.] :    -0.484960    -0.414148    -0.042668 
x,y,z [Debye]:    -1.232669    -1.052680    -0.108452 

 

Timings for individual modules:

Sum of individual times         ...     1164.294 sec (=  19.405 min)
GTO integral calculation        ...        6.612 sec (=   0.110 min)   0.6 %
SCF iterations                  ...     1157.682 sec (=  19.295 min)  99.4 %
                             ****ORCA TERMINATED NORMALLY****
TOTAL RUN TIME: 0 days 0 hours 19 minutes 36 seconds 555 msec
