
                                 *****************
                                 * O   R   C   A *
                                 *****************

                                            #,                                       
                                            ###                                      
                                            ####                                     
                                            #####                                    
                                            ######                                   
                                           ########,                                 
                                     ,,################,,,,,                         
                               ,,#################################,,                 
                          ,,##########################################,,             
                       ,#########################################, ''#####,          
                    ,#############################################,,   '####,        
                  ,##################################################,,,,####,       
                ,###########''''           ''''###############################       
              ,#####''   ,,,,##########,,,,          '''####'''          '####       
            ,##' ,,,,###########################,,,                        '##       
           ' ,,###''''                  '''############,,,                           
         ,,##''                                '''############,,,,        ,,,,,,###''
      ,#''                                            '''#######################'''  
     '                                                          ''''####''''         
             ,#######,   #######,   ,#######,      ##                                
            ,#'     '#,  ##    ##  ,#'     '#,    #''#        ######   ,####,        
            ##       ##  ##   ,#'  ##            #'  '#       #        #'  '#        
            ##       ##  #######   ##           ,######,      #####,   #    #        
            '#,     ,#'  ##    ##  '#,     ,#' ,#      #,         ##   #,  ,#        
             '#######'   ##     ##  '#######'  #'      '#     #####' # '####'        



                  #######################################################
                  #                        -***-                        #
                  #          Department of theory and spectroscopy      #
                  #    Directorship and core code : Frank Neese         #
                  #        Max Planck Institute fuer Kohlenforschung    #
                  #                Kaiser Wilhelm Platz 1               #
                  #                 D-45470 Muelheim/Ruhr               #
                  #                      Germany                        #
                  #                                                     #
                  #                  All rights reserved                #
                  #                        -***-                        #
                  #######################################################



                         Program Version 5.0.4 -  RELEASE  -

 With contributions from (in alphabetic order):
   Daniel Aravena         : Magnetic Suceptibility
   Michael Atanasov       : Ab Initio Ligand Field Theory (pilot matlab implementation)
   Alexander A. Auer      : GIAO ZORA, VPT2 properties, NMR spectrum
   Ute Becker             : Parallelization
   Giovanni Bistoni       : ED, misc. LED, open-shell LED, HFLD
   Martin Brehm           : Molecular dynamics
   Dmytro Bykov           : SCF Hessian
   Vijay G. Chilkuri      : MRCI spin determinant printing, contributions to CSF-ICE
   Dipayan Datta          : RHF DLPNO-CCSD density
   Achintya Kumar Dutta   : EOM-CC, STEOM-CC
   Dmitry Ganyushin       : Spin-Orbit,Spin-Spin,Magnetic field MRCI
   Miquel Garcia          : C-PCM and meta-GGA Hessian, CC/C-PCM, Gaussian charge scheme
   Yang Guo               : DLPNO-NEVPT2, F12-NEVPT2, CIM, IAO-localization
   Andreas Hansen         : Spin unrestricted coupled pair/coupled cluster methods
   Benjamin Helmich-Paris : MC-RPA, TRAH-SCF, COSX integrals
   Lee Huntington         : MR-EOM, pCC
   Robert Izsak           : Overlap fitted RIJCOSX, COSX-SCS-MP3, EOM
   Marcus Kettner         : VPT2
   Christian Kollmar      : KDIIS, OOCD, Brueckner-CCSD(T), CCSD density, CASPT2, CASPT2-K
   Simone Kossmann        : Meta GGA functionals, TD-DFT gradient, OOMP2, MP2 Hessian
   Martin Krupicka        : Initial AUTO-CI
   Lucas Lang             : DCDCAS
   Marvin Lechner         : AUTO-CI (C++ implementation), FIC-MRCC
   Dagmar Lenk            : GEPOL surface, SMD
   Dimitrios Liakos       : Extrapolation schemes; Compound Job, initial MDCI parallelization
   Dimitrios Manganas     : Further ROCIS development; embedding schemes
   Dimitrios Pantazis     : SARC Basis sets
   Anastasios Papadopoulos: AUTO-CI, single reference methods and gradients
   Taras Petrenko         : DFT Hessian,TD-DFT gradient, ASA, ECA, R-Raman, ABS, FL, XAS/XES, NRVS
   Peter Pinski           : DLPNO-MP2, DLPNO-MP2 Gradient
   Christoph Reimann      : Effective Core Potentials
   Marius Retegan         : Local ZFS, SOC
   Christoph Riplinger    : Optimizer, TS searches, QM/MM, DLPNO-CCSD(T), (RO)-DLPNO pert. Triples
   Tobias Risthaus        : Range-separated hybrids, TD-DFT gradient, RPA, STAB
   Michael Roemelt        : Original ROCIS implementation
   Masaaki Saitow         : Open-shell DLPNO-CCSD energy and density
   Barbara Sandhoefer     : DKH picture change effects
   Avijit Sen             : IP-ROCIS
   Kantharuban Sivalingam : CASSCF convergence, NEVPT2, FIC-MRCI
   Bernardo de Souza      : ESD, SOC TD-DFT
   Georgi Stoychev        : AutoAux, RI-MP2 NMR, DLPNO-MP2 response
   Willem Van den Heuvel  : Paramagnetic NMR
   Boris Wezisla          : Elementary symmetry handling
   Frank Wennmohs         : Technical directorship


 We gratefully acknowledge several colleagues who have allowed us to
 interface, adapt or use parts of their codes:
   Stefan Grimme, W. Hujo, H. Kruse, P. Pracht,  : VdW corrections, initial TS optimization,
                  C. Bannwarth, S. Ehlert          DFT functionals, gCP, sTDA/sTD-DF
   Ed Valeev, F. Pavosevic, A. Kumar             : LibInt (2-el integral package), F12 methods
   Garnet Chan, S. Sharma, J. Yang, R. Olivares  : DMRG
   Ulf Ekstrom                                   : XCFun DFT Library
   Mihaly Kallay                                 : mrcc  (arbitrary order and MRCC methods)
   Jiri Pittner, Ondrej Demel                    : Mk-CCSD
   Frank Weinhold                                : gennbo (NPA and NBO analysis)
   Christopher J. Cramer and Donald G. Truhlar   : smd solvation model
   Lars Goerigk                                  : TD-DFT with DH, B97 family of functionals
   V. Asgeirsson, H. Jonsson                     : NEB implementation
   FAccTs GmbH                                   : IRC, NEB, NEB-TS, DLPNO-Multilevel, CI-OPT
                                                   MM, QMMM, 2- and 3-layer-ONIOM, Crystal-QMMM,
                                                   LR-CPCM, SF, NACMEs, symmetry and pop. for TD-DFT,
                                                   nearIR, NL-DFT gradient (VV10), updates on ESD,
                                                   ML-optimized integration grids
   S Lehtola, MJT Oliveira, MAL Marques          : LibXC Library
   Liviu Ungur et al                             : ANISO software


 Your calculation uses the libint2 library for the computation of 2-el integrals
 For citations please refer to: http://libint.valeyev.net

 Your ORCA version has been built with support for libXC version: 5.1.0
 For citations please refer to: https://tddft.org/programs/libxc/

 This ORCA versions uses:
   CBLAS   interface :  Fast vector & matrix operations
   LAPACKE interface :  Fast linear algebra routines
   Shared memory     :  Shared parallel matrices


================================================================================

----- Orbital basis set information -----
Your calculation utilizes the basis: def2-QZVPP
   F. Weigend and R. Ahlrichs, Phys. Chem. Chem. Phys. 7, 3297 (2005).

----- AuxJ basis set information -----
Your calculation utilizes the auxiliary basis: def2/J
   F. Weigend, Phys. Chem. Chem. Phys. 8, 1057 (2006).

================================================================================
                                        WARNINGS
                       Please study these warnings very carefully!
================================================================================


INFO   : the flag for use of the SHARK integral package has been found!


WARNING: TRAH does not support fractional occupations!
  ===> : Turning TRAH off
================================================================================
                                       INPUT FILE
================================================================================
NAME = FOD.inp
|  1> !B3LYP DEF2-QZVPP
|  2> 
|  3> %scf
|  4> smearTemp 5000
|  5> convergence tight
|  6> end
|  7> 
|  8> * xyz 0 1
|  9>   C   -6.48685128277804      0.77688258612871      0.00000003669213
| 10>   C   -7.73381145284436      0.14568444861554     -0.00000001281082
| 11>   C   -7.78899585175133     -1.25047491000549      0.00000011071880
| 12>   C   -6.61307853819634     -2.00658591283547     -0.00000008160071
| 13>   C   -5.37350246533332     -1.36010178848815     -0.00000002916520
| 14>   C   -5.30222408891036      0.03530712324043      0.00000018545977
| 15>   H   -8.64519500876919      0.74587694922205     -0.00000005341796
| 16>   H   -8.76194889046812     -1.74856684410237      0.00000018644643
| 17>   H   -6.66266737522386     -3.09801741276813     -0.00000018313853
| 18>   H   -4.44947771966353     -1.94396554004229     -0.00000012119653
| 19>   H   -4.34031613114399      0.55064255938228      0.00000022091144
| 20>   Cl  -6.40746119491754      2.52416874165289     -0.00000025889883
| 21> **                         ****END OF INPUT****
================================================================================

                       ****************************
                       * Single Point Calculation *
                       ****************************

---------------------------------
CARTESIAN COORDINATES (ANGSTROEM)
---------------------------------
  C     -6.486851    0.776883    0.000000
  C     -7.733811    0.145684   -0.000000
  C     -7.788996   -1.250475    0.000000
  C     -6.613079   -2.006586   -0.000000
  C     -5.373502   -1.360102   -0.000000
  C     -5.302224    0.035307    0.000000
  H     -8.645195    0.745877   -0.000000
  H     -8.761949   -1.748567    0.000000
  H     -6.662667   -3.098017   -0.000000
  H     -4.449478   -1.943966   -0.000000
  H     -4.340316    0.550643    0.000000
  Cl    -6.407461    2.524169   -0.000000

----------------------------
CARTESIAN COORDINATES (A.U.)
----------------------------
  NO LB      ZA    FRAG     MASS         X           Y           Z
   0 C     6.0000    0    12.011  -12.258372    1.468095    0.000000
   1 C     6.0000    0    12.011  -14.614786    0.275304   -0.000000
   2 C     6.0000    0    12.011  -14.719069   -2.363055    0.000000
   3 C     6.0000    0    12.011  -12.496907   -3.791898   -0.000000
   4 C     6.0000    0    12.011  -10.154448   -2.570220   -0.000000
   5 C     6.0000    0    12.011  -10.019751    0.066721    0.000000
   6 H     1.0000    0     1.008  -16.337051    1.409503   -0.000000
   7 H     1.0000    0     1.008  -16.557684   -3.304312    0.000000
   8 H     1.0000    0     1.008  -12.590617   -5.854404   -0.000000
   9 H     1.0000    0     1.008   -8.408294   -3.673562   -0.000000
  10 H     1.0000    0     1.008   -8.202009    1.040564    0.000000
  11 Cl   17.0000    0    35.453  -12.108347    4.769988   -0.000000

--------------------------------
INTERNAL COORDINATES (ANGSTROEM)
--------------------------------
 C      0   0   0     0.000000000000     0.00000000     0.00000000
 C      1   0   0     1.397612519453     0.00000000     0.00000000
 C      2   1   0     1.397249538396   119.11154041     0.00000000
 C      3   2   1     1.398029104461   120.47739882     0.00000000
 C      4   3   2     1.398030959402   119.71543094     0.00000000
 C      5   4   3     1.397228198211   120.46784697     0.00000000
 H      2   1   3     1.091261207867   119.78500647   179.99999447
 H      3   2   1     1.093038512753   119.37313258   179.99999317
 H      4   3   2     1.092557445539   120.13945937   180.00001207
 H      5   4   3     1.093031843538   120.16874234   179.99999658
 H      6   5   4     1.091255025628   121.10403098   180.00000148
 Cl     1   2   3     1.749088818596   119.44956843   179.99999474

---------------------------
INTERNAL COORDINATES (A.U.)
---------------------------
 C      0   0   0     0.000000000000     0.00000000     0.00000000
 C      1   0   0     2.641104903106     0.00000000     0.00000000
 C      2   1   0     2.640418968316   119.11154041     0.00000000
 C      3   2   1     2.641892134682   120.47739882     0.00000000
 C      4   3   2     2.641895640014   119.71543094     0.00000000
 C      5   4   3     2.640378641212   120.46784697     0.00000000
 H      2   1   3     2.062184823440   119.78500647   179.99999447
 H      3   2   1     2.065543442931   119.37313258   179.99999317
 H      4   3   2     2.064634357646   120.13945937   180.00001207
 H      5   4   3     2.065530839943   120.16874234   179.99999658
 H      6   5   4     2.062173140702   121.10403098   180.00000148
 Cl     1   2   3     3.305298851050   119.44956843   179.99999474

---------------------
BASIS SET INFORMATION
---------------------
There are 3 groups of distinct atoms

 Group   1 Type C   : 15s8p3d2f1g contracted to 7s4p3d2f1g pattern {8211111/5111/111/11/1}
 Group   2 Type H   : 7s3p2d1f contracted to 4s3p2d1f pattern {4111/111/11/1}
 Group   3 Type Cl  : 20s14p4d2f1g contracted to 9s6p4d2f1g pattern {1031111111/821111/1111/11/1}

Atom   0C    basis set group =>   1
Atom   1C    basis set group =>   1
Atom   2C    basis set group =>   1
Atom   3C    basis set group =>   1
Atom   4C    basis set group =>   1
Atom   5C    basis set group =>   1
Atom   6H    basis set group =>   2
Atom   7H    basis set group =>   2
Atom   8H    basis set group =>   2
Atom   9H    basis set group =>   2
Atom  10H    basis set group =>   2
Atom  11Cl   basis set group =>   3
---------------------------------
AUXILIARY/J BASIS SET INFORMATION
---------------------------------
There are 3 groups of distinct atoms

 Group   1 Type C   : 12s5p4d2f1g contracted to 6s4p3d1f1g pattern {711111/2111/211/2/1}
 Group   2 Type H   : 5s2p1d contracted to 3s1p1d pattern {311/2/1}
 Group   3 Type Cl  : 14s5p5d2f1g contracted to 8s4p3d1f1g pattern {71111111/2111/311/2/1}

Atom   0C    basis set group =>   1
Atom   1C    basis set group =>   1
Atom   2C    basis set group =>   1
Atom   3C    basis set group =>   1
Atom   4C    basis set group =>   1
Atom   5C    basis set group =>   1
Atom   6H    basis set group =>   2
Atom   7H    basis set group =>   2
Atom   8H    basis set group =>   2
Atom   9H    basis set group =>   2
Atom  10H    basis set group =>   2
Atom  11Cl   basis set group =>   3
------------------------------------------------------------------------------
                           ORCA GTO INTEGRAL CALCULATION
                           -- RI-GTO INTEGRALS CHOSEN --
------------------------------------------------------------------------------
------------------------------------------------------------------------------
                   ___                                                        
                  /   \      - P O W E R E D   B Y -                         
                 /     \                                                     
                 |  |  |   _    _      __       _____    __    __             
                 |  |  |  | |  | |    /  \     |  _  \  |  |  /  |          
                  \  \/   | |  | |   /    \    | | | |  |  | /  /          
                 / \  \   | |__| |  /  /\  \   | |_| |  |  |/  /          
                |  |  |   |  __  | /  /__\  \  |    /   |      \           
                |  |  |   | |  | | |   __   |  |    \   |  |\   \          
                \     /   | |  | | |  |  |  |  | |\  \  |  | \   \       
                 \___/    |_|  |_| |__|  |__|  |_| \__\ |__|  \__/        
                                                                              
                      - O R C A' S   B I G   F R I E N D -                    
                                      &                                       
                       - I N T E G R A L  F E E D E R -                       
                                                                              
 v1 FN, 2020, v2 2021                                                         
------------------------------------------------------------------------------


Reading SHARK input file FOD.SHARKINP.tmp ... ok
----------------------
SHARK INTEGRAL PACKAGE
----------------------

Number of atoms                             ...     12
Number of basis functions                   ...    562
Number of shells                            ...    174
Maximum angular momentum                    ...      4
Integral batch strategy                     ... SHARK/LIBINT Hybrid
RI-J (if used) integral strategy            ... SPLIT-RIJ (Revised 2003 algorithm where possible)
Printlevel                                  ...      1
Contraction scheme used                     ... SEGMENTED contraction
Coulomb Range Separation                    ... NOT USED
Exchange Range Separation                   ... NOT USED
Finite Nucleus Model                        ... NOT USED
Auxiliary Coulomb fitting basis             ... AVAILABLE
   # of basis functions in Aux-J            ...    400
   # of shells in Aux-J                     ...    132
   Maximum angular momentum in Aux-J        ...      4
Auxiliary J/K fitting basis                 ... NOT available
Auxiliary Correlation fitting basis         ... NOT available
Auxiliary 'external' fitting basis          ... NOT available
Integral threshold                          ...     2.500000e-11
Primitive cut-off                           ...     2.500000e-12
Primitive pair pre-selection threshold      ...     2.500000e-12

Calculating pre-screening integrals         ... done (  1.9 sec) Dimension = 174
Organizing shell pair data                  ... done (  1.4 sec)
Shell pair information
Total number of shell pairs                 ...     15225
Shell pairs after pre-screening             ...     13304
Total number of primitive shell pairs       ...     39681
Primitive shell pairs kept                  ...     26672
          la=0 lb=0:   2045 shell pairs
          la=1 lb=0:   2800 shell pairs
          la=1 lb=1:    961 shell pairs
          la=2 lb=0:   1930 shell pairs
          la=2 lb=1:   1312 shell pairs
          la=2 lb=2:    468 shell pairs
          la=3 lb=0:   1164 shell pairs
          la=3 lb=1:    779 shell pairs
          la=3 lb=2:    551 shell pairs
          la=3 lb=3:    174 shell pairs
          la=4 lb=0:    458 shell pairs
          la=4 lb=1:    296 shell pairs
          la=4 lb=2:    210 shell pairs
          la=4 lb=3:    128 shell pairs
          la=4 lb=4:     28 shell pairs

Calculating one electron integrals          ... done (  0.4 sec)
Calculating RI/J V-Matrix + Cholesky decomp.... done (  0.0 sec)
Calculating Nuclear repulsion               ... done (  0.0 sec) ENN=    314.439010897161 Eh

SHARK setup successfully completed in   7.9 seconds

Maximum memory used throughout the entire GTOINT-calculation: 476.7 MB
-------------------------------------------------------------------------------
                                 ORCA SCF
-------------------------------------------------------------------------------

------------
SCF SETTINGS
------------
Hamiltonian:
 Density Functional     Method          .... DFT(GTOs)
 Exchange Functional    Exchange        .... B88
   X-Alpha parameter    XAlpha          ....  0.666667
   Becke's b parameter  XBeta           ....  0.004200
 Correlation Functional Correlation     .... LYP
 LDA part of GGA corr.  LDAOpt          .... VWN-5
 Gradients option       PostSCFGGA      .... off
 Hybrid DFT is turned on
   Fraction HF Exchange ScalHFX         ....  0.200000
   Scaling of DF-GGA-X  ScalDFX         ....  0.720000
   Scaling of DF-GGA-C  ScalDFC         ....  0.810000
   Scaling of DF-LDA-C  ScalLDAC        ....  1.000000
   Perturbative correction              ....  0.000000
   Density functional embedding theory  .... OFF
   NL short-range parameter             ....  4.800000
 RI-approximation to the Coulomb term is turned on
   Number of AuxJ basis functions       .... 400
   RIJ-COSX (HFX calculated with COS-X)).... on


General Settings:
 Integral files         IntName         .... FOD
 Hartree-Fock type      HFTyp           .... RHF
 Total Charge           Charge          ....    0
 Multiplicity           Mult            ....    1
 Number of Electrons    NEL             ....   58
 Basis Dimension        Dim             ....  562
 Nuclear Repulsion      ENuc            ....    314.4390108972 Eh

Convergence Acceleration:
 DIIS                   CNVDIIS         .... on
   Start iteration      DIISMaxIt       ....    12
   Startup error        DIISStart       ....  0.200000
   # of expansion vecs  DIISMaxEq       ....     5
   Bias factor          DIISBfac        ....   1.050
   Max. coefficient     DIISMaxC        ....  10.000
 Trust-Rad. Augm. Hess. CNVTRAH         .... off
 SOSCF                  CNVSOSCF        .... on
   Start iteration      SOSCFMaxIt      ....   150
   Startup grad/error   SOSCFStart      ....  0.003300
 Level Shifting         CNVShift        .... on
   Level shift para.    LevelShift      ....    0.2500
   Turn off err/grad.   ShiftErr        ....    0.0010
 Zerner damping         CNVZerner       .... off
 Static damping         CNVDamp         .... on
   Fraction old density DampFac         ....    0.7000
   Max. Damping (<1)    DampMax         ....    0.9800
   Min. Damping (>=0)   DampMin         ....    0.0000
   Turn off err/grad.   DampErr         ....    0.1000
 Fernandez-Rico         CNVRico         .... off

SCF Procedure:
 Maximum # iterations   MaxIter         ....   125
 SCF integral mode      SCFMode         .... Direct
   Integral package                     .... SHARK and LIBINT hybrid scheme
 Reset frequency        DirectResetFreq ....    20
 Integral Threshold     Thresh          ....  2.500e-11 Eh
 Primitive CutOff       TCut            ....  2.500e-12 Eh

Convergence Tolerance:
 Convergence Check Mode ConvCheckMode   .... Total+1el-Energy
 Convergence forced     ConvForced      .... 0
 Energy Change          TolE            ....  1.000e-08 Eh
 1-El. energy change                    ....  1.000e-05 Eh
 Orbital Gradient       TolG            ....  1.000e-05
 Orbital Rotation angle TolX            ....  1.000e-05
 DIIS Error             TolErr          ....  5.000e-07


Diagonalization of the overlap matrix:
Smallest eigenvalue                        ... 7.324e-06
Time for diagonalization                   ...    0.313 sec
Threshold for overlap eigenvalues          ... 1.000e-08
Number of eigenvalues below threshold      ... 0
Time for construction of square roots      ...    0.149 sec
Total time needed                          ...    0.464 sec

Time for model grid setup =    0.889 sec

------------------------------
INITIAL GUESS: MODEL POTENTIAL
------------------------------
Loading Hartree-Fock densities                     ... done
Calculating cut-offs                               ... done
Initializing the effective Hamiltonian             ... done
Setting up the integral package (SHARK)            ... done
Starting the Coulomb interaction                   ... done (   3.2 sec)
Reading the grid                                   ... done
Mapping shells                                     ... done
Starting the XC term evaluation                    ... done (   4.4 sec)
  promolecular density results
     # of electrons  =     57.997187881
     EX              =    -59.836600814
     EC              =     -2.068094925
     EX+EC           =    -61.904695739
Transforming the Hamiltonian                       ... done (   0.1 sec)
Diagonalizing the Hamiltonian                      ... done (   0.2 sec)
Back transforming the eigenvectors                 ... done (   0.0 sec)
Now organizing SCF variables                       ... done
                      ------------------
                      INITIAL GUESS DONE (   8.8 sec)
                      ------------------
-------------------
DFT GRID GENERATION
-------------------

General Integration Accuracy     IntAcc      ... 4.388
Radial Grid Type                 RadialGrid  ... OptM3 with GC (2021)
Angular Grid (max. ang.)         AngularGrid ... 4 (Lebedev-302)
Angular grid pruning method      GridPruning ... 4 (adaptive)
Weight generation scheme         WeightScheme... Becke
Basis function cutoff            BFCut       ... 1.0000e-11
Integration weight cutoff        WCut        ... 1.0000e-14
Angular grids for H and He will be reduced by one unit
Partially contracted basis set               ... off
Rotationally invariant grid construction     ... off

Total number of grid points                  ...    61160
Total number of batches                      ...      961
Average number of points per batch           ...       63
Average number of grid points per atom       ...     5097
Time for grid setup =    3.282 sec

--------------------
COSX GRID GENERATION
--------------------

GRIDX 1
-------
General Integration Accuracy     IntAcc      ... 3.816
Radial Grid Type                 RadialGrid  ... OptM3 with GC (2021)
Angular Grid (max. ang.)         AngularGrid ... 1 (Lebedev-50)
Angular grid pruning method      GridPruning ... 4 (adaptive)
Weight generation scheme         WeightScheme... Becke
Basis function cutoff            BFCut       ... 1.0000e-11
Integration weight cutoff        WCut        ... 1.0000e-14
Angular grids for H and He will be reduced by one unit
Partially contracted basis set               ... on
Rotationally invariant grid construction     ... off

Total number of grid points                  ...     7732
Total number of batches                      ...      127
Average number of points per batch           ...       60
Average number of grid points per atom       ...      644
UseSFitting                                  ... on

GRIDX 2
-------
General Integration Accuracy     IntAcc      ... 4.020
Radial Grid Type                 RadialGrid  ... OptM3 with GC (2021)
Angular Grid (max. ang.)         AngularGrid ... 2 (Lebedev-110)
Angular grid pruning method      GridPruning ... 4 (adaptive)
Weight generation scheme         WeightScheme... Becke
Basis function cutoff            BFCut       ... 1.0000e-11
Integration weight cutoff        WCut        ... 1.0000e-14
Angular grids for H and He will be reduced by one unit
Partially contracted basis set               ... on
Rotationally invariant grid construction     ... off

Total number of grid points                  ...    18530
Total number of batches                      ...      294
Average number of points per batch           ...       63
Average number of grid points per atom       ...     1544
UseSFitting                                  ... on

GRIDX 3
-------
General Integration Accuracy     IntAcc      ... 4.338
Radial Grid Type                 RadialGrid  ... OptM3 with GC (2021)
Angular Grid (max. ang.)         AngularGrid ... 3 (Lebedev-194)
Angular grid pruning method      GridPruning ... 4 (adaptive)
Weight generation scheme         WeightScheme... Becke
Basis function cutoff            BFCut       ... 1.0000e-11
Integration weight cutoff        WCut        ... 1.0000e-14
Angular grids for H and He will be reduced by one unit
Partially contracted basis set               ... on
Rotationally invariant grid construction     ... off

Total number of grid points                  ...    40820
Total number of batches                      ...      645
Average number of points per batch           ...       63
Average number of grid points per atom       ...     3402
UseSFitting                                  ... on

Time for X-Grid setup             =    7.430 sec


Warning: Fractional occupation numbers cannot be used with CNVRico or SOSCF

--------------
SCF ITERATIONS
--------------
ITER       Energy         Delta-E        Max-DP      RMS-DP      [F,P]     Damp
               ***  Starting incremental Fock matrix formation  ***
  0   -691.6170486529   0.000000000000 0.01832879  0.00027507  0.1569350 0.7000
  1   -691.6910921797  -0.074043526826 0.01168553  0.00020632  0.0762994 0.7000
                               ***Turning on DIIS***
  2   -691.7214727727  -0.030380592991 0.02042268  0.00036801  0.0329987 0.0000
  3   -691.7641946354  -0.042721862752 0.00999821  0.00014777  0.0467809 0.0000
  4   -691.7765557325  -0.012361097048 0.00467693  0.00006266  0.0066590 0.0000
  5   -691.7770695261  -0.000513793665 0.00104580  0.00002097  0.0019129 0.0000
  6   -691.7771003237  -0.000030797534 0.00059681  0.00001065  0.0012027 0.0000
  7   -691.7771049097  -0.000004586062 0.00062580  0.00000912  0.0003749 0.0000
               *** Restarting incremental Fock matrix formation ***
                                   *** Resetting DIIS ***
  8   -691.7771821787  -0.000077268933 0.00022661  0.00000447  0.0001840 0.0000
  9   -691.7771820533   0.000000125388 0.00006830  0.00000090  0.0002224 0.0000
 10   -691.7771823256  -0.000000272351 0.00001670  0.00000022  0.0000426 0.0000
 11   -691.7771823414  -0.000000015715 0.00001210  0.00000017  0.0000185 0.0000
 12   -691.7771823361   0.000000005214 0.00003270  0.00000037  0.0000057 0.0000
                            ***DIIS convergence achieved***
Fermi smearing:E(HOMO(Eh)) = -0.252275 MUE = -0.143885 gap=   6.082 eV

N_FOD =  0.005714

               *****************************************************
               *                     SUCCESS                       *
               *           SCF CONVERGED AFTER  13 CYCLES          *
               *****************************************************

Fermi smearing:E(HOMO(Eh)) = -0.252275 MUE = -0.143885 gap=   6.082 eV

N_FOD =  0.005714
Old exchange energy                            =    -12.071455038 Eh
New exchange energy                            =    -12.071454501 Eh
Exchange energy change after final integration =      0.000000537 Eh
Total energy after final integration           =   -691.777181803 Eh
Final COS-X integration done in                =   286.870 sec

----------------
TOTAL SCF ENERGY
----------------

Total Energy       :         -691.77718180 Eh          -18824.21412 eV

Components:
Nuclear Repulsion  :          314.43901090 Eh            8556.32048 eV
Electronic Energy  :        -1006.21619270 Eh          -27380.53460 eV
One Electron Energy:        -1570.52651909 Eh          -42736.19925 eV
Two Electron Energy:          564.31032639 Eh           15355.66465 eV
Max COSX asymmetry :            0.00000646 Eh               0.00018 eV

Virial components:
Potential Energy   :        -1381.62676847 Eh          -37595.97571 eV
Kinetic Energy     :          689.84958667 Eh           18771.76159 eV
Virial Ratio       :            2.00279423


DFT components:
N(Alpha)           :       29.000015061053 electrons
N(Beta)            :       29.000015061053 electrons
N(Total)           :       58.000030122105 electrons
E(X)               :      -47.944318995501 Eh       
E(C)               :       -2.438662213395 Eh       
E(XC)              :      -50.382981208896 Eh       
DFET-embed. en.    :        0.000000000000 Eh       

---------------
SCF CONVERGENCE
---------------

  Last Energy change         ...   -4.6748e-09  Tolerance :   1.0000e-08
  Last MAX-Density change    ...    0.0000e+00  Tolerance :   1.0000e-07
  Last RMS-Density change    ...    0.0000e+00  Tolerance :   5.0000e-09
  Last DIIS Error            ...    7.7301e-07  Tolerance :   5.0000e-07

             **** THE GBW FILE WAS UPDATED (FOD.gbw) ****
             **** DENSITY FOD.scfp WAS UPDATED ****
             **** ENERGY FILE WAS UPDATED (FOD.en.tmp) ****
             **** THE GBW FILE WAS UPDATED (FOD.gbw) ****
             **** DENSITY FOD.scfp WAS UPDATED ****
----------------
ORBITAL ENERGIES
----------------

  NO   OCC          E(Eh)            E(eV) 
   0   2.0000    -101.530088     -2762.7742 
   1   2.0000     -10.243630      -278.7433 
   2   2.0000     -10.194416      -277.4042 
   3   2.0000     -10.194403      -277.4038 
   4   2.0000     -10.193536      -277.3802 
   5   2.0000     -10.193495      -277.3791 
   6   2.0000     -10.189974      -277.2833 
   7   2.0000      -9.460898      -257.4441 
   8   2.0000      -7.222965      -196.5469 
   9   2.0000      -7.214696      -196.3219 
  10   2.0000      -7.214382      -196.3133 
  11   2.0000      -0.892600       -24.2889 
  12   2.0000      -0.838428       -22.8148 
  13   2.0000      -0.761082       -20.7101 
  14   2.0000      -0.736663       -20.0456 
  15   2.0000      -0.621956       -16.9243 
  16   2.0000      -0.603796       -16.4301 
  17   2.0000      -0.528156       -14.3719 
  18   2.0000      -0.472526       -12.8581 
  19   2.0000      -0.470739       -12.8095 
  20   2.0000      -0.436609       -11.8807 
  21   2.0000      -0.434611       -11.8264 
  22   2.0000      -0.400499       -10.8981 
  23   2.0000      -0.367550       -10.0015 
  24   2.0000      -0.365333        -9.9412 
  25   2.0000      -0.338418        -9.2088 
  26   2.0000      -0.315320        -8.5803 
  27   1.9993      -0.270384        -7.3575 
  28   1.9979      -0.252275        -6.8647 
  29   0.0014      -0.028782        -0.7832 
  30   0.0013      -0.027560        -0.7499 
  31   0.0001       0.009231         0.2512 
  32   0.0000       0.036505         0.9934 
  33   0.0000       0.043092         1.1726 
  34   0.0000       0.052655         1.4328 
  35   0.0000       0.077164         2.0997 
  36   0.0000       0.080287         2.1847 
  37   0.0000       0.105664         2.8753 
  38   0.0000       0.108618         2.9556 
  39   0.0000       0.121959         3.3187 
  40   0.0000       0.122840         3.3427 
  41   0.0000       0.144915         3.9433 
  42   0.0000       0.148778         4.0485 
  43   0.0000       0.164174         4.4674 
  44   0.0000       0.165718         4.5094 
  45   0.0000       0.168950         4.5974 
  46   0.0000       0.189420         5.1544 
  47   0.0000       0.207727         5.6525 
  48   0.0000       0.213029         5.7968 
  49   0.0000       0.214064         5.8250 
  50   0.0000       0.220827         6.0090 
  51   0.0000       0.242777         6.6063 
  52   0.0000       0.246196         6.6993 
  53   0.0000       0.258906         7.0452 
  54   0.0000       0.266058         7.2398 
  55   0.0000       0.267532         7.2799 
  56   0.0000       0.277227         7.5437 
  57   0.0000       0.280615         7.6359 
  58   0.0000       0.292148         7.9498 
  59   0.0000       0.303381         8.2554 
  60   0.0000       0.307080         8.3561 
  61   0.0000       0.325041         8.8448 
  62   0.0000       0.332724         9.0539 
  63   0.0000       0.336067         9.1449 
  64   0.0000       0.337114         9.1733 
  65   0.0000       0.371763        10.1162 
  66   0.0000       0.388189        10.5632 
  67   0.0000       0.394006        10.7215 
  68   0.0000       0.414527        11.2799 
  69   0.0000       0.415322        11.3015 
  70   0.0000       0.439923        11.9709 
  71   0.0000       0.441384        12.0107 
  72   0.0000       0.458945        12.4885 
  73   0.0000       0.461197        12.5498 
  74   0.0000       0.479828        13.0568 
  75   0.0000       0.479874        13.0580 
  76   0.0000       0.500890        13.6299 
  77   0.0000       0.514042        13.9878 
  78   0.0000       0.522187        14.2094 
  79   0.0000       0.536040        14.5864 
  80   0.0000       0.537764        14.6333 
  81   0.0000       0.559644        15.2287 
  82   0.0000       0.578991        15.7551 
  83   0.0000       0.584804        15.9133 
  84   0.0000       0.609563        16.5871 
  85   0.0000       0.612864        16.6769 
  86   0.0000       0.627746        17.0819 
  87   0.0000       0.644967        17.5504 
  88   0.0000       0.655334        17.8325 
  89   0.0000       0.673668        18.3314 
  90   0.0000       0.688978        18.7481 
  91   0.0000       0.704874        19.1806 
  92   0.0000       0.710071        19.3220 
  93   0.0000       0.720186        19.5973 
  94   0.0000       0.736627        20.0446 
  95   0.0000       0.743178        20.2229 
  96   0.0000       0.746490        20.3130 
  97   0.0000       0.751390        20.4464 
  98   0.0000       0.754601        20.5337 
  99   0.0000       0.764457        20.8019 
 100   0.0000       0.795143        21.6370 
 101   0.0000       0.803761        21.8715 
 102   0.0000       0.819378        22.2964 
 103   0.0000       0.824249        22.4289 
 104   0.0000       0.851318        23.1655 
 105   0.0000       0.871104        23.7039 
 106   0.0000       0.880220        23.9520 
 107   0.0000       0.881880        23.9972 
 108   0.0000       0.892364        24.2825 
 109   0.0000       0.895962        24.3804 
 110   0.0000       0.898613        24.4525 
 111   0.0000       0.899440        24.4750 
 112   0.0000       0.915007        24.8986 
 113   0.0000       0.950107        25.8537 
 114   0.0000       0.984669        26.7942 
 115   0.0000       0.987853        26.8809 
 116   0.0000       0.994990        27.0750 
 117   0.0000       0.997744        27.1500 
 118   0.0000       1.002068        27.2677 
 119   0.0000       1.019941        27.7540 
 120   0.0000       1.035429        28.1754 
 121   0.0000       1.039236        28.2790 
 122   0.0000       1.065117        28.9833 
 123   0.0000       1.074868        29.2486 
 124   0.0000       1.106280        30.1034 
 125   0.0000       1.114786        30.3349 
 126   0.0000       1.115505        30.3544 
 127   0.0000       1.120615        30.4935 
 128   0.0000       1.125179        30.6177 
 129   0.0000       1.144648        31.1475 
 130   0.0000       1.149958        31.2920 
 131   0.0000       1.150102        31.2959 
 132   0.0000       1.193569        32.4787 
 133   0.0000       1.198722        32.6189 
 134   0.0000       1.215083        33.0641 
 135   0.0000       1.229355        33.4524 
 136   0.0000       1.232715        33.5439 
 137   0.0000       1.240282        33.7498 
 138   0.0000       1.266680        34.4681 
 139   0.0000       1.270239        34.5650 
 140   0.0000       1.283443        34.9243 
 141   0.0000       1.290947        35.1285 
 142   0.0000       1.326923        36.1074 
 143   0.0000       1.333899        36.2972 
 144   0.0000       1.349620        36.7250 
 145   0.0000       1.414270        38.4843 
 146   0.0000       1.434440        39.0331 
 147   0.0000       1.445391        39.3311 
 148   0.0000       1.470707        40.0200 
 149   0.0000       1.515929        41.2505 
 150   0.0000       1.518493        41.3203 
 151   0.0000       1.523789        41.4644 
 152   0.0000       1.538022        41.8517 
 153   0.0000       1.552895        42.2564 
 154   0.0000       1.575292        42.8659 
 155   0.0000       1.597428        43.4682 
 156   0.0000       1.614051        43.9205 
 157   0.0000       1.631117        44.3849 
 158   0.0000       1.643837        44.7311 
 159   0.0000       1.648437        44.8563 
 160   0.0000       1.661620        45.2150 
 161   0.0000       1.668470        45.4014 
 162   0.0000       1.698147        46.2089 
 163   0.0000       1.739538        47.3352 
 164   0.0000       1.752550        47.6893 
 165   0.0000       1.755051        47.7574 
 166   0.0000       1.774651        48.2907 
 167   0.0000       1.786522        48.6137 
 168   0.0000       1.797745        48.9191 
 169   0.0000       1.808264        49.2054 
 170   0.0000       1.810006        49.2528 
 171   0.0000       1.829436        49.7815 
 172   0.0000       1.832420        49.8627 
 173   0.0000       1.864720        50.7416 
 174   0.0000       1.875568        51.0368 
 175   0.0000       1.910303        51.9820 
 176   0.0000       1.930839        52.5408 
 177   0.0000       1.937316        52.7170 
 178   0.0000       1.942489        52.8578 
 179   0.0000       1.954316        53.1796 
 180   0.0000       1.969026        53.5799 
 181   0.0000       1.989373        54.1336 
 182   0.0000       1.991056        54.1794 
 183   0.0000       2.004210        54.5373 
 184   0.0000       2.013576        54.7922 
 185   0.0000       2.029969        55.2383 
 186   0.0000       2.030333        55.2482 
 187   0.0000       2.030525        55.2534 
 188   0.0000       2.046438        55.6864 
 189   0.0000       2.077609        56.5346 
 190   0.0000       2.105901        57.3045 
 191   0.0000       2.118388        57.6443 
 192   0.0000       2.144680        58.3597 
 193   0.0000       2.147522        58.4370 
 194   0.0000       2.169201        59.0270 
 195   0.0000       2.172071        59.1050 
 196   0.0000       2.181612        59.3647 
 197   0.0000       2.193161        59.6789 
 198   0.0000       2.207688        60.0742 
 199   0.0000       2.224501        60.5317 
 200   0.0000       2.230911        60.7062 
 201   0.0000       2.251317        61.2615 
 202   0.0000       2.269915        61.7675 
 203   0.0000       2.273209        61.8572 
 204   0.0000       2.301909        62.6381 
 205   0.0000       2.318153        63.0801 
 206   0.0000       2.318411        63.0872 
 207   0.0000       2.359352        64.2012 
 208   0.0000       2.379134        64.7395 
 209   0.0000       2.383401        64.8556 
 210   0.0000       2.398064        65.2546 
 211   0.0000       2.425604        66.0040 
 212   0.0000       2.426974        66.0413 
 213   0.0000       2.434464        66.2451 
 214   0.0000       2.435666        66.2778 
 215   0.0000       2.446849        66.5822 
 216   0.0000       2.471352        67.2489 
 217   0.0000       2.481418        67.5228 
 218   0.0000       2.489607        67.7457 
 219   0.0000       2.502260        68.0900 
 220   0.0000       2.509685        68.2920 
 221   0.0000       2.540213        69.1227 
 222   0.0000       2.549484        69.3750 
 223   0.0000       2.552438        69.4554 
 224   0.0000       2.580095        70.2080 
 225   0.0000       2.605438        70.8976 
 226   0.0000       2.608085        70.9696 
 227   0.0000       2.616161        71.1893 
 228   0.0000       2.623450        71.3877 
 229   0.0000       2.636872        71.7529 
 230   0.0000       2.647105        72.0314 
 231   0.0000       2.659108        72.3580 
 232   0.0000       2.679555        72.9144 
 233   0.0000       2.684584        73.0513 
 234   0.0000       2.691777        73.2470 
 235   0.0000       2.721998        74.0693 
 236   0.0000       2.735653        74.4409 
 237   0.0000       2.742085        74.6159 
 238   0.0000       2.746266        74.7297 
 239   0.0000       2.766081        75.2689 
 240   0.0000       2.767725        75.3136 
 241   0.0000       2.795451        76.0681 
 242   0.0000       2.809877        76.4606 
 243   0.0000       2.837168        77.2033 
 244   0.0000       2.841573        77.3231 
 245   0.0000       2.896791        78.8257 
 246   0.0000       2.931478        79.7696 
 247   0.0000       2.935806        79.8873 
 248   0.0000       2.983041        81.1727 
 249   0.0000       3.014395        82.0259 
 250   0.0000       3.022202        82.2383 
 251   0.0000       3.047534        82.9276 
 252   0.0000       3.071446        83.5783 
 253   0.0000       3.089376        84.0662 
 254   0.0000       3.099516        84.3421 
 255   0.0000       3.129406        85.1555 
 256   0.0000       3.156114        85.8822 
 257   0.0000       3.178002        86.4778 
 258   0.0000       3.229475        87.8785 
 259   0.0000       3.231204        87.9255 
 260   0.0000       3.252672        88.5097 
 261   0.0000       3.293954        89.6330 
 262   0.0000       3.314535        90.1931 
 263   0.0000       3.338607        90.8481 
 264   0.0000       3.342422        90.9519 
 265   0.0000       3.348057        91.1052 
 266   0.0000       3.357841        91.3715 
 267   0.0000       3.360147        91.4342 
 268   0.0000       3.396149        92.4139 
 269   0.0000       3.421034        93.0911 
 270   0.0000       3.432493        93.4029 
 271   0.0000       3.442414        93.6728 
 272   0.0000       3.453857        93.9842 
 273   0.0000       3.476978        94.6134 
 274   0.0000       3.489007        94.9407 
 275   0.0000       3.494323        95.0854 
 276   0.0000       3.498415        95.1967 
 277   0.0000       3.547014        96.5191 
 278   0.0000       3.555042        96.7376 
 279   0.0000       3.594111        97.8007 
 280   0.0000       3.600644        97.9785 
 281   0.0000       3.604589        98.0859 
 282   0.0000       3.630831        98.7999 
 283   0.0000       3.632906        98.8564 
 284   0.0000       3.645129        99.1890 
 285   0.0000       3.690138       100.4138 
 286   0.0000       3.710633       100.9715 
 287   0.0000       3.730102       101.5012 
 288   0.0000       3.777116       102.7805 
 289   0.0000       3.814194       103.7895 
 290   0.0000       3.849727       104.7564 
 291   0.0000       3.859298       105.0168 
 292   0.0000       3.911624       106.4407 
 293   0.0000       3.917346       106.5964 
 294   0.0000       3.926726       106.8516 
 295   0.0000       3.944680       107.3402 
 296   0.0000       3.958406       107.7137 
 297   0.0000       4.000962       108.8717 
 298   0.0000       4.015913       109.2785 
 299   0.0000       4.031746       109.7094 
 300   0.0000       4.061704       110.5246 
 301   0.0000       4.064008       110.5873 
 302   0.0000       4.093843       111.3991 
 303   0.0000       4.100581       111.5825 
 304   0.0000       4.128925       112.3538 
 305   0.0000       4.159654       113.1900 
 306   0.0000       4.165116       113.3386 
 307   0.0000       4.219119       114.8081 
 308   0.0000       4.283802       116.5682 
 309   0.0000       4.298985       116.9813 
 310   0.0000       4.343580       118.1948 
 311   0.0000       4.398466       119.6883 
 312   0.0000       4.482250       121.9682 
 313   0.0000       4.483221       121.9946 
 314   0.0000       4.562124       124.1417 
 315   0.0000       4.563944       124.1912 
 316   0.0000       4.573167       124.4422 
 317   0.0000       4.592843       124.9776 
 318   0.0000       4.684703       127.4772 
 319   0.0000       4.733767       128.8123 
 320   0.0000       4.750048       129.2554 
 321   0.0000       4.757159       129.4489 
 322   0.0000       4.821168       131.1906 
 323   0.0000       4.862168       132.3063 
 324   0.0000       4.870429       132.5311 
 325   0.0000       4.876776       132.7038 
 326   0.0000       4.908345       133.5629 
 327   0.0000       5.002453       136.1237 
 328   0.0000       5.005509       136.2068 
 329   0.0000       5.028251       136.8257 
 330   0.0000       5.033727       136.9747 
 331   0.0000       5.067661       137.8981 
 332   0.0000       5.088115       138.4546 
 333   0.0000       5.105384       138.9245 
 334   0.0000       5.113574       139.1474 
 335   0.0000       5.154339       140.2567 
 336   0.0000       5.205626       141.6523 
 337   0.0000       5.210142       141.7752 
 338   0.0000       5.221807       142.0926 
 339   0.0000       5.268388       143.3601 
 340   0.0000       5.295084       144.0866 
 341   0.0000       5.321147       144.7958 
 342   0.0000       5.340499       145.3224 
 343   0.0000       5.363298       145.9428 
 344   0.0000       5.363668       145.9528 
 345   0.0000       5.367832       146.0661 
 346   0.0000       5.368470       146.0835 
 347   0.0000       5.437289       147.9562 
 348   0.0000       5.443372       148.1217 
 349   0.0000       5.470677       148.8647 
 350   0.0000       5.511288       149.9698 
 351   0.0000       5.521311       150.2425 
 352   0.0000       5.523369       150.2985 
 353   0.0000       5.528320       150.4332 
 354   0.0000       5.628959       153.1718 
 355   0.0000       5.632986       153.2813 
 356   0.0000       5.647001       153.6627 
 357   0.0000       5.653054       153.8274 
 358   0.0000       5.702094       155.1619 
 359   0.0000       5.715559       155.5283 
 360   0.0000       5.734484       156.0432 
 361   0.0000       5.781206       157.3146 
 362   0.0000       5.805812       157.9842 
 363   0.0000       5.833128       158.7275 
 364   0.0000       5.871929       159.7833 
 365   0.0000       5.888799       160.2424 
 366   0.0000       5.891262       160.3094 
 367   0.0000       5.893710       160.3760 
 368   0.0000       5.895787       160.4325 
 369   0.0000       5.930106       161.3664 
 370   0.0000       5.951463       161.9475 
 371   0.0000       5.980814       162.7462 
 372   0.0000       6.008970       163.5124 
 373   0.0000       6.013479       163.6351 
 374   0.0000       6.037220       164.2811 
 375   0.0000       6.050015       164.6293 
 376   0.0000       6.050273       164.6363 
 377   0.0000       6.064890       165.0340 
 378   0.0000       6.079709       165.4373 
 379   0.0000       6.086972       165.6349 
 380   0.0000       6.087721       165.6553 
 381   0.0000       6.103894       166.0954 
 382   0.0000       6.107051       166.1813 
 383   0.0000       6.138438       167.0354 
 384   0.0000       6.163410       167.7149 
 385   0.0000       6.178452       168.1242 
 386   0.0000       6.199182       168.6883 
 387   0.0000       6.221268       169.2893 
 388   0.0000       6.230783       169.5482 
 389   0.0000       6.246590       169.9784 
 390   0.0000       6.249284       170.0517 
 391   0.0000       6.250275       170.0786 
 392   0.0000       6.278877       170.8569 
 393   0.0000       6.279990       170.8872 
 394   0.0000       6.301274       171.4664 
 395   0.0000       6.306064       171.5967 
 396   0.0000       6.337784       172.4599 
 397   0.0000       6.363240       173.1526 
 398   0.0000       6.375071       173.4745 
 399   0.0000       6.375884       173.4966 
 400   0.0000       6.383401       173.7012 
 401   0.0000       6.417632       174.6326 
 402   0.0000       6.455033       175.6504 
 403   0.0000       6.486857       176.5164 
 404   0.0000       6.520332       177.4273 
 405   0.0000       6.531639       177.7349 
 406   0.0000       6.537527       177.8951 
 407   0.0000       6.549178       178.2122 
 408   0.0000       6.582308       179.1137 
 409   0.0000       6.587113       179.2445 
 410   0.0000       6.587265       179.2486 
 411   0.0000       6.615952       180.0292 
 412   0.0000       6.633662       180.5111 
 413   0.0000       6.660121       181.2311 
 414   0.0000       6.663748       181.3298 
 415   0.0000       6.669844       181.4957 
 416   0.0000       6.684677       181.8993 
 417   0.0000       6.714351       182.7068 
 418   0.0000       6.718875       182.8299 
 419   0.0000       6.731705       183.1790 
 420   0.0000       6.765766       184.1059 
 421   0.0000       6.766882       184.1362 
 422   0.0000       6.778304       184.4470 
 423   0.0000       6.870881       186.9662 
 424   0.0000       6.904019       187.8679 
 425   0.0000       6.927013       188.4936 
 426   0.0000       6.929878       188.5716 
 427   0.0000       6.934960       188.7099 
 428   0.0000       6.964701       189.5191 
 429   0.0000       7.012707       190.8255 
 430   0.0000       7.015313       190.8964 
 431   0.0000       7.076352       192.5573 
 432   0.0000       7.097808       193.1412 
 433   0.0000       7.134349       194.1355 
 434   0.0000       7.144809       194.4201 
 435   0.0000       7.145795       194.4470 
 436   0.0000       7.258612       197.5169 
 437   0.0000       7.298441       198.6007 
 438   0.0000       7.313019       198.9974 
 439   0.0000       7.367070       200.4682 
 440   0.0000       7.369400       200.5316 
 441   0.0000       7.381544       200.8620 
 442   0.0000       7.403738       201.4660 
 443   0.0000       7.413602       201.7344 
 444   0.0000       7.432888       202.2592 
 445   0.0000       7.445853       202.6120 
 446   0.0000       7.466084       203.1625 
 447   0.0000       7.471073       203.2982 
 448   0.0000       7.504883       204.2183 
 449   0.0000       7.546790       205.3586 
 450   0.0000       7.566305       205.8896 
 451   0.0000       7.574486       206.1122 
 452   0.0000       7.617077       207.2712 
 453   0.0000       7.658200       208.3902 
 454   0.0000       7.672336       208.7749 
 455   0.0000       7.687192       209.1791 
 456   0.0000       7.726488       210.2484 
 457   0.0000       7.788365       211.9322 
 458   0.0000       7.810978       212.5475 
 459   0.0000       7.830776       213.0863 
 460   0.0000       7.858372       213.8372 
 461   0.0000       7.916678       215.4238 
 462   0.0000       7.917036       215.4335 
 463   0.0000       7.938525       216.0182 
 464   0.0000       7.948771       216.2971 
 465   0.0000       7.996399       217.5931 
 466   0.0000       8.074836       219.7275 
 467   0.0000       8.084511       219.9907 
 468   0.0000       8.100684       220.4308 
 469   0.0000       8.106897       220.5999 
 470   0.0000       8.135679       221.3831 
 471   0.0000       8.154239       221.8881 
 472   0.0000       8.157841       221.9861 
 473   0.0000       8.170789       222.3385 
 474   0.0000       8.195891       223.0215 
 475   0.0000       8.235601       224.1021 
 476   0.0000       8.238408       224.1785 
 477   0.0000       8.256171       224.6618 
 478   0.0000       8.272907       225.1172 
 479   0.0000       8.282293       225.3727 
 480   0.0000       8.295465       225.7311 
 481   0.0000       8.297780       225.7941 
 482   0.0000       8.331224       226.7041 
 483   0.0000       8.360286       227.4949 
 484   0.0000       8.361254       227.5213 
 485   0.0000       8.380531       228.0459 
 486   0.0000       8.383778       228.1342 
 487   0.0000       8.420847       229.1429 
 488   0.0000       8.438355       229.6193 
 489   0.0000       8.499359       231.2793 
 490   0.0000       8.514300       231.6859 
 491   0.0000       8.541430       232.4241 
 492   0.0000       8.573871       233.3069 
 493   0.0000       8.631955       234.8874 
 494   0.0000       8.638220       235.0579 
 495   0.0000       8.661085       235.6801 
 496   0.0000       8.683103       236.2793 
 497   0.0000       8.726081       237.4487 
 498   0.0000       8.727034       237.4747 
 499   0.0000       8.735806       237.7134 
 500   0.0000       8.851582       240.8638 
 501   0.0000       8.855494       240.9702 
 502   0.0000       8.877630       241.5726 
 503   0.0000       8.880450       241.6493 
 504   0.0000       8.940607       243.2863 
 505   0.0000       8.972092       244.1430 
 506   0.0000       9.067663       246.7437 
 507   0.0000       9.300427       253.0775 
 508   0.0000       9.380294       255.2508 
 509   0.0000       9.445208       257.0172 
 510   0.0000       9.507186       258.7037 
 511   0.0000       9.594105       261.0689 
 512   0.0000       9.653625       262.6885 
 513   0.0000       9.657541       262.7951 
 514   0.0000       9.703673       264.0504 
 515   0.0000       9.749891       265.3080 
 516   0.0000       9.764770       265.7129 
 517   0.0000       9.796049       266.5640 
 518   0.0000       9.830185       267.4929 
 519   0.0000       9.954673       270.8804 
 520   0.0000       9.982018       271.6245 
 521   0.0000      10.002168       272.1728 
 522   0.0000      10.031925       272.9825 
 523   0.0000      10.062117       273.8041 
 524   0.0000      10.195304       277.4283 
 525   0.0000      10.220199       278.1058 
 526   0.0000      10.231869       278.4233 
 527   0.0000      10.263175       279.2752 
 528   0.0000      10.477621       285.1106 
 529   0.0000      10.618221       288.9365 
 530   0.0000      10.634948       289.3916 
 531   0.0000      10.654116       289.9132 
 532   0.0000      10.681217       290.6507 
 533   0.0000      10.714567       291.5582 
 534   0.0000      10.802662       293.9554 
 535   0.0000      10.851145       295.2747 
 536   0.0000      11.014846       299.7292 
 537   0.0000      11.237707       305.7935 
 538   0.0000      11.599799       315.6466 
 539   0.0000      12.043080       327.7089 
 540   0.0000      12.549112       341.4787 
 541   0.0000      12.654642       344.3503 
 542   0.0000      12.813225       348.6656 
 543   0.0000      13.095252       356.3399 
 544   0.0000      27.814933       756.8828 
 545   0.0000      28.291972       769.8637 
 546   0.0000      28.471118       774.7385 
 547   0.0000      28.778594       783.1054 
 548   0.0000      28.951101       787.7995 
 549   0.0000      29.067712       790.9726 
 550   0.0000      29.266331       796.3773 
 551   0.0000      41.688145      1134.3921 
 552   0.0000      41.700688      1134.7334 
 553   0.0000      41.812691      1137.7812 
 554   0.0000      98.523729      2680.9670 
 555   0.0000     146.882399      3996.8733 
 556   0.0000     147.340386      4009.3357 
 557   0.0000     147.512469      4014.0184 
 558   0.0000     147.806992      4022.0327 
 559   0.0000     147.953825      4026.0283 
 560   0.0000     148.287537      4035.1090 
 561   0.0000     525.888474     14310.1529 

                    ********************************
                    * MULLIKEN POPULATION ANALYSIS *
                    ********************************

------------------------------------------
FOD BASED MULLIKEN REDUCED ORBITAL CHARGES
------------------------------------------
  0 C s       :     0.000004  s :     0.000004
      pz      :     0.000752  p :     0.000783
      px      :     0.000004
      py      :     0.000027
      dz2     :    -0.000001  d :     0.000062
      dxz     :     0.000052
      dyz     :     0.000015
      dx2y2   :    -0.000004
      dxy     :     0.000001
      f0      :     0.000001  f :     0.000004
      f+1     :    -0.000000
      f-1     :    -0.000000
      f+2     :     0.000002
      f-2     :     0.000002
      f+3     :     0.000000
      f-3     :    -0.000000
      g0      :    -0.000000  g :     0.000000
      g+1     :     0.000000
      g-1     :     0.000000
      g+2     :    -0.000000
      g-2     :     0.000000
      g+3     :     0.000000
      g-3     :     0.000000
      g+4     :     0.000000
      g-4     :     0.000000
  1 C s       :    -0.000013  s :    -0.000013
      pz      :     0.000740  p :     0.000738
      px      :    -0.000002
      py      :    -0.000000
      dz2     :    -0.000000  d :     0.000062
      dxz     :     0.000021
      dyz     :     0.000039
      dx2y2   :    -0.000001
      dxy     :     0.000003
      f0      :     0.000001  f :     0.000005
      f+1     :     0.000000
      f-1     :    -0.000000
      f+2     :     0.000003
      f-2     :     0.000001
      f+3     :     0.000000
      f-3     :     0.000000
      g0      :    -0.000000  g :     0.000000
      g+1     :     0.000000
      g-1     :     0.000000
      g+2     :     0.000000
      g-2     :     0.000000
      g+3     :     0.000000
      g-3     :     0.000000
      g+4     :     0.000000
      g-4     :     0.000000
  2 C s       :    -0.000016  s :    -0.000016
      pz      :     0.000637  p :     0.000624
      px      :    -0.000014
      py      :     0.000001
      dz2     :    -0.000000  d :     0.000073
      dxz     :     0.000019
      dyz     :     0.000051
      dx2y2   :     0.000001
      dxy     :     0.000002
      f0      :     0.000001  f :     0.000005
      f+1     :     0.000000
      f-1     :    -0.000000
      f+2     :     0.000002
      f-2     :     0.000001
      f+3     :     0.000000
      f-3     :     0.000000
      g0      :    -0.000000  g :     0.000000
      g+1     :     0.000000
      g-1     :     0.000000
      g+2     :     0.000000
      g-2     :     0.000000
      g+3     :     0.000000
      g-3     :     0.000000
      g+4     :    -0.000000
      g-4     :    -0.000000
  3 C s       :    -0.000028  s :    -0.000028
      pz      :     0.000852  p :     0.000847
      px      :     0.000006
      py      :    -0.000010
      dz2     :    -0.000000  d :     0.000055
      dxz     :     0.000048
      dyz     :     0.000007
      dx2y2   :     0.000000
      dxy     :    -0.000000
      f0      :     0.000001  f :     0.000004
      f+1     :    -0.000000
      f-1     :     0.000000
      f+2     :     0.000000
      f-2     :     0.000002
      f+3     :     0.000000
      f-3     :     0.000000
      g0      :    -0.000000  g :     0.000000
      g+1     :     0.000000
      g-1     :     0.000000
      g+2     :     0.000000
      g-2     :     0.000000
      g+3     :     0.000000
      g-3     :     0.000000
      g+4     :    -0.000000
      g-4     :    -0.000000
  4 C s       :    -0.000016  s :    -0.000016
      pz      :     0.000638  p :     0.000625
      px      :    -0.000012
      py      :    -0.000001
      dz2     :    -0.000000  d :     0.000073
      dxz     :     0.000024
      dyz     :     0.000046
      dx2y2   :     0.000001
      dxy     :     0.000002
      f0      :     0.000001  f :     0.000005
      f+1     :     0.000000
      f-1     :     0.000000
      f+2     :     0.000003
      f-2     :     0.000001
      f+3     :     0.000000
      f-3     :     0.000000
      g0      :    -0.000000  g :     0.000000
      g+1     :     0.000000
      g-1     :     0.000000
      g+2     :     0.000000
      g-2     :     0.000000
      g+3     :     0.000000
      g-3     :     0.000000
      g+4     :    -0.000000
      g-4     :    -0.000000
  5 C s       :    -0.000013  s :    -0.000013
      pz      :     0.000739  p :     0.000738
      px      :    -0.000003
      py      :     0.000001
      dz2     :     0.000000  d :     0.000062
      dxz     :     0.000018
      dyz     :     0.000042
      dx2y2   :    -0.000001
      dxy     :     0.000003
      f0      :     0.000001  f :     0.000005
      f+1     :     0.000000
      f-1     :    -0.000000
      f+2     :     0.000002
      f-2     :     0.000001
      f+3     :     0.000000
      f-3     :     0.000000
      g0      :    -0.000000  g :     0.000000
      g+1     :     0.000000
      g-1     :     0.000000
      g+2     :     0.000000
      g-2     :     0.000000
      g+3     :     0.000000
      g-3     :     0.000000
      g+4     :     0.000000
      g-4     :     0.000000
  6 H s       :     0.000034  s :     0.000034
      pz      :     0.000026  p :     0.000028
      px      :     0.000001
      py      :     0.000000
      dz2     :     0.000000  d :     0.000003
      dxz     :     0.000002
      dyz     :     0.000001
      dx2y2   :     0.000000
      dxy     :     0.000000
      f0      :     0.000000  f :     0.000000
      f+1     :     0.000000
      f-1     :     0.000000
      f+2     :     0.000000
      f-2     :     0.000000
      f+3     :     0.000000
      f-3     :     0.000000
  7 H s       :     0.000054  s :     0.000054
      pz      :     0.000024  p :     0.000025
      px      :     0.000001
      py      :     0.000000
      dz2     :    -0.000000  d :     0.000003
      dxz     :     0.000002
      dyz     :     0.000001
      dx2y2   :     0.000000
      dxy     :     0.000000
      f0      :     0.000000  f :     0.000000
      f+1     :     0.000000
      f-1     :     0.000000
      f+2     :     0.000000
      f-2     :     0.000000
      f+3     :     0.000000
      f-3     :    -0.000000
  8 H s       :     0.000043  s :     0.000043
      pz      :     0.000029  p :     0.000029
      px      :     0.000000
      py      :     0.000001
      dz2     :    -0.000000  d :     0.000003
      dxz     :     0.000000
      dyz     :     0.000003
      dx2y2   :     0.000000
      dxy     :     0.000000
      f0      :     0.000000  f :     0.000000
      f+1     :    -0.000000
      f-1     :     0.000000
      f+2     :     0.000000
      f-2     :     0.000000
      f+3     :     0.000000
      f-3     :    -0.000000
  9 H s       :     0.000054  s :     0.000054
      pz      :     0.000024  p :     0.000025
      px      :     0.000001
      py      :     0.000000
      dz2     :    -0.000000  d :     0.000003
      dxz     :     0.000002
      dyz     :     0.000001
      dx2y2   :     0.000000
      dxy     :     0.000000
      f0      :     0.000000  f :     0.000000
      f+1     :     0.000000
      f-1     :     0.000000
      f+2     :     0.000000
      f-2     :     0.000000
      f+3     :    -0.000000
      f-3     :     0.000000
 10 H s       :     0.000034  s :     0.000034
      pz      :     0.000026  p :     0.000028
      px      :     0.000001
      py      :     0.000000
      dz2     :     0.000000  d :     0.000003
      dxz     :     0.000002
      dyz     :     0.000001
      dx2y2   :     0.000000
      dxy     :     0.000000
      f0      :     0.000000  f :     0.000000
      f+1     :     0.000000
      f-1     :     0.000000
      f+2     :     0.000000
      f-2     :     0.000000
      f+3     :     0.000000
      f-3     :     0.000000
 11 Cls       :    -0.000007  s :    -0.000007
      pz      :     0.000536  p :     0.000617
      px      :     0.000035
      py      :     0.000045
      dz2     :    -0.000000  d :     0.000044
      dxz     :     0.000005
      dyz     :     0.000039
      dx2y2   :    -0.000000
      dxy     :    -0.000000
      f0      :     0.000001  f :     0.000002
      f+1     :    -0.000000
      f-1     :    -0.000000
      f+2     :     0.000001
      f-2     :     0.000000
      f+3     :    -0.000000
      f-3     :    -0.000000
      g0      :    -0.000000  g :     0.000000
      g+1     :     0.000000
      g-1     :     0.000000
      g+2     :    -0.000000
      g-2     :    -0.000000
      g+3     :     0.000000
      g-3     :     0.000000
      g+4     :    -0.000000
      g-4     :     0.000000


                     *******************************
                     * LOEWDIN POPULATION ANALYSIS *
                     *******************************

----------------------
LOEWDIN ATOMIC CHARGES
----------------------
   0 C :   -0.466750
   1 C :    0.036743
   2 C :    0.064320
   3 C :    0.060684
   4 C :    0.064358
   5 C :    0.036709
   6 H :   -0.055212
   7 H :   -0.054183
   8 H :   -0.056294
   9 H :   -0.054180
  10 H :   -0.055222
  11 Cl:    0.479027

-------------------------------
LOEWDIN REDUCED ORBITAL CHARGES
-------------------------------
  0 C s       :     2.638981  s :     2.638981
      pz      :     0.840088  p :     2.825928
      px      :     1.076849
      py      :     0.908991
      dz2     :     0.060754  d :     0.800390
      dxz     :     0.102308
      dyz     :     0.129877
      dx2y2   :     0.275777
      dxy     :     0.231673
      f0      :     0.011997  f :     0.186203
      f+1     :     0.008770
      f-1     :     0.013132
      f+2     :     0.024759
      f-2     :     0.020431
      f+3     :     0.078778
      f-3     :     0.028336
      g0      :     0.000462  g :     0.015247
      g+1     :     0.001591
      g-1     :     0.001624
      g+2     :     0.001610
      g-2     :     0.001370
      g+3     :     0.000059
      g-3     :     0.001315
      g+4     :     0.003898
      g-4     :     0.003318
  1 C s       :     2.598124  s :     2.598124
      pz      :     0.778373  p :     2.738213
      px      :     0.961153
      py      :     0.998687
      dz2     :     0.040482  d :     0.503314
      dxz     :     0.045088
      dyz     :     0.074011
      dx2y2   :     0.148954
      dxy     :     0.194779
      f0      :     0.006778  f :     0.112160
      f+1     :     0.007259
      f-1     :     0.007620
      f+2     :     0.018796
      f-2     :     0.009139
      f+3     :     0.044205
      f-3     :     0.018363
      g0      :     0.000382  g :     0.011447
      g+1     :     0.001025
      g-1     :     0.001278
      g+2     :     0.001145
      g-2     :     0.001316
      g+3     :     0.000079
      g-3     :     0.000890
      g+4     :     0.002550
      g-4     :     0.002783
  2 C s       :     2.596033  s :     2.596033
      pz      :     0.767230  p :     2.714667
      px      :     0.960527
      py      :     0.986911
      dz2     :     0.037855  d :     0.502909
      dxz     :     0.036506
      dyz     :     0.084159
      dx2y2   :     0.163540
      dxy     :     0.180850
      f0      :     0.006167  f :     0.110816
      f+1     :     0.006876
      f-1     :     0.007350
      f+2     :     0.016112
      f-2     :     0.010493
      f+3     :     0.046320
      f-3     :     0.017497
      g0      :     0.000360  g :     0.011254
      g+1     :     0.000814
      g-1     :     0.001362
      g+2     :     0.001247
      g-2     :     0.001223
      g+3     :     0.000042
      g-3     :     0.000810
      g+4     :     0.002118
      g-4     :     0.003277
  3 C s       :     2.596023  s :     2.596023
      pz      :     0.775082  p :     2.723854
      px      :     0.999687
      py      :     0.949084
      dz2     :     0.037905  d :     0.498059
      dxz     :     0.093930
      dyz     :     0.020916
      dx2y2   :     0.203594
      dxy     :     0.141714
      f0      :     0.006222  f :     0.110203
      f+1     :     0.007512
      f-1     :     0.006713
      f+2     :     0.005192
      f-2     :     0.020486
      f+3     :     0.046686
      f-3     :     0.017392
      g0      :     0.000359  g :     0.011177
      g+1     :     0.001455
      g-1     :     0.000643
      g+2     :     0.001225
      g-2     :     0.001252
      g+3     :     0.000051
      g-3     :     0.000812
      g+4     :     0.003341
      g-4     :     0.002038
  4 C s       :     2.596030  s :     2.596030
      pz      :     0.767215  p :     2.714665
      px      :     0.965025
      py      :     0.982425
      dz2     :     0.037851  d :     0.502879
      dxz     :     0.042742
      dyz     :     0.077911
      dx2y2   :     0.153210
      dxy     :     0.191164
      f0      :     0.006169  f :     0.110813
      f+1     :     0.006942
      f-1     :     0.007283
      f+2     :     0.018601
      f-2     :     0.008004
      f+3     :     0.046320
      f-3     :     0.017495
      g0      :     0.000360  g :     0.011254
      g+1     :     0.000885
      g-1     :     0.001292
      g+2     :     0.001248
      g-2     :     0.001223
      g+3     :     0.000045
      g-3     :     0.000807
      g+4     :     0.002576
      g-4     :     0.002819
  5 C s       :     2.598109  s :     2.598109
      pz      :     0.778367  p :     2.738201
      px      :     0.957367
      py      :     1.002467
      dz2     :     0.040487  d :     0.503363
      dxz     :     0.038972
      dyz     :     0.080139
      dx2y2   :     0.155942
      dxy     :     0.187822
      f0      :     0.006777  f :     0.112171
      f+1     :     0.007146
      f-1     :     0.007735
      f+2     :     0.016071
      f-2     :     0.011867
      f+3     :     0.044050
      f-3     :     0.018526
      g0      :     0.000383  g :     0.011448
      g+1     :     0.000946
      g-1     :     0.001356
      g+2     :     0.001123
      g-2     :     0.001337
      g+3     :     0.000088
      g-3     :     0.000880
      g+4     :     0.002205
      g-4     :     0.003129
  6 H s       :     0.795590  s :     0.795590
      pz      :     0.053009  p :     0.186792
      px      :     0.076743
      py      :     0.057040
      dz2     :     0.004736  d :     0.063578
      dxz     :     0.014104
      dyz     :     0.006465
      dx2y2   :     0.022497
      dxy     :     0.015776
      f0      :     0.001023  f :     0.009252
      f+1     :     0.000762
      f-1     :     0.000447
      f+2     :     0.000307
      f-2     :     0.001458
      f+3     :     0.003270
      f-3     :     0.001986
  7 H s       :     0.796629  s :     0.796629
      pz      :     0.052240  p :     0.185884
      px      :     0.081410
      py      :     0.052234
      dz2     :     0.004702  d :     0.062546
      dxz     :     0.015520
      dyz     :     0.004324
      dx2y2   :     0.020525
      dxy     :     0.017475
      f0      :     0.000990  f :     0.009125
      f+1     :     0.000809
      f-1     :     0.000388
      f+2     :     0.000584
      f-2     :     0.001097
      f+3     :     0.003283
      f-3     :     0.001974
  8 H s       :     0.797632  s :     0.797632
      pz      :     0.053532  p :     0.186860
      px      :     0.042141
      py      :     0.091187
      dz2     :     0.004683  d :     0.062634
      dxz     :     0.000330
      dyz     :     0.019740
      dx2y2   :     0.014321
      dxy     :     0.023560
      f0      :     0.001005  f :     0.009168
      f+1     :     0.000237
      f-1     :     0.000962
      f+2     :     0.001655
      f-2     :     0.000050
      f+3     :     0.003292
      f-3     :     0.001968
  9 H s       :     0.796628  s :     0.796628
      pz      :     0.052236  p :     0.185882
      px      :     0.077576
      py      :     0.056069
      dz2     :     0.004702  d :     0.062546
      dxz     :     0.014026
      dyz     :     0.005819
      dx2y2   :     0.022001
      dxy     :     0.015999
      f0      :     0.000990  f :     0.009125
      f+1     :     0.000752
      f-1     :     0.000445
      f+2     :     0.000332
      f-2     :     0.001349
      f+3     :     0.003293
      f-3     :     0.001964
 10 H s       :     0.795587  s :     0.795587
      pz      :     0.053012  p :     0.186801
      px      :     0.080890
      py      :     0.052899
      dz2     :     0.004736  d :     0.063581
      dxz     :     0.015710
      dyz     :     0.004861
      dx2y2   :     0.021151
      dxy     :     0.017123
      f0      :     0.001023  f :     0.009253
      f+1     :     0.000820
      f-1     :     0.000388
      f+2     :     0.000562
      f-2     :     0.001202
      f+3     :     0.003284
      f-3     :     0.001973
 11 Cls       :     5.503564  s :     5.503564
      pz      :     3.784321  p :    10.832169
      px      :     3.788238
      py      :     3.259609
      dz2     :     0.016078  d :     0.143458
      dxz     :     0.000750
      dyz     :     0.045830
      dx2y2   :     0.046688
      dxy     :     0.034112
      f0      :     0.004536  f :     0.038010
      f+1     :     0.000806
      f-1     :     0.004743
      f+2     :     0.007248
      f-2     :     0.000310
      f+3     :     0.012114
      f-3     :     0.008253
      g0      :     0.000160  g :     0.003771
      g+1     :     0.000007
      g-1     :     0.000648
      g+2     :     0.000357
      g-2     :     0.000168
      g+3     :     0.000038
      g-3     :     0.000502
      g+4     :     0.000704
      g-4     :     0.001189


                      *****************************
                      * MAYER POPULATION ANALYSIS *
                      *****************************

  NA   - Mulliken gross atomic population
  ZA   - Total nuclear charge
  QA   - Mulliken gross atomic charge
  VA   - Mayer's total valence
  BVA  - Mayer's bonded valence
  FA   - Mayer's free valence

  ATOM       NA         ZA         QA         VA         BVA        FA
  0 C      5.8777     6.0000     0.1223     3.6921     3.6904     0.0017
  1 C      6.0511     6.0000    -0.0511     3.7198     3.7183     0.0016
  2 C      6.0548     6.0000    -0.0548     3.7954     3.7941     0.0014
  3 C      6.0702     6.0000    -0.0702     3.8142     3.8124     0.0018
  4 C      6.0545     6.0000    -0.0545     3.7966     3.7952     0.0014
  5 C      6.0499     6.0000    -0.0499     3.7194     3.7178     0.0016
  6 H      0.9277     1.0000     0.0723     1.0055     1.0053     0.0001
  7 H      0.9349     1.0000     0.0651     0.9982     0.9981     0.0002
  8 H      0.9392     1.0000     0.0608     1.0013     1.0011     0.0002
  9 H      0.9346     1.0000     0.0654     0.9982     0.9981     0.0002
 10 H      0.9282     1.0000     0.0718     1.0057     1.0056     0.0001
 11 Cl    17.1772    17.0000    -0.1772     1.1407     1.1394     0.0013

  Mayer bond orders larger than 0.100000
B(  0-C ,  1-C ) :   1.2576 B(  0-C ,  5-C ) :   1.2578 B(  0-C , 11-Cl) :   1.0155 
B(  1-C ,  2-C ) :   1.3220 B(  1-C ,  6-H ) :   0.9587 B(  2-C ,  3-C ) :   1.3289 
B(  2-C ,  7-H ) :   0.9643 B(  3-C ,  4-C ) :   1.3294 B(  3-C ,  8-H ) :   0.9684 
B(  4-C ,  5-C ) :   1.3225 B(  4-C ,  9-H ) :   0.9644 B(  5-C , 10-H ) :   0.9583 


-------
TIMINGS
-------

Total SCF time: 0 days 0 hours 35 min 18 sec 

Total time                  ....    2118.117 sec
Sum of individual times     ....    2064.832 sec  ( 97.5%)

Fock matrix formation       ....    2031.890 sec  ( 95.9%)
  Split-RI-J                ....     127.944 sec  (  6.3% of F)
  Chain of spheres X        ....    1622.278 sec  ( 79.8% of F)
  XC integration            ....     230.061 sec  ( 11.3% of F)
    Basis function eval.    ....      45.087 sec  ( 19.6% of XC)
    Density eval.           ....      80.257 sec  ( 34.9% of XC)
    XC-Functional eval.     ....       2.669 sec  (  1.2% of XC)
    XC-Potential eval.      ....      94.288 sec  ( 41.0% of XC)
Diagonalization             ....       5.259 sec  (  0.2%)
Density matrix formation    ....       4.906 sec  (  0.2%)
Population analysis         ....       0.397 sec  (  0.0%)
Initial guess               ....       7.878 sec  (  0.4%)
Orbital Transformation      ....       0.000 sec  (  0.0%)
Orbital Orthonormalization  ....       0.000 sec  (  0.0%)
DIIS solution               ....       2.901 sec  (  0.1%)
Grid generation             ....      11.601 sec  (  0.5%)

Maximum memory used throughout the entire SCF-calculation: 577.8 MB

-------------------------   --------------------
FINAL SINGLE POINT ENERGY      -691.777181803342
-------------------------   --------------------


                            ***************************************
                            *     ORCA property calculations      *
                            ***************************************

                                    ---------------------
                                    Active property flags
                                    ---------------------
   (+) Dipole Moment


------------------------------------------------------------------------------
                       ORCA ELECTRIC PROPERTIES CALCULATION
------------------------------------------------------------------------------

Dipole Moment Calculation                       ... on
Quadrupole Moment Calculation                   ... off
Polarizability Calculation                      ... off
GBWName                                         ... FOD.gbw
Electron density                                ... FOD.scfp
The origin for moment calculation is the CENTER OF MASS  = (-12.294410,  0.671545 -0.000000)

-------------
DIPOLE MOMENT
-------------
                                X             Y             Z
Electronic contribution:      0.41102       9.05478       0.00000
Nuclear contribution   :     -0.44175      -9.73233       0.00000
                        -----------------------------------------
Total Dipole Moment    :     -0.03073      -0.67755       0.00000
                        -----------------------------------------
Magnitude (a.u.)       :      0.67825
Magnitude (Debye)      :      1.72396



--------------------
Rotational spectrum 
--------------------
 
Rotational constants in cm-1:     0.188469     0.051636     0.040531 
Rotational constants in MHz :  5650.172228  1548.005627  1215.098957 

 Dipole components along the rotational axes: 
x,y,z [a.u.] :    -0.678245     0.000021     0.000001 
x,y,z [Debye]:    -1.723963     0.000054     0.000004 

 

Timings for individual modules:

Sum of individual times         ...     2127.733 sec (=  35.462 min)
GTO integral calculation        ...        8.205 sec (=   0.137 min)   0.4 %
SCF iterations                  ...     2119.528 sec (=  35.325 min)  99.6 %
                             ****ORCA TERMINATED NORMALLY****
TOTAL RUN TIME: 0 days 0 hours 35 minutes 31 seconds 527 msec
