
                                 *****************
                                 * O   R   C   A *
                                 *****************

                                            #,                                       
                                            ###                                      
                                            ####                                     
                                            #####                                    
                                            ######                                   
                                           ########,                                 
                                     ,,################,,,,,                         
                               ,,#################################,,                 
                          ,,##########################################,,             
                       ,#########################################, ''#####,          
                    ,#############################################,,   '####,        
                  ,##################################################,,,,####,       
                ,###########''''           ''''###############################       
              ,#####''   ,,,,##########,,,,          '''####'''          '####       
            ,##' ,,,,###########################,,,                        '##       
           ' ,,###''''                  '''############,,,                           
         ,,##''                                '''############,,,,        ,,,,,,###''
      ,#''                                            '''#######################'''  
     '                                                          ''''####''''         
             ,#######,   #######,   ,#######,      ##                                
            ,#'     '#,  ##    ##  ,#'     '#,    #''#        ######   ,####,        
            ##       ##  ##   ,#'  ##            #'  '#       #        #'  '#        
            ##       ##  #######   ##           ,######,      #####,   #    #        
            '#,     ,#'  ##    ##  '#,     ,#' ,#      #,         ##   #,  ,#        
             '#######'   ##     ##  '#######'  #'      '#     #####' # '####'        



                  #######################################################
                  #                        -***-                        #
                  #          Department of theory and spectroscopy      #
                  #    Directorship and core code : Frank Neese         #
                  #        Max Planck Institute fuer Kohlenforschung    #
                  #                Kaiser Wilhelm Platz 1               #
                  #                 D-45470 Muelheim/Ruhr               #
                  #                      Germany                        #
                  #                                                     #
                  #                  All rights reserved                #
                  #                        -***-                        #
                  #######################################################



                         Program Version 5.0.4 -  RELEASE  -

 With contributions from (in alphabetic order):
   Daniel Aravena         : Magnetic Suceptibility
   Michael Atanasov       : Ab Initio Ligand Field Theory (pilot matlab implementation)
   Alexander A. Auer      : GIAO ZORA, VPT2 properties, NMR spectrum
   Ute Becker             : Parallelization
   Giovanni Bistoni       : ED, misc. LED, open-shell LED, HFLD
   Martin Brehm           : Molecular dynamics
   Dmytro Bykov           : SCF Hessian
   Vijay G. Chilkuri      : MRCI spin determinant printing, contributions to CSF-ICE
   Dipayan Datta          : RHF DLPNO-CCSD density
   Achintya Kumar Dutta   : EOM-CC, STEOM-CC
   Dmitry Ganyushin       : Spin-Orbit,Spin-Spin,Magnetic field MRCI
   Miquel Garcia          : C-PCM and meta-GGA Hessian, CC/C-PCM, Gaussian charge scheme
   Yang Guo               : DLPNO-NEVPT2, F12-NEVPT2, CIM, IAO-localization
   Andreas Hansen         : Spin unrestricted coupled pair/coupled cluster methods
   Benjamin Helmich-Paris : MC-RPA, TRAH-SCF, COSX integrals
   Lee Huntington         : MR-EOM, pCC
   Robert Izsak           : Overlap fitted RIJCOSX, COSX-SCS-MP3, EOM
   Marcus Kettner         : VPT2
   Christian Kollmar      : KDIIS, OOCD, Brueckner-CCSD(T), CCSD density, CASPT2, CASPT2-K
   Simone Kossmann        : Meta GGA functionals, TD-DFT gradient, OOMP2, MP2 Hessian
   Martin Krupicka        : Initial AUTO-CI
   Lucas Lang             : DCDCAS
   Marvin Lechner         : AUTO-CI (C++ implementation), FIC-MRCC
   Dagmar Lenk            : GEPOL surface, SMD
   Dimitrios Liakos       : Extrapolation schemes; Compound Job, initial MDCI parallelization
   Dimitrios Manganas     : Further ROCIS development; embedding schemes
   Dimitrios Pantazis     : SARC Basis sets
   Anastasios Papadopoulos: AUTO-CI, single reference methods and gradients
   Taras Petrenko         : DFT Hessian,TD-DFT gradient, ASA, ECA, R-Raman, ABS, FL, XAS/XES, NRVS
   Peter Pinski           : DLPNO-MP2, DLPNO-MP2 Gradient
   Christoph Reimann      : Effective Core Potentials
   Marius Retegan         : Local ZFS, SOC
   Christoph Riplinger    : Optimizer, TS searches, QM/MM, DLPNO-CCSD(T), (RO)-DLPNO pert. Triples
   Tobias Risthaus        : Range-separated hybrids, TD-DFT gradient, RPA, STAB
   Michael Roemelt        : Original ROCIS implementation
   Masaaki Saitow         : Open-shell DLPNO-CCSD energy and density
   Barbara Sandhoefer     : DKH picture change effects
   Avijit Sen             : IP-ROCIS
   Kantharuban Sivalingam : CASSCF convergence, NEVPT2, FIC-MRCI
   Bernardo de Souza      : ESD, SOC TD-DFT
   Georgi Stoychev        : AutoAux, RI-MP2 NMR, DLPNO-MP2 response
   Willem Van den Heuvel  : Paramagnetic NMR
   Boris Wezisla          : Elementary symmetry handling
   Frank Wennmohs         : Technical directorship


 We gratefully acknowledge several colleagues who have allowed us to
 interface, adapt or use parts of their codes:
   Stefan Grimme, W. Hujo, H. Kruse, P. Pracht,  : VdW corrections, initial TS optimization,
                  C. Bannwarth, S. Ehlert          DFT functionals, gCP, sTDA/sTD-DF
   Ed Valeev, F. Pavosevic, A. Kumar             : LibInt (2-el integral package), F12 methods
   Garnet Chan, S. Sharma, J. Yang, R. Olivares  : DMRG
   Ulf Ekstrom                                   : XCFun DFT Library
   Mihaly Kallay                                 : mrcc  (arbitrary order and MRCC methods)
   Jiri Pittner, Ondrej Demel                    : Mk-CCSD
   Frank Weinhold                                : gennbo (NPA and NBO analysis)
   Christopher J. Cramer and Donald G. Truhlar   : smd solvation model
   Lars Goerigk                                  : TD-DFT with DH, B97 family of functionals
   V. Asgeirsson, H. Jonsson                     : NEB implementation
   FAccTs GmbH                                   : IRC, NEB, NEB-TS, DLPNO-Multilevel, CI-OPT
                                                   MM, QMMM, 2- and 3-layer-ONIOM, Crystal-QMMM,
                                                   LR-CPCM, SF, NACMEs, symmetry and pop. for TD-DFT,
                                                   nearIR, NL-DFT gradient (VV10), updates on ESD,
                                                   ML-optimized integration grids
   S Lehtola, MJT Oliveira, MAL Marques          : LibXC Library
   Liviu Ungur et al                             : ANISO software


 Your calculation uses the libint2 library for the computation of 2-el integrals
 For citations please refer to: http://libint.valeyev.net

 Your ORCA version has been built with support for libXC version: 5.1.0
 For citations please refer to: https://tddft.org/programs/libxc/

 This ORCA versions uses:
   CBLAS   interface :  Fast vector & matrix operations
   LAPACKE interface :  Fast linear algebra routines
   Shared memory     :  Shared parallel matrices


Your calculation utilizes the atom-pairwise dispersion correction
based on tight binding partial charges (D4)
Cite in your paper:
E.Caldeweyher, C.Bannwarth, S.Grimme, J.Chem.Phys., (2017), 147, 034112.
E.Caldeweyher, S.Ehlert, A.Hansen, H.Neugebauer, S.Grimme, J.Chem.Phys., (2018), in progress.
   

================================================================================

----- Orbital basis set information -----
Your calculation utilizes the basis: def2-SVP
   F. Weigend and R. Ahlrichs, Phys. Chem. Chem. Phys. 7, 3297 (2005).

----- AuxJ basis set information -----
Your calculation utilizes the auxiliary basis: def2/J
   F. Weigend, Phys. Chem. Chem. Phys. 8, 1057 (2006).

================================================================================
                                        WARNINGS
                       Please study these warnings very carefully!
================================================================================


WARNING: Geometry Optimization
  ===> : Switching off AutoStart
         For restart on a previous wavefunction, please use MOREAD

INFO   : the flag for use of the SHARK integral package has been found!

================================================================================
                                       INPUT FILE
================================================================================
NAME = para_p_opt_5.inp
|  1> !B3LYP DEF2-SVP OPT FREQ D4 SOSCF
|  2> 
|  3> %geom 
|  4> convergence tight
|  5> maxIter 1000
|  6> end
|  7> 
|  8> %scf
|  9> convergence tight
| 10> maxIter 1000
| 11> end
| 12> 
| 13> 
| 14> * xyz 1 1
| 15>    C       -5.80653        0.93967        0.11878
| 16>    C       -6.87122        1.43300       -0.67977
| 17>    C       -7.42831        0.65268       -1.65127
| 18>    C       -6.92064       -0.64633       -1.82902
| 19>    C       -5.87372       -1.17698       -1.06315
| 20>    C       -5.32486       -0.38116       -0.09854
| 21>    C       -5.19754        1.80113        1.13930
| 22>    H       -4.67646        1.22845        1.88501
| 23>    H       -5.92138        2.47655        1.61656
| 24>    H       -4.46660        2.44685        0.66580
| 25>    H       -7.24637        2.44310       -0.51475
| 26>    H       -8.23640        1.01333       -2.27724
| 27>    H       -5.52711       -2.19353       -1.23890
| 28>    H       -4.51210       -0.76447        0.51069
| 29>    N       -7.50666       -1.48133       -2.85010
| 30>    O       -7.59357       -2.66276       -2.61222
| 31>    O       -7.86475       -0.93405       -3.86177
| 32>    H      -12.54917       -6.05816       -9.87051
| 33> **                         ****END OF INPUT****
================================================================================

                       *****************************
                       * Geometry Optimization Run *
                       *****************************

Geometry optimization settings:
Update method            Update   .... BFGS
Choice of coordinates    CoordSys .... Z-matrix Internals
Initial Hessian          InHess   .... Almoef's Model

Convergence Tolerances:
Energy Change            TolE     ....  1.0000e-06 Eh
Max. Gradient            TolMAXG  ....  1.0000e-04 Eh/bohr
RMS Gradient             TolRMSG  ....  3.0000e-05 Eh/bohr
Max. Displacement        TolMAXD  ....  1.0000e-03 bohr
RMS Displacement         TolRMSD  ....  6.0000e-04 bohr
Strict Convergence                ....  False
------------------------------------------------------------------------------
                        ORCA OPTIMIZATION COORDINATE SETUP
------------------------------------------------------------------------------

The optimization will be done in new redundant internal coordinates
Making redundant internal coordinates   ...  (new redundants) done
Evaluating the initial hessian          ...  (Almloef) done
Evaluating the coordinates              ...  done
Calculating the B-matrix                .... done
Calculating the G-matrix                .... done
Diagonalizing the G-matrix              .... done
Small eigenvalue found = 9.126e-03
The first mode is                       ....   53
The number of degrees of freedom        ....   48

    -----------------------------------------------------------------
                    Redundant Internal Coordinates


    -----------------------------------------------------------------
         Definition                    Initial Value    Approx d2E/dq
    -----------------------------------------------------------------
      1. B(C   1,C   0)                  1.4194         0.560886   
      2. B(C   2,C   1)                  1.3649         0.685047   
      3. B(C   3,C   2)                  1.4060         0.589196   
      4. B(C   4,C   3)                  1.4015         0.598962   
      5. B(C   5,C   4)                  1.3657         0.683217   
      6. B(C   5,C   0)                  1.4226         0.554252   
      7. B(C   6,C   0)                  1.4678         0.469472   
      8. B(H   7,C   6)                  1.0750         0.380536   
      9. B(H   8,C   6)                  1.0991         0.348323   
     10. B(H   9,C   6)                  1.0842         0.367892   
     11. B(H  10,C   1)                  1.0901         0.359996   
     12. B(H  11,C   2)                  1.0839         0.368213   
     13. B(H  12,C   4)                  1.0883         0.362354   
     14. B(H  13,C   5)                  1.0857         0.365882   
     15. B(N  14,C   3)                  1.4433         0.460007   
     16. B(O  15,N  14)                  1.2083         0.977126   
     17. B(O  16,N  14)                  1.2047         0.990150   
     18. B(H  17,O  16)                  9.1818         0.000000   
     19. B(H  17,O  15)                  9.4218         0.000000   
     20. B(H  17,N  14)                  9.7806         0.000000   
     21. A(C   5,C   0,C   6)          120.7070         0.404897   
     22. A(C   1,C   0,C   6)          119.8939         0.405749   
     23. A(C   1,C   0,C   5)          119.3887         0.417877   
     24. A(C   2,C   1,H  10)          119.8037         0.358919   
     25. A(C   0,C   1,C   2)          120.5233         0.434032   
     26. A(C   0,C   1,H  10)          119.6730         0.346974   
     27. A(C   3,C   2,H  11)          120.2379         0.351201   
     28. A(C   1,C   2,H  11)          121.6749         0.360301   
     29. A(C   1,C   2,C   3)          118.0867         0.437899   
     30. A(C   2,C   3,C   4)          123.3992         0.427454   
     31. A(C   4,C   3,N  14)          118.0889         0.406381   
     32. A(C   2,C   3,N  14)          118.5118         0.405202   
     33. A(C   3,C   4,C   5)          117.7467         0.438988   
     34. A(C   5,C   4,H  12)          122.0311         0.359154   
     35. A(C   3,C   4,H  12)          120.2206         0.351225   
     36. A(C   0,C   5,C   4)          120.8549         0.432896   
     37. A(C   4,C   5,H  13)          119.4387         0.359747   
     38. A(C   0,C   5,H  13)          119.7062         0.347226   
     39. A(H   8,C   6,H   9)          105.5251         0.290299   
     40. A(H   7,C   6,H   9)          107.0648         0.294370   
     41. A(C   0,C   6,H   9)          109.0033         0.338012   
     42. A(H   7,C   6,H   8)          110.2066         0.291845   
     43. A(C   0,C   6,H   8)          112.9138         0.334951   
     44. A(C   0,C   6,H   7)          111.7625         0.339924   
     45. A(O  16,N  14,H  17)           57.0808         0.089202   
     46. A(O  15,N  14,H  17)           69.3093         0.089202   
     47. A(C   3,N  14,H  17)          171.0534         0.089172   
     48. A(O  15,N  14,O  16)          126.0267         0.500279   
     49. A(C   3,N  14,O  16)          116.8702         0.438737   
     50. A(C   3,N  14,O  15)          117.1030         0.437691   
     51. A(N  14,O  15,H  17)          103.8002         0.089272   
     52. A(N  14,O  16,H  17)          116.5961         0.089333   
     53. A(O  15,H  17,O  16)           13.1920         0.089000   
     54. A(N  14,H  17,O  16)            6.3231         0.089000   
     55. A(N  14,H  17,O  15)            6.8904         0.089000   
     56. D(H  10,C   1,C   0,C   5)    179.7757         0.021552   
     57. D(H  10,C   1,C   0,C   6)     -1.3929         0.021552   
     58. D(C   2,C   1,C   0,C   5)     -0.2033         0.021552   
     59. D(C   2,C   1,C   0,C   6)    178.6280         0.021552   
     60. D(C   3,C   2,C   1,C   0)      0.2647         0.032935   
     61. D(H  11,C   2,C   1,H  10)      0.5365         0.032935   
     62. D(C   3,C   2,C   1,H  10)   -179.7143         0.032935   
     63. D(H  11,C   2,C   1,C   0)   -179.4844         0.032935   
     64. D(N  14,C   3,C   2,H  11)     -0.4968         0.023887   
     65. D(N  14,C   3,C   2,C   1)    179.7503         0.023887   
     66. D(C   4,C   3,C   2,H  11)    179.6344         0.023887   
     67. D(C   4,C   3,C   2,C   1)     -0.1185         0.023887   
     68. D(C   5,C   4,C   3,N  14)   -179.9662         0.024727   
     69. D(H  12,C   4,C   3,C   2)    179.4363         0.024727   
     70. D(C   5,C   4,C   3,C   2)     -0.0969         0.024727   
     71. D(H  12,C   4,C   3,N  14)     -0.4331         0.024727   
     72. D(H  13,C   5,C   4,H  12)      0.4904         0.032745   
     73. D(C   0,C   5,C   4,H  12)   -179.3625         0.032745   
     74. D(C   0,C   5,C   4,C   3)      0.1617         0.032745   
     75. D(H  13,C   5,C   0,C   6)      1.3065         0.021026   
     76. D(H  13,C   5,C   4,C   3)   -179.9854         0.032745   
     77. D(H  13,C   5,C   0,C   1)   -179.8719         0.021026   
     78. D(C   4,C   5,C   0,C   6)   -178.8410         0.021026   
     79. D(C   4,C   5,C   0,C   1)     -0.0194         0.021026   
     80. D(H   9,C   6,C   0,C   5)     96.4777         0.016249   
     81. D(H   9,C   6,C   0,C   1)    -82.3380         0.016249   
     82. D(H   8,C   6,C   0,C   5)   -146.5914         0.016249   
     83. D(H   8,C   6,C   0,C   1)     34.5929         0.016249   
     84. D(H   7,C   6,C   0,C   5)    -21.6652         0.016249   
     85. D(H   7,C   6,C   0,C   1)    159.5192         0.016249   
     86. D(O  15,N  14,C   3,C   2)   -144.2791         0.018064   
     87. D(H  17,N  14,C   3,C   4)    169.9197         0.018064   
     88. D(H  17,N  14,C   3,C   2)     -9.9562         0.018064   
     89. D(O  16,N  14,C   3,C   4)   -144.4362         0.018064   
     90. D(O  16,N  14,C   3,C   2)     35.6880         0.018064   
     91. D(O  15,N  14,C   3,C   4)     35.5967         0.018064   
     92. D(H  17,O  15,N  14,O  16)     -6.7939         0.102507   
     93. D(H  17,O  15,N  14,C   3)    173.1698         0.102507   
     94. D(H  17,O  16,N  14,O  15)      7.5757         0.105725   
     95. D(H  17,O  16,N  14,C   3)   -172.3880         0.105725   
     96. D(O  15,H  17,O  16,N  14)     -3.4349         0.001500   
     97. D(O  16,H  17,O  15,N  14)      3.1530         0.001500   
     98. D(O  16,H  17,N  14,O  15)   -173.4556         0.001500   
     99. D(O  16,H  17,N  14,C   3)     49.4475         0.001500   
    100. D(O  15,H  17,N  14,O  16)    173.4556         0.001500   
    101. D(O  15,H  17,N  14,C   3)   -137.0969         0.001500   
    -----------------------------------------------------------------

Number of atoms                         .... 18
Number of degrees of freedom            .... 101

         *************************************************************
         *                GEOMETRY OPTIMIZATION CYCLE   1            *
         *************************************************************
---------------------------------
CARTESIAN COORDINATES (ANGSTROEM)
---------------------------------
  C     -5.806530    0.939670    0.118780
  C     -6.871220    1.433000   -0.679770
  C     -7.428310    0.652680   -1.651270
  C     -6.920640   -0.646330   -1.829020
  C     -5.873720   -1.176980   -1.063150
  C     -5.324860   -0.381160   -0.098540
  C     -5.197540    1.801130    1.139300
  H     -4.676460    1.228450    1.885010
  H     -5.921380    2.476550    1.616560
  H     -4.466600    2.446850    0.665800
  H     -7.246370    2.443100   -0.514750
  H     -8.236400    1.013330   -2.277240
  H     -5.527110   -2.193530   -1.238900
  H     -4.512100   -0.764470    0.510690
  N     -7.506660   -1.481330   -2.850100
  O     -7.593570   -2.662760   -2.612220
  O     -7.864750   -0.934050   -3.861770
  H    -12.549170   -6.058160   -9.870510

----------------------------
CARTESIAN COORDINATES (A.U.)
----------------------------
  NO LB      ZA    FRAG     MASS         X           Y           Z
   0 C     6.0000    0    12.011  -10.972751    1.775719    0.224462
   1 C     6.0000    0    12.011  -12.984724    2.707978   -1.284579
   2 C     6.0000    0    12.011  -14.037472    1.233386   -3.120448
   3 C     6.0000    0    12.011  -13.078114   -1.221387   -3.456347
   4 C     6.0000    0    12.011  -11.099722   -2.224170   -2.009062
   5 C     6.0000    0    12.011  -10.062527   -0.720288   -0.186214
   6 C     6.0000    0    12.011   -9.821927    3.403642    2.152965
   7 H     1.0000    0     1.008   -8.837229    2.321434    3.562153
   8 H     1.0000    0     1.008  -11.189787    4.680001    3.054856
   9 H     1.0000    0     1.008   -8.440651    4.623876    1.258180
  10 H     1.0000    0     1.008  -13.693655    4.616790   -0.972737
  11 H     1.0000    0     1.008  -15.564540    1.914916   -4.303360
  12 H     1.0000    0     1.008  -10.444724   -4.145171   -2.341182
  13 H     1.0000    0     1.008   -8.526633   -1.444639    0.965064
  14 N     7.0000    0    14.007  -14.185532   -2.799308   -5.385908
  15 O     8.0000    0    15.999  -14.349768   -5.031887   -4.936380
  16 O     8.0000    0    15.999  -14.862224   -1.765099   -7.297688
  17 H     1.0000    0     1.008  -23.714495  -11.448263  -18.652561

--------------------------------
INTERNAL COORDINATES (ANGSTROEM)
--------------------------------
 C      0   0   0     0.000000000000     0.00000000     0.00000000
 C      1   0   0     1.419373589828     0.00000000     0.00000000
 C      2   1   0     1.364939859664   120.52333929     0.00000000
 C      3   2   1     1.405969726381   118.08672408     0.26474384
 C      4   3   2     1.401494832598   123.39917256   359.88147612
 C      5   4   3     1.365668050479   117.74665598   359.90308979
 C      1   2   3     1.467802174034   119.89392528   178.62803993
 H      7   1   2     1.074974489418   111.76249371   159.51916380
 H      7   1   2     1.099051240662   112.91382603    34.59293856
 H      7   1   2     1.084172427246   109.00334296   277.66200302
 H      2   1   3     1.090078498504   119.67299764   179.97904087
 H      3   2   1     1.083935566120   121.67485045   180.51556271
 H      5   4   3     1.088301638839   120.22055253   179.43625530
 H      6   5   4     1.085664113158   119.43874191   180.01460164
 N      4   3   2     1.443346391827   118.51177987   179.75026938
 O     15   4   3     1.208270287394   117.10302007   215.72088425
 O     15   4   3     1.204665943488   116.87022725    35.68797837
 H     17  15   4     9.181789064017   116.59608894   187.61196534

---------------------------
INTERNAL COORDINATES (A.U.)
---------------------------
 C      0   0   0     0.000000000000     0.00000000     0.00000000
 C      1   0   0     2.682227366495     0.00000000     0.00000000
 C      2   1   0     2.579362524038   120.52333929     0.00000000
 C      3   2   1     2.656897735444   118.08672408     0.26474384
 C      4   3   2     2.648441411717   123.39917256   359.88147612
 C      5   4   3     2.580738605252   117.74665598   359.90308979
 C      1   2   3     2.773744127699   119.89392528   178.62803993
 H      7   1   2     2.031407385952   111.76249371   159.51916380
 H      7   1   2     2.076905851997   112.91382603    34.59293856
 H      7   1   2     2.048788969443   109.00334296   277.66200302
 H      2   1   3     2.059949826648   119.67299764   179.97904087
 H      3   2   1     2.048341366784   121.67485045   180.51556271
 H      5   4   3     2.056592048504   120.22055253   179.43625530
 H      6   5   4     2.051607847296   119.43874191   180.01460164
 N      4   3   2     2.727529396936   118.51177987   179.75026938
 O     15   4   3     2.283299938930   117.10302007   215.72088425
 O     15   4   3     2.276488716054   116.87022725    35.68797837
 H     17  15   4    17.351066750425   116.59608894   187.61196534

---------------------
BASIS SET INFORMATION
---------------------
There are 4 groups of distinct atoms

 Group   1 Type C   : 7s4p1d contracted to 3s2p1d pattern {511/31/1}
 Group   2 Type H   : 4s1p contracted to 2s1p pattern {31/1}
 Group   3 Type N   : 7s4p1d contracted to 3s2p1d pattern {511/31/1}
 Group   4 Type O   : 7s4p1d contracted to 3s2p1d pattern {511/31/1}

Atom   0C    basis set group =>   1
Atom   1C    basis set group =>   1
Atom   2C    basis set group =>   1
Atom   3C    basis set group =>   1
Atom   4C    basis set group =>   1
Atom   5C    basis set group =>   1
Atom   6C    basis set group =>   1
Atom   7H    basis set group =>   2
Atom   8H    basis set group =>   2
Atom   9H    basis set group =>   2
Atom  10H    basis set group =>   2
Atom  11H    basis set group =>   2
Atom  12H    basis set group =>   2
Atom  13H    basis set group =>   2
Atom  14N    basis set group =>   3
Atom  15O    basis set group =>   4
Atom  16O    basis set group =>   4
Atom  17H    basis set group =>   2
---------------------------------
AUXILIARY/J BASIS SET INFORMATION
---------------------------------
There are 4 groups of distinct atoms

 Group   1 Type C   : 12s5p4d2f1g contracted to 6s4p3d1f1g pattern {711111/2111/211/2/1}
 Group   2 Type H   : 5s2p1d contracted to 3s1p1d pattern {311/2/1}
 Group   3 Type N   : 12s5p4d2f1g contracted to 6s4p3d1f1g pattern {711111/2111/211/2/1}
 Group   4 Type O   : 12s5p4d2f1g contracted to 6s4p3d1f1g pattern {711111/2111/211/2/1}

Atom   0C    basis set group =>   1
Atom   1C    basis set group =>   1
Atom   2C    basis set group =>   1
Atom   3C    basis set group =>   1
Atom   4C    basis set group =>   1
Atom   5C    basis set group =>   1
Atom   6C    basis set group =>   1
Atom   7H    basis set group =>   2
Atom   8H    basis set group =>   2
Atom   9H    basis set group =>   2
Atom  10H    basis set group =>   2
Atom  11H    basis set group =>   2
Atom  12H    basis set group =>   2
Atom  13H    basis set group =>   2
Atom  14N    basis set group =>   3
Atom  15O    basis set group =>   4
Atom  16O    basis set group =>   4
Atom  17H    basis set group =>   2
------------------------------------------------------------------------------
                           ORCA GTO INTEGRAL CALCULATION
                           -- RI-GTO INTEGRALS CHOSEN --
------------------------------------------------------------------------------
------------------------------------------------------------------------------
                   ___                                                        
                  /   \      - P O W E R E D   B Y -                         
                 /     \                                                     
                 |  |  |   _    _      __       _____    __    __             
                 |  |  |  | |  | |    /  \     |  _  \  |  |  /  |          
                  \  \/   | |  | |   /    \    | | | |  |  | /  /          
                 / \  \   | |__| |  /  /\  \   | |_| |  |  |/  /          
                |  |  |   |  __  | /  /__\  \  |    /   |      \           
                |  |  |   | |  | | |   __   |  |    \   |  |\   \          
                \     /   | |  | | |  |  |  |  | |\  \  |  | \   \       
                 \___/    |_|  |_| |__|  |__|  |_| \__\ |__|  \__/        
                                                                              
                      - O R C A' S   B I G   F R I E N D -                    
                                      &                                       
                       - I N T E G R A L  F E E D E R -                       
                                                                              
 v1 FN, 2020, v2 2021                                                         
------------------------------------------------------------------------------


Reading SHARK input file para_p_opt_5.SHARKINP.tmp ... ok
----------------------
SHARK INTEGRAL PACKAGE
----------------------

Number of atoms                             ...     18
Number of basis functions                   ...    180
Number of shells                            ...     84
Maximum angular momentum                    ...      2
Integral batch strategy                     ... SHARK/LIBINT Hybrid
RI-J (if used) integral strategy            ... SPLIT-RIJ (Revised 2003 algorithm where possible)
Printlevel                                  ...      1
Contraction scheme used                     ... SEGMENTED contraction
Coulomb Range Separation                    ... NOT USED
Exchange Range Separation                   ... NOT USED
Finite Nucleus Model                        ... NOT USED
Auxiliary Coulomb fitting basis             ... AVAILABLE
   # of basis functions in Aux-J            ...    578
   # of shells in Aux-J                     ...    190
   Maximum angular momentum in Aux-J        ...      4
Auxiliary J/K fitting basis                 ... NOT available
Auxiliary Correlation fitting basis         ... NOT available
Auxiliary 'external' fitting basis          ... NOT available
Integral threshold                          ...     2.500000e-11
Primitive cut-off                           ...     2.500000e-12
Primitive pair pre-selection threshold      ...     2.500000e-12

Calculating pre-screening integrals         ... done (  0.1 sec) Dimension = 84
Organizing shell pair data                  ... done (  0.1 sec)
Shell pair information
Total number of shell pairs                 ...      3570
Shell pairs after pre-screening             ...      3009
Total number of primitive shell pairs       ...     13034
Primitive shell pairs kept                  ...      7948
          la=0 lb=0:    899 shell pairs
          la=1 lb=0:   1089 shell pairs
          la=1 lb=1:    347 shell pairs
          la=2 lb=0:    385 shell pairs
          la=2 lb=1:    241 shell pairs
          la=2 lb=2:     48 shell pairs

Calculating one electron integrals          ... done (  0.0 sec)
Calculating RI/J V-Matrix + Cholesky decomp.... done (  0.1 sec)
Calculating Nuclear repulsion               ... done (  0.0 sec) ENN=    499.542835512165 Eh

SHARK setup successfully completed in   0.5 seconds

Maximum memory used throughout the entire GTOINT-calculation: 24.6 MB
-------------------------------------------------------------------------------
                                 ORCA SCF
-------------------------------------------------------------------------------

------------
SCF SETTINGS
------------
Hamiltonian:
 Density Functional     Method          .... DFT(GTOs)
 Exchange Functional    Exchange        .... B88
   X-Alpha parameter    XAlpha          ....  0.666667
   Becke's b parameter  XBeta           ....  0.004200
 Correlation Functional Correlation     .... LYP
 LDA part of GGA corr.  LDAOpt          .... VWN-5
 Gradients option       PostSCFGGA      .... off
 Hybrid DFT is turned on
   Fraction HF Exchange ScalHFX         ....  0.200000
   Scaling of DF-GGA-X  ScalDFX         ....  0.720000
   Scaling of DF-GGA-C  ScalDFC         ....  0.810000
   Scaling of DF-LDA-C  ScalLDAC        ....  1.000000
   Perturbative correction              ....  0.000000
   Density functional embedding theory  .... OFF
   NL short-range parameter             ....  4.800000
 RI-approximation to the Coulomb term is turned on
   Number of AuxJ basis functions       .... 578
   RIJ-COSX (HFX calculated with COS-X)).... on


General Settings:
 Integral files         IntName         .... para_p_opt_5
 Hartree-Fock type      HFTyp           .... RHF
 Total Charge           Charge          ....    1
 Multiplicity           Mult            ....    1
 Number of Electrons    NEL             ....   72
 Basis Dimension        Dim             ....  180
 Nuclear Repulsion      ENuc            ....    499.5428355122 Eh

Convergence Acceleration:
 DIIS                   CNVDIIS         .... on
   Start iteration      DIISMaxIt       ....    12
   Startup error        DIISStart       ....  0.200000
   # of expansion vecs  DIISMaxEq       ....     5
   Bias factor          DIISBfac        ....   1.050
   Max. coefficient     DIISMaxC        ....  10.000
 Trust-Rad. Augm. Hess. CNVTRAH         .... auto
   Auto Start mean grad. ratio tolernc. ....  1.125000
   Auto Start start iteration           ....    20
   Auto Start num. interpolation iter.  ....    10
   Max. Number of Micro iterations      ....    16
   Max. Number of Macro iterations      .... Maxiter - #DIIS iter
   Number of Davidson start vectors     ....     2
   Converg. threshold I  (grad. norm)   ....   1.000e-05
   Converg. threshold II (energy diff.) ....   1.000e-08
   Grad. Scal. Fac. for Micro threshold ....   0.100
   Minimum threshold for Micro iter.    ....   0.010
   NR start threshold (gradient norm)   ....   0.001
   Initial trust radius                 ....   0.400
   Minimum AH scaling param. (alpha)    ....   1.000
   Maximum AH scaling param. (alpha)    .... 1000.000
   Orbital update algorithm             .... Taylor
   White noise on init. David. guess    .... on
   Maximum white noise                  ....   0.010
   Quad. conv. algorithm                .... NR
 SOSCF                  CNVSOSCF        .... on
   Start iteration      SOSCFMaxIt      ....   150
   Startup grad/error   SOSCFStart      ....  0.003300
 Level Shifting         CNVShift        .... on
   Level shift para.    LevelShift      ....    0.2500
   Turn off err/grad.   ShiftErr        ....    0.0010
 Zerner damping         CNVZerner       .... off
 Static damping         CNVDamp         .... on
   Fraction old density DampFac         ....    0.7000
   Max. Damping (<1)    DampMax         ....    0.9800
   Min. Damping (>=0)   DampMin         ....    0.0000
   Turn off err/grad.   DampErr         ....    0.1000
 Fernandez-Rico         CNVRico         .... off

SCF Procedure:
 Maximum # iterations   MaxIter         ....  1000
 SCF integral mode      SCFMode         .... Direct
   Integral package                     .... SHARK and LIBINT hybrid scheme
 Reset frequency        DirectResetFreq ....    20
 Integral Threshold     Thresh          ....  2.500e-11 Eh
 Primitive CutOff       TCut            ....  2.500e-12 Eh

Convergence Tolerance:
 Convergence Check Mode ConvCheckMode   .... Total+1el-Energy
 Convergence forced     ConvForced      .... 0
 Energy Change          TolE            ....  1.000e-08 Eh
 1-El. energy change                    ....  1.000e-05 Eh
 Orbital Gradient       TolG            ....  1.000e-05
 Orbital Rotation angle TolX            ....  1.000e-05
 DIIS Error             TolErr          ....  5.000e-07


Diagonalization of the overlap matrix:
Smallest eigenvalue                        ... 2.802e-04
Time for diagonalization                   ...    0.014 sec
Threshold for overlap eigenvalues          ... 1.000e-08
Number of eigenvalues below threshold      ... 0
Time for construction of square roots      ...    0.007 sec
Total time needed                          ...    0.023 sec

Time for model grid setup =    0.770 sec

------------------------------
INITIAL GUESS: MODEL POTENTIAL
------------------------------
Loading Hartree-Fock densities                     ... done
Calculating cut-offs                               ... done
Initializing the effective Hamiltonian             ... done
Setting up the integral package (SHARK)            ... done
Starting the Coulomb interaction                   ... done (   0.7 sec)
Reading the grid                                   ... done
Mapping shells                                     ... done
Starting the XC term evaluation                    ... done (   1.3 sec)
  promolecular density results
     # of electrons  =     72.988105186
     EX              =    -61.323085188
     EC              =     -2.484121241
     EX+EC           =    -63.807206429
Transforming the Hamiltonian                       ... done (   0.0 sec)
Diagonalizing the Hamiltonian                      ... done (   0.0 sec)
Back transforming the eigenvectors                 ... done (   0.0 sec)
Now organizing SCF variables                       ... done
                      ------------------
                      INITIAL GUESS DONE (   2.7 sec)
                      ------------------
-------------------
DFT GRID GENERATION
-------------------

General Integration Accuracy     IntAcc      ... 4.388
Radial Grid Type                 RadialGrid  ... OptM3 with GC (2021)
Angular Grid (max. ang.)         AngularGrid ... 4 (Lebedev-302)
Angular grid pruning method      GridPruning ... 4 (adaptive)
Weight generation scheme         WeightScheme... Becke
Basis function cutoff            BFCut       ... 1.0000e-11
Integration weight cutoff        WCut        ... 1.0000e-14
Angular grids for H and He will be reduced by one unit
Partially contracted basis set               ... off
Rotationally invariant grid construction     ... off

Total number of grid points                  ...    86224
Total number of batches                      ...     1358
Average number of points per batch           ...       63
Average number of grid points per atom       ...     4790
Time for grid setup =    4.120 sec

--------------------
COSX GRID GENERATION
--------------------

GRIDX 1
-------
General Integration Accuracy     IntAcc      ... 3.816
Radial Grid Type                 RadialGrid  ... OptM3 with GC (2021)
Angular Grid (max. ang.)         AngularGrid ... 1 (Lebedev-50)
Angular grid pruning method      GridPruning ... 4 (adaptive)
Weight generation scheme         WeightScheme... Becke
Basis function cutoff            BFCut       ... 1.0000e-11
Integration weight cutoff        WCut        ... 1.0000e-14
Angular grids for H and He will be reduced by one unit
Partially contracted basis set               ... on
Rotationally invariant grid construction     ... off

Total number of grid points                  ...    11003
Total number of batches                      ...      181
Average number of points per batch           ...       60
Average number of grid points per atom       ...      611
UseSFitting                                  ... on

GRIDX 2
-------
General Integration Accuracy     IntAcc      ... 4.020
Radial Grid Type                 RadialGrid  ... OptM3 with GC (2021)
Angular Grid (max. ang.)         AngularGrid ... 2 (Lebedev-110)
Angular grid pruning method      GridPruning ... 4 (adaptive)
Weight generation scheme         WeightScheme... Becke
Basis function cutoff            BFCut       ... 1.0000e-11
Integration weight cutoff        WCut        ... 1.0000e-14
Angular grids for H and He will be reduced by one unit
Partially contracted basis set               ... on
Rotationally invariant grid construction     ... off

Total number of grid points                  ...    24217
Total number of batches                      ...      387
Average number of points per batch           ...       62
Average number of grid points per atom       ...     1345
UseSFitting                                  ... on

GRIDX 3
-------
General Integration Accuracy     IntAcc      ... 4.338
Radial Grid Type                 RadialGrid  ... OptM3 with GC (2021)
Angular Grid (max. ang.)         AngularGrid ... 3 (Lebedev-194)
Angular grid pruning method      GridPruning ... 4 (adaptive)
Weight generation scheme         WeightScheme... Becke
Basis function cutoff            BFCut       ... 1.0000e-11
Integration weight cutoff        WCut        ... 1.0000e-14
Angular grids for H and He will be reduced by one unit
Partially contracted basis set               ... on
Rotationally invariant grid construction     ... off

Total number of grid points                  ...    53292
Total number of batches                      ...      842
Average number of points per batch           ...       63
Average number of grid points per atom       ...     2961
UseSFitting                                  ... on

Time for X-Grid setup             =    4.694 sec

--------------
SCF ITERATIONS
--------------
ITER       Energy         Delta-E        Max-DP      RMS-DP      [F,P]     Damp
               ***  Starting incremental Fock matrix formation  ***
  0   -475.1798879825   0.000000000000 0.20729118  0.00363984  0.2288140 0.7000
  1   -475.4383163899  -0.258428407403 0.15061882  0.00230139  0.0736691 0.7000
                               ***Turning on DIIS***
  2   -475.4425906970  -0.004274307142 0.37991193  0.00483897  0.0360715 0.0000
  3   -475.0577189873   0.384871709714 0.18937733  0.00237729  0.2005510 0.7000
  4   -475.4163560951  -0.358637107782 0.44188045  0.00553459  0.0587240 0.0000
  5   -475.4214470814  -0.005090986322 0.01298148  0.00046194  0.0482432 0.0000
  6   -475.4313801259  -0.009933044520 0.00589471  0.00022511  0.0409746 0.0000
  7   -475.4350643256  -0.003684199666 0.01419793  0.00067697  0.0376958 0.0000
  8   -475.4437233317  -0.008659006111 0.00821232  0.00037401  0.0247702 0.0000
  9   -475.4469966487  -0.003273317038 0.01799753  0.00077624  0.0207938 0.0000
 10   -475.4506374995  -0.003640850735 0.00929593  0.00029570  0.0065380 0.0000
 11   -475.4509857501  -0.000348250603 0.00363842  0.00009597  0.0055077 0.0000
                      *** Initiating the SOSCF procedure ***
                           *** Shutting down DIIS ***
                      *** Re-Reading the Fockian *** 
                      *** Removing any level shift *** 
ITER      Energy       Delta-E        Grad      Rot      Max-DP    RMS-DP
 12   -475.45104293  -0.0000571842  0.000290  0.000290  0.001218  0.000034
               *** Restarting incremental Fock matrix formation ***
 13   -475.45103573   0.0000072088  0.000208  0.000937  0.000876  0.000030
 14   -475.45103505   0.0000006785  0.000442  0.000624  0.000640  0.000013
 15   -475.45103657  -0.0000015191  0.000128  0.000301  0.000398  0.000013
 16   -475.45103631   0.0000002556  0.000106  0.000219  0.000236  0.000007
 17   -475.45103673  -0.0000004171  0.000018  0.000055  0.000109  0.000002
 18   -475.45103671   0.0000000130  0.000027  0.000036  0.000070  0.000001
 19   -475.45103674  -0.0000000244  0.000004  0.000008  0.000016  0.000000
 20   -475.45103674   0.0000000006  0.000007  0.000005  0.000011  0.000000
                  ***Gradient check signals convergence***
              ***Rediagonalizing the Fockian in SOSCF/NRSCF***

               *****************************************************
               *                     SUCCESS                       *
               *           SCF CONVERGED AFTER  21 CYCLES          *
               *****************************************************

Old exchange energy                            =    -12.343729270 Eh
New exchange energy                            =    -12.343797472 Eh
Exchange energy change after final integration =     -0.000068202 Eh
Total energy after final integration           =   -475.451104947 Eh
Final COS-X integration done in                =    22.517 sec

----------------
TOTAL SCF ENERGY
----------------

Total Energy       :         -475.45110495 Eh          -12937.68230 eV

Components:
Nuclear Repulsion  :          499.54283551 Eh           13593.25162 eV
Electronic Energy  :         -974.99394046 Eh          -26530.93393 eV
One Electron Energy:        -1632.12576341 Eh          -44412.39991 eV
Two Electron Energy:          657.13182295 Eh           17881.46598 eV
Max COSX asymmetry :            0.00000307 Eh               0.00008 eV

Virial components:
Potential Energy   :         -947.05772964 Eh          -25770.75098 eV
Kinetic Energy     :          471.60662470 Eh           12833.06868 eV
Virial Ratio       :            2.00815188


DFT components:
N(Alpha)           :       35.999955391985 electrons
N(Beta)            :       35.999955391985 electrons
N(Total)           :       71.999910783970 electrons
E(X)               :      -49.119042591511 Eh       
E(C)               :       -2.910616001165 Eh       
E(XC)              :      -52.029658592676 Eh       
DFET-embed. en.    :        0.000000000000 Eh       

---------------
SCF CONVERGENCE
---------------

  Last Energy change         ...   -6.9533e-09  Tolerance :   1.0000e-08
  Last MAX-Density change    ...    2.2204e-15  Tolerance :   1.0000e-07
  Last RMS-Density change    ...    4.5354e-17  Tolerance :   5.0000e-09
  Last Orbital Gradient      ...    3.4429e-07  Tolerance :   1.0000e-05
  Last Orbital Rotation      ...    9.6231e-07  Tolerance :   1.0000e-05

             **** THE GBW FILE WAS UPDATED (para_p_opt_5.gbw) ****
             **** DENSITY para_p_opt_5.scfp WAS UPDATED ****
             **** ENERGY FILE WAS UPDATED (para_p_opt_5.en.tmp) ****
             **** THE GBW FILE WAS UPDATED (para_p_opt_5.gbw) ****
             **** DENSITY para_p_opt_5.scfp WAS UPDATED ****
----------------
ORBITAL ENERGIES
----------------

  NO   OCC          E(Eh)            E(eV) 
   0   2.0000     -19.205150      -522.5987 
   1   2.0000     -19.204295      -522.5754 
   2   2.0000     -14.602251      -397.3474 
   3   2.0000     -10.286599      -279.9126 
   4   2.0000     -10.263487      -279.2837 
   5   2.0000     -10.258920      -279.1594 
   6   2.0000     -10.258516      -279.1484 
   7   2.0000     -10.250367      -278.9267 
   8   2.0000     -10.250264      -278.9239 
   9   2.0000     -10.234902      -278.5059 
  10   2.0000      -1.280018       -34.8311 
  11   2.0000      -1.103630       -30.0313 
  12   2.0000      -0.929324       -25.2882 
  13   2.0000      -0.859062       -23.3763 
  14   2.0000      -0.814427       -22.1617 
  15   2.0000      -0.787091       -21.4178 
  16   2.0000      -0.695091       -18.9144 
  17   2.0000      -0.673209       -18.3189 
  18   2.0000      -0.630609       -17.1598 
  19   2.0000      -0.599310       -16.3080 
  20   2.0000      -0.592287       -16.1170 
  21   2.0000      -0.558105       -15.1868 
  22   2.0000      -0.533032       -14.5045 
  23   2.0000      -0.525817       -14.3082 
  24   2.0000      -0.499633       -13.5957 
  25   2.0000      -0.496974       -13.5233 
  26   2.0000      -0.479805       -13.0562 
  27   2.0000      -0.446868       -12.1599 
  28   2.0000      -0.430087       -11.7033 
  29   2.0000      -0.424654       -11.5554 
  30   2.0000      -0.406993       -11.0748 
  31   2.0000      -0.360360        -9.8059 
  32   2.0000      -0.354040        -9.6339 
  33   2.0000      -0.345890        -9.4121 
  34   2.0000      -0.327464        -8.9108 
  35   2.0000      -0.302393        -8.2285 
  36   0.0000      -0.494356       -13.4521 
  37   0.0000      -0.123701        -3.3661 
  38   0.0000      -0.069571        -1.8931 
  39   0.0000      -0.054115        -1.4725 
  40   0.0000       0.013357         0.3635 
  41   0.0000       0.035732         0.9723 
  42   0.0000       0.041284         1.1234 
  43   0.0000       0.065544         1.7835 
  44   0.0000       0.085033         2.3139 
  45   0.0000       0.091565         2.4916 
  46   0.0000       0.110084         2.9955 
  47   0.0000       0.118424         3.2225 
  48   0.0000       0.144944         3.9441 
  49   0.0000       0.172563         4.6957 
  50   0.0000       0.186619         5.0782 
  51   0.0000       0.219976         5.9859 
  52   0.0000       0.230814         6.2808 
  53   0.0000       0.238017         6.4768 
  54   0.0000       0.250023         6.8035 
  55   0.0000       0.267701         7.2845 
  56   0.0000       0.293667         7.9911 
  57   0.0000       0.331177         9.0118 
  58   0.0000       0.349299         9.5049 
  59   0.0000       0.352626         9.5954 
  60   0.0000       0.375293        10.2122 
  61   0.0000       0.390124        10.6158 
  62   0.0000       0.391819        10.6619 
  63   0.0000       0.407523        11.0893 
  64   0.0000       0.416560        11.3352 
  65   0.0000       0.428369        11.6565 
  66   0.0000       0.456423        12.4199 
  67   0.0000       0.473412        12.8822 
  68   0.0000       0.510400        13.8887 
  69   0.0000       0.519740        14.1428 
  70   0.0000       0.539734        14.6869 
  71   0.0000       0.563854        15.3432 
  72   0.0000       0.577010        15.7013 
  73   0.0000       0.584044        15.8927 
  74   0.0000       0.591131        16.0855 
  75   0.0000       0.599134        16.3033 
  76   0.0000       0.609375        16.5819 
  77   0.0000       0.618161        16.8210 
  78   0.0000       0.626313        17.0428 
  79   0.0000       0.633343        17.2341 
  80   0.0000       0.642062        17.4714 
  81   0.0000       0.652748        17.7622 
  82   0.0000       0.673774        18.3343 
  83   0.0000       0.682118        18.5614 
  84   0.0000       0.712478        19.3875 
  85   0.0000       0.733008        19.9462 
  86   0.0000       0.739997        20.1363 
  87   0.0000       0.774572        21.0772 
  88   0.0000       0.775367        21.0988 
  89   0.0000       0.845863        23.0171 
  90   0.0000       0.866448        23.5772 
  91   0.0000       0.870634        23.6912 
  92   0.0000       0.910396        24.7731 
  93   0.0000       0.923999        25.1433 
  94   0.0000       0.930021        25.3072 
  95   0.0000       0.981141        26.6982 
  96   0.0000       0.995089        27.0777 
  97   0.0000       1.053385        28.6641 
  98   0.0000       1.053387        28.6641 
  99   0.0000       1.053414        28.6649 
 100   0.0000       1.053420        28.6650 
 101   0.0000       1.068034        29.0627 
 102   0.0000       1.087261        29.5859 
 103   0.0000       1.099399        29.9162 
 104   0.0000       1.119838        30.4723 
 105   0.0000       1.172592        31.9079 
 106   0.0000       1.186307        32.2811 
 107   0.0000       1.192609        32.4525 
 108   0.0000       1.201332        32.6899 
 109   0.0000       1.223304        33.2878 
 110   0.0000       1.231392        33.5079 
 111   0.0000       1.329900        36.1884 
 112   0.0000       1.346452        36.6388 
 113   0.0000       1.415569        38.5196 
 114   0.0000       1.434722        39.0408 
 115   0.0000       1.484367        40.3917 
 116   0.0000       1.497858        40.7588 
 117   0.0000       1.534533        41.7568 
 118   0.0000       1.618850        44.0512 
 119   0.0000       1.633862        44.4596 
 120   0.0000       1.661907        45.2228 
 121   0.0000       1.678618        45.6775 
 122   0.0000       1.681087        45.7447 
 123   0.0000       1.685911        45.8760 
 124   0.0000       1.693876        46.0927 
 125   0.0000       1.713694        46.6320 
 126   0.0000       1.738467        47.3061 
 127   0.0000       1.745600        47.5002 
 128   0.0000       1.753485        47.7148 
 129   0.0000       1.773707        48.2650 
 130   0.0000       1.791365        48.7455 
 131   0.0000       1.851750        50.3887 
 132   0.0000       1.873280        50.9745 
 133   0.0000       1.877416        51.0871 
 134   0.0000       1.914368        52.0926 
 135   0.0000       1.971970        53.6600 
 136   0.0000       1.973830        53.7107 
 137   0.0000       2.011007        54.7223 
 138   0.0000       2.030739        55.2592 
 139   0.0000       2.044179        55.6249 
 140   0.0000       2.064725        56.1840 
 141   0.0000       2.099239        57.1232 
 142   0.0000       2.107265        57.3416 
 143   0.0000       2.184736        59.4497 
 144   0.0000       2.205993        60.0281 
 145   0.0000       2.237427        60.8835 
 146   0.0000       2.248473        61.1840 
 147   0.0000       2.282364        62.1063 
 148   0.0000       2.305857        62.7456 
 149   0.0000       2.324636        63.2566 
 150   0.0000       2.364110        64.3307 
 151   0.0000       2.406289        65.4784 
 152   0.0000       2.425715        66.0071 
 153   0.0000       2.440441        66.4078 
 154   0.0000       2.501847        68.0787 
 155   0.0000       2.553630        69.4878 
 156   0.0000       2.567839        69.8745 
 157   0.0000       2.581211        70.2383 
 158   0.0000       2.590319        70.4862 
 159   0.0000       2.605543        70.9004 
 160   0.0000       2.613054        71.1048 
 161   0.0000       2.635051        71.7034 
 162   0.0000       2.670447        72.6666 
 163   0.0000       2.694958        73.3335 
 164   0.0000       2.714614        73.8684 
 165   0.0000       2.771446        75.4149 
 166   0.0000       2.803215        76.2794 
 167   0.0000       2.830752        77.0287 
 168   0.0000       2.873186        78.1834 
 169   0.0000       2.911360        79.2221 
 170   0.0000       2.944480        80.1234 
 171   0.0000       3.026639        82.3590 
 172   0.0000       3.076676        83.7206 
 173   0.0000       3.140407        85.4548 
 174   0.0000       3.263503        88.8044 
 175   0.0000       3.278194        89.2042 
 176   0.0000       3.357085        91.3509 
 177   0.0000       3.553075        96.6841 
 178   0.0000       3.706023       100.8460 
 179   0.0000       3.738641       101.7336 

                    ********************************
                    * MULLIKEN POPULATION ANALYSIS *
                    ********************************

-----------------------
MULLIKEN ATOMIC CHARGES
-----------------------
   0 C :   -0.033438
   1 C :   -0.010250
   2 C :    0.034566
   3 C :    0.109060
   4 C :    0.031411
   5 C :   -0.006937
   6 C :    0.100676
   7 H :    0.015476
   8 H :    0.026491
   9 H :    0.036040
  10 H :   -0.014910
  11 H :   -0.007013
  12 H :   -0.001058
  13 H :   -0.015752
  14 N :    0.237724
  15 O :   -0.250827
  16 O :   -0.251259
  17 H :    1.000000
Sum of atomic charges:    1.0000000

--------------------------------
MULLIKEN REDUCED ORBITAL CHARGES
--------------------------------
  0 C s       :     3.084610  s :     3.084610
      pz      :     0.965069  p :     2.905201
      px      :     0.966403
      py      :     0.973730
      dz2     :     0.008060  d :     0.043626
      dxz     :     0.007039
      dyz     :     0.009508
      dx2y2   :     0.009256
      dxy     :     0.009762
  1 C s       :     3.215596  s :     3.215596
      pz      :     0.953163  p :     2.760054
      px      :     0.963682
      py      :     0.843210
      dz2     :     0.007225  d :     0.034600
      dxz     :     0.006259
      dyz     :     0.006755
      dx2y2   :     0.007275
      dxy     :     0.007086
  2 C s       :     3.238128  s :     3.238128
      pz      :     0.883165  p :     2.691926
      px      :     0.861301
      py      :     0.947460
      dz2     :     0.006511  d :     0.035380
      dxz     :     0.005901
      dyz     :     0.007394
      dx2y2   :     0.007872
      dxy     :     0.007702
  3 C s       :     3.010089  s :     3.010089
      pz      :     0.931797  p :     2.832126
      px      :     1.000906
      py      :     0.899423
      dz2     :     0.007244  d :     0.048725
      dxz     :     0.007479
      dyz     :     0.013787
      dx2y2   :     0.009095
      dxy     :     0.011119
  4 C s       :     3.241259  s :     3.241259
      pz      :     0.931554  p :     2.691867
      px      :     0.965396
      py      :     0.794917
      dz2     :     0.007826  d :     0.035462
      dxz     :     0.006215
      dyz     :     0.007001
      dx2y2   :     0.007910
      dxy     :     0.006510
  5 C s       :     3.211966  s :     3.211966
      pz      :     0.914218  p :     2.760456
      px      :     0.903150
      py      :     0.943088
      dz2     :     0.005850  d :     0.034515
      dxz     :     0.005581
      dyz     :     0.008150
      dx2y2   :     0.007325
      dxy     :     0.007609
  6 C s       :     2.905960  s :     2.905960
      pz      :     0.978704  p :     2.963763
      px      :     1.000686
      py      :     0.984373
      dz2     :     0.003430  d :     0.029601
      dxz     :     0.007350
      dyz     :     0.008624
      dx2y2   :     0.001471
      dxy     :     0.008726
  7 H s       :     0.960031  s :     0.960031
      pz      :     0.009853  p :     0.024493
      px      :     0.007312
      py      :     0.007329
  8 H s       :     0.949881  s :     0.949881
      pz      :     0.006654  p :     0.023627
      px      :     0.008723
      py      :     0.008249
  9 H s       :     0.938595  s :     0.938595
      pz      :     0.006730  p :     0.025365
      px      :     0.009829
      py      :     0.008806
 10 H s       :     0.991893  s :     0.991893
      pz      :     0.004175  p :     0.023017
      px      :     0.005235
      py      :     0.013607
 11 H s       :     0.983481  s :     0.983481
      pz      :     0.008426  p :     0.023532
      px      :     0.010413
      py      :     0.004693
 12 H s       :     0.977656  s :     0.977656
      pz      :     0.004061  p :     0.023402
      px      :     0.004841
      py      :     0.014499
 13 H s       :     0.992536  s :     0.992536
      pz      :     0.007720  p :     0.023215
      px      :     0.010560
      py      :     0.004936
 14 N s       :     3.294434  s :     3.294434
      pz      :     1.103318  p :     3.345545
      px      :     1.175523
      py      :     1.066704
      dz2     :     0.025973  d :     0.122296
      dxz     :     0.014330
      dyz     :     0.040142
      dx2y2   :     0.017218
      dxy     :     0.024634
 15 O s       :     3.855803  s :     3.855803
      pz      :     1.755048  p :     4.372067
      px      :     1.478620
      py      :     1.138398
      dz2     :     0.002775  d :     0.022957
      dxz     :     0.000356
      dyz     :     0.005522
      dx2y2   :     0.007937
      dxy     :     0.006368
 16 O s       :     3.853389  s :     3.853389
      pz      :     1.258140  p :     4.374710
      px      :     1.438454
      py      :     1.678116
      dz2     :     0.007272  d :     0.023160
      dxz     :     0.005632
      dyz     :     0.006664
      dx2y2   :     0.001448
      dxy     :     0.002144
 17 H s       :     0.000000  s :     0.000000
      pz      :     0.000000  p :     0.000000
      px      :     0.000000
      py      :     0.000000


                     *******************************
                     * LOEWDIN POPULATION ANALYSIS *
                     *******************************

----------------------
LOEWDIN ATOMIC CHARGES
----------------------
   0 C :    0.006996
   1 C :   -0.019486
   2 C :   -0.001710
   3 C :   -0.030851
   4 C :   -0.001235
   5 C :   -0.019601
   6 C :   -0.039237
   7 H :    0.031072
   8 H :    0.038185
   9 H :    0.044490
  10 H :    0.032545
  11 H :    0.037795
  12 H :    0.040406
  13 H :    0.031787
  14 N :    0.268373
  15 O :   -0.210247
  16 O :   -0.209282
  17 H :    1.000000

-------------------------------
LOEWDIN REDUCED ORBITAL CHARGES
-------------------------------
  0 C s       :     2.860186  s :     2.860186
      pz      :     0.987745  p :     3.026318
      px      :     0.994996
      py      :     1.043577
      dz2     :     0.017802  d :     0.106499
      dxz     :     0.017249
      dyz     :     0.023409
      dx2y2   :     0.023367
      dxy     :     0.024672
  1 C s       :     2.856365  s :     2.856365
      pz      :     1.024012  p :     3.071896
      px      :     1.017329
      py      :     1.030556
      dz2     :     0.017146  d :     0.091225
      dxz     :     0.018064
      dyz     :     0.018479
      dx2y2   :     0.019275
      dxy     :     0.018261
  2 C s       :     2.857192  s :     2.857192
      pz      :     1.014354  p :     3.051438
      px      :     1.006432
      py      :     1.030651
      dz2     :     0.015404  d :     0.093080
      dxz     :     0.015189
      dyz     :     0.020742
      dx2y2   :     0.021472
      dxy     :     0.020272
  3 C s       :     2.861509  s :     2.861509
      pz      :     0.976441  p :     3.045599
      px      :     1.045601
      py      :     1.023557
      dz2     :     0.017794  d :     0.123743
      dxz     :     0.019495
      dyz     :     0.034273
      dx2y2   :     0.023380
      dxy     :     0.028801
  4 C s       :     2.857925  s :     2.857925
      pz      :     1.006378  p :     3.050043
      px      :     1.006657
      py      :     1.037008
      dz2     :     0.018723  d :     0.093268
      dxz     :     0.017998
      dyz     :     0.018994
      dx2y2   :     0.020515
      dxy     :     0.017038
  5 C s       :     2.856029  s :     2.856029
      pz      :     1.019513  p :     3.072635
      px      :     1.012708
      py      :     1.040414
      dz2     :     0.013830  d :     0.090938
      dxz     :     0.014606
      dyz     :     0.022489
      dx2y2   :     0.020195
      dxy     :     0.019819
  6 C s       :     2.814822  s :     2.814822
      pz      :     1.043543  p :     3.147262
      px      :     1.057739
      py      :     1.045979
      dz2     :     0.007917  d :     0.077153
      dxz     :     0.019393
      dyz     :     0.023453
      dx2y2   :     0.003244
      dxy     :     0.023146
  7 H s       :     0.900553  s :     0.900553
      pz      :     0.027081  p :     0.068375
      px      :     0.020597
      py      :     0.020698
  8 H s       :     0.897507  s :     0.897507
      pz      :     0.017310  p :     0.064309
      px      :     0.023936
      py      :     0.023063
  9 H s       :     0.887480  s :     0.887480
      pz      :     0.018540  p :     0.068030
      px      :     0.026135
      py      :     0.023355
 10 H s       :     0.899966  s :     0.899966
      pz      :     0.012738  p :     0.067489
      px      :     0.016199
      py      :     0.038551
 11 H s       :     0.891707  s :     0.891707
      pz      :     0.024385  p :     0.070498
      px      :     0.030870
      py      :     0.015243
 12 H s       :     0.889678  s :     0.889678
      pz      :     0.012976  p :     0.069916
      px      :     0.015445
      py      :     0.041495
 13 H s       :     0.899835  s :     0.899835
      pz      :     0.022207  p :     0.068378
      px      :     0.030620
      py      :     0.015550
 14 N s       :     3.033889  s :     3.033889
      pz      :     1.158602  p :     3.437800
      px      :     1.129934
      py      :     1.149264
      dz2     :     0.054874  d :     0.259938
      dxz     :     0.027313
      dyz     :     0.090733
      dx2y2   :     0.040122
      dxy     :     0.046896
 15 O s       :     3.609426  s :     3.609426
      pz      :     1.754597  p :     4.556491
      px      :     1.490036
      py      :     1.311859
      dz2     :     0.006274  d :     0.044330
      dxz     :     0.000528
      dyz     :     0.009393
      dx2y2   :     0.018897
      dxy     :     0.009238
 16 O s       :     3.606203  s :     3.606203
      pz      :     1.389874  p :     4.558305
      px      :     1.461366
      py      :     1.707065
      dz2     :     0.014222  d :     0.044774
      dxz     :     0.010250
      dyz     :     0.014227
      dx2y2   :     0.002404
      dxy     :     0.003671
 17 H s       :     0.000000  s :     0.000000
      pz      :     0.000000  p :     0.000000
      px      :     0.000000
      py      :     0.000000


                      *****************************
                      * MAYER POPULATION ANALYSIS *
                      *****************************

  NA   - Mulliken gross atomic population
  ZA   - Total nuclear charge
  QA   - Mulliken gross atomic charge
  VA   - Mayer's total valence
  BVA  - Mayer's bonded valence
  FA   - Mayer's free valence

  ATOM       NA         ZA         QA         VA         BVA        FA
  0 C      6.0334     6.0000    -0.0334     3.9645     3.9645    -0.0000
  1 C      6.0103     6.0000    -0.0103     3.8395     3.8395    -0.0000
  2 C      5.9654     6.0000     0.0346     3.8547     3.8547     0.0000
  3 C      5.8909     6.0000     0.1091     3.8064     3.8064     0.0000
  4 C      5.9686     6.0000     0.0314     3.8546     3.8546    -0.0000
  5 C      6.0069     6.0000    -0.0069     3.8390     3.8390    -0.0000
  6 C      5.8993     6.0000     0.1007     3.9064     3.9064    -0.0000
  7 H      0.9845     1.0000     0.0155     0.9976     0.9976     0.0000
  8 H      0.9735     1.0000     0.0265     0.9934     0.9934     0.0000
  9 H      0.9640     1.0000     0.0360     0.9914     0.9914    -0.0000
 10 H      1.0149     1.0000    -0.0149     0.9882     0.9882    -0.0000
 11 H      1.0070     1.0000    -0.0070     1.0057     1.0057    -0.0000
 12 H      1.0011     1.0000    -0.0011     1.0060     1.0060    -0.0000
 13 H      1.0158     1.0000    -0.0158     0.9883     0.9883     0.0000
 14 N      6.7623     7.0000     0.2377     3.9840     3.9840     0.0000
 15 O      8.2508     8.0000    -0.2508     1.9327     1.9327     0.0000
 16 O      8.2513     8.0000    -0.2513     1.9328     1.9328     0.0000
 17 H      0.0000     1.0000     1.0000     0.0000     0.0000     0.0000

  Mayer bond orders larger than 0.100000
B(  0-C ,  1-C ) :   1.3573 B(  0-C ,  5-C ) :   1.3620 B(  0-C ,  6-C ) :   1.0852 
B(  1-C ,  2-C ) :   1.3776 B(  1-C , 10-H ) :   0.9874 B(  2-C ,  3-C ) :   1.3610 
B(  2-C , 11-H ) :   0.9907 B(  3-C ,  4-C ) :   1.3680 B(  3-C , 14-N ) :   0.8774 
B(  4-C ,  5-C ) :   1.3707 B(  4-C , 12-H ) :   0.9898 B(  5-C , 13-H ) :   0.9859 
B(  6-C ,  7-H ) :   0.9540 B(  6-C ,  8-H ) :   0.9522 B(  6-C ,  9-H ) :   0.9402 
B( 14-N , 15-O ) :   1.5392 B( 14-N , 16-O ) :   1.5398 B( 15-O , 16-O ) :   0.2687 


-------
TIMINGS
-------

Total SCF time: 0 days 0 hours 4 min 26 sec 

Total time                  ....     266.145 sec
Sum of individual times     ....     265.104 sec  ( 99.6%)

Fock matrix formation       ....     252.788 sec  ( 95.0%)
  Split-RI-J                ....      22.411 sec  (  8.9% of F)
  Chain of spheres X        ....     189.083 sec  ( 74.8% of F)
  XC integration            ....      40.906 sec  ( 16.2% of F)
    Basis function eval.    ....      15.390 sec  ( 37.6% of XC)
    Density eval.           ....      11.776 sec  ( 28.8% of XC)
    XC-Functional eval.     ....       3.191 sec  (  7.8% of XC)
    XC-Potential eval.      ....       8.325 sec  ( 20.4% of XC)
Diagonalization             ....       0.227 sec  (  0.1%)
Density matrix formation    ....       0.022 sec  (  0.0%)
Population analysis         ....       0.048 sec  (  0.0%)
Initial guess               ....       1.978 sec  (  0.7%)
Orbital Transformation      ....       0.000 sec  (  0.0%)
Orbital Orthonormalization  ....       0.000 sec  (  0.0%)
DIIS solution               ....       0.378 sec  (  0.1%)
SOSCF solution              ....       0.079 sec  (  0.0%)
Grid generation             ....       9.584 sec  (  3.6%)

Maximum memory used throughout the entire SCF-calculation: 74.8 MB


-------------------------------------------------------------------------------
                          DFT DISPERSION CORRECTION                            
                                                                               
                                 DFTD4 V2.5                                    
-------------------------------------------------------------------------------
The B3LYP functional is recognized
Active option DFTDOPT                   ...         5   

Starting D4
-------------------------   ----------------
Dispersion correction           -0.026727205
-------------------------   ----------------


-------------------------   --------------------
FINAL SINGLE POINT ENERGY      -475.477832152049
-------------------------   --------------------

------------------------------------------------------------------------------
                         ORCA SCF GRADIENT CALCULATION
------------------------------------------------------------------------------

 ... reading COSX grid (gridx3)
Gradient of the Kohn-Sham DFT energy:
Kohn-Sham wavefunction type      ... RKS
Hartree-Fock exchange scaling    ...    0.200
Number of operators              ...    1
Number of atoms                  ...   18
Basis set dimensions             ...  180
Integral neglect threshold       ... 2.5e-11
Integral primitive cutoff        ... 2.5e-12
SHARK Integral package           ... ON

Nuc. rep. gradient       (SHARK) ... done (  0.0 sec)
HCore & Overlap gradient (SHARK) ... done (  0.5 sec)
RI-J gradient            (SHARK) ... done (  4.3 sec)
COSX-gradient                    ... done ( 28.7 sec)
Exchange-correlation gradient    ... done
Dispersion correction            ... Starting D4


------------------- 
Dispersion Gradient 
------------------- 
   1  :    0.000164090    0.000233775    0.000289060
   2  :   -0.000210855    0.000476897    0.000063605
   3  :   -0.000346611    0.000340606   -0.000169529
   4  :   -0.000142086   -0.000202560   -0.000246924
   5  :    0.000291371   -0.000418541    0.000079878
   6  :    0.000393802   -0.000213136    0.000276156
   7  :    0.000266141    0.000380296    0.000449265
   8  :    0.000072625    0.000063677    0.000131548
   9  :    0.000031569    0.000101134    0.000123910
  10  :    0.000104215    0.000122442    0.000082532
  11  :   -0.000105218    0.000183725   -0.000002499
  12  :   -0.000157705    0.000120741   -0.000094832
  13  :    0.000105991   -0.000190712    0.000007143
  14  :    0.000153062   -0.000115171    0.000093923
  15  :   -0.000241728   -0.000344913   -0.000422301
  16  :   -0.000167440   -0.000441592   -0.000201913
  17  :   -0.000211670   -0.000097156   -0.000459710
  18  :    0.000000444    0.000000488    0.000000687

  |G| =    0.001631443

done

------------------
CARTESIAN GRADIENT
------------------

   1   C   :    0.011815516    0.015929117    0.015513449
   2   C   :   -0.017983692   -0.003552009   -0.020907974
   3   C   :   -0.001791560    0.021520904    0.014375269
   4   C   :   -0.003238071   -0.006639643   -0.007176363
   5   C   :    0.017213500    0.004841449    0.015793582
   6   C   :   -0.000733796   -0.027500225   -0.014276620
   7   C   :    0.002851920   -0.014055966   -0.004816175
   8   H   :   -0.007164801    0.007612528   -0.013997254
   9   H   :    0.001791560    0.001559873   -0.002171997
  10   H   :   -0.011072265   -0.009054130    0.004798123
  11   H   :    0.000198702   -0.001837303   -0.001663387
  12   H   :    0.003155169    0.000206735    0.003647125
  13   H   :    0.000832038    0.001386522    0.000942653
  14   H   :   -0.004069084    0.000048661   -0.003731436
  15   N   :   -0.006481093   -0.006394105   -0.013736339
  16   O   :    0.001748609    0.025447146    0.000685474
  17   O   :    0.013256898   -0.009341007    0.027124699
  18   H   :   -0.000270580   -0.000205356   -0.000340067

Difference to translation invariance:
           :    0.0000589696   -0.0000268099    0.0000627613

Difference to rotation invariance:
           :   -0.0005518395    0.0007654412    0.0001287536

Norm of the cartesian gradient     ...    0.0804564253
RMS gradient                       ...    0.0109487327
MAX gradient                       ...    0.0275002248

-------
TIMINGS
-------

Total SCF gradient time            ...       45.158 sec

One electron gradient       ....       0.506 sec  (  1.1%)
RI-J Coulomb gradient       ....       4.304 sec  (  9.5%)
COSX gradient               ....      28.684 sec  ( 63.5%)
XC gradient                 ....      10.582 sec  ( 23.4%)

Maximum memory used throughout the entire SCFGRAD-calculation: 60.2 MB
------------------------------------------------------------------------------
                         ORCA GEOMETRY RELAXATION STEP
------------------------------------------------------------------------------

Reading the OPT-File                    .... done
Getting information on internals        .... done
Copying old internal coords+grads       .... done
Making the new internal coordinates     .... (new redundants).... done
Validating the new internal coordinates .... (new redundants).... done
Calculating the B-matrix                .... done
Calculating the G,G- and P matrices     .... done
Transforming gradient to internals      .... done
Projecting the internal gradient        .... done
Number of atoms                         ....  18
Number of internal coordinates          .... 101
Current Energy                          ....  -475.477832152 Eh
Current gradient norm                   ....     0.080456425 Eh/bohr
Maximum allowed component of the step   ....  0.300
Current trust radius                    ....  0.300
Evaluating the initial hessian          ....  (Almloef) done
Projecting the Hessian                  .... done
Forming the augmented Hessian           .... done
Diagonalizing the augmented Hessian     .... done
Last element of RFO vector              ....  0.975958983
Lowest eigenvalues of augmented Hessian:
 -0.010135813  0.000017382  0.009847198  0.016248925  0.018654948
Length of the computed step             ....  0.223323186
The final length of the internal step   ....  0.223323186
Converting the step to cartesian space:
 Initial RMS(Int)=    0.0222214876
Transforming coordinates:
 Iter   0:  RMS(Cart)=    0.0492364255 RMS(Int)=    0.6249294257
 Iter   1:  RMS(Cart)=    0.0008980657 RMS(Int)=    0.0006585710
 Iter   2:  RMS(Cart)=    0.0000556054 RMS(Int)=    0.0000365758
 Iter   3:  RMS(Cart)=    0.0000035823 RMS(Int)=    0.0000025759
 Iter   4:  RMS(Cart)=    0.0000002262 RMS(Int)=    0.0000001510
 Iter   5:  RMS(Cart)=    0.0000000142 RMS(Int)=    0.0000000102
done
Storing new coordinates                 .... done

                                .--------------------.
          ----------------------|Geometry convergence|-------------------------
          Item                value                   Tolerance       Converged
          ---------------------------------------------------------------------
          RMS gradient        0.0073497044            0.0000300000      NO
          MAX gradient        0.0285945349            0.0001000000      NO
          RMS step            0.0222214876            0.0006000000      NO
          MAX step            0.0791373994            0.0010000000      NO
          ........................................................
          Max(Bonds)      0.0277      Max(Angles)    1.31
          Max(Dihed)        4.53      Max(Improp)    0.00
          ---------------------------------------------------------------------

The optimization has not yet converged - more geometry cycles are needed


    ---------------------------------------------------------------------------
                         Redundant Internal Coordinates
                            (Angstroem and degrees)

        Definition                    Value    dE/dq     Step     New-Value
    ----------------------------------------------------------------------------
     1. B(C   1,C   0)                1.4194  0.008954 -0.0083    1.4110   
     2. B(C   2,C   1)                1.3649 -0.028358  0.0216    1.3865   
     3. B(C   3,C   2)                1.4060  0.009357 -0.0082    1.3977   
     4. B(C   4,C   3)                1.4015  0.005528 -0.0048    1.3967   
     5. B(C   5,C   4)                1.3657 -0.028595  0.0218    1.3875   
     6. B(C   5,C   0)                1.4226  0.013320 -0.0125    1.4101   
     7. B(C   6,C   0)                1.4678 -0.025086  0.0277    1.4955   
     8. B(H   7,C   6)                1.0750 -0.017241  0.0234    1.0983   
     9. B(H   8,C   6)                1.0991 -0.001162  0.0017    1.1008   
    10. B(H   9,C   6)                1.0842 -0.014957  0.0209    1.1051   
    11. B(H  10,C   1)                1.0901 -0.002021  0.0029    1.0930   
    12. B(H  11,C   2)                1.0839 -0.004385  0.0061    1.0901   
    13. B(H  12,C   4)                1.0883 -0.001184  0.0017    1.0900   
    14. B(H  13,C   5)                1.0857 -0.005162  0.0073    1.0929   
    15. B(N  14,C   3)                1.4433 -0.018555  0.0209    1.4642   
    16. B(O  15,N  14)                1.2083 -0.024130  0.0133    1.2216   
    17. B(O  16,N  14)                1.2047 -0.028159  0.0163    1.2210   
    18. B(H  17,O  16)                9.1818  0.005664 -0.0185    9.1633   
    19. B(H  17,O  15)                9.4218  0.002434 -0.0074    9.4144   
    20. B(H  17,N  14)                9.7806 -0.007615  0.0003    9.7809   
    21. A(C   5,C   0,C   6)          120.71 -0.001717    0.24    120.94   
    22. A(C   1,C   0,C   6)          119.89 -0.005020    0.69    120.58   
    23. A(C   1,C   0,C   5)          119.39  0.006739   -0.93    118.46   
    24. A(C   2,C   1,H  10)          119.80  0.000995   -0.10    119.71   
    25. A(C   0,C   1,C   2)          120.52 -0.004723    0.64    121.16   
    26. A(C   0,C   1,H  10)          119.67  0.003728   -0.54    119.13   
    27. A(C   3,C   2,H  11)          120.24  0.003811   -0.56    119.68   
    28. A(C   1,C   2,H  11)          121.67 -0.000274    0.08    121.76   
    29. A(C   1,C   2,C   3)          118.09 -0.003538    0.48    118.56   
    30. A(C   2,C   3,C   4)          123.40  0.009849   -1.31    122.09   
    31. A(C   4,C   3,N  14)          118.09 -0.006056    0.81    118.90   
    32. A(C   2,C   3,N  14)          118.51 -0.003793    0.50    119.01   
    33. A(C   3,C   4,C   5)          117.75 -0.005346    0.72    118.47   
    34. A(C   5,C   4,H  12)          122.03  0.001244   -0.13    121.90   
    35. A(C   3,C   4,H  12)          120.22  0.004100   -0.59    119.63   
    36. A(C   0,C   5,C   4)          120.85 -0.002979    0.40    121.26   
[...]
     12      -0.029254  -0.052090  -0.097814  -0.037496  -0.159629   0.000128
     13       0.026468  -0.154891   0.034709   0.068306  -0.115220  -0.000252
     14      -0.019898  -0.129291  -0.090182  -0.001314  -0.230980   0.000050
     15       0.016095   0.075576   0.010912   0.008301   0.091542   0.000093
     16      -0.054888   0.146350  -0.116802  -0.079901   0.237911   0.000591
     17      -0.011933   0.152871  -0.042004  -0.027153   0.213810   0.000267
     18       0.010067   0.009866  -0.020603   0.002888   0.013174  -0.059079
     19       0.047091  -0.016716  -0.036232  -0.003738   0.023136  -0.026004
     20       0.081774   0.001676  -0.055950   0.002465   0.031346  -0.000442
     21       0.375868   0.084079  -0.148113   0.031256   0.034561   0.029154
     22      -0.405351   0.020890   0.094634   0.019882  -0.039377  -0.159603
     23      -0.290533   0.011050   0.057404   0.012438  -0.014367   0.237819
     24      -0.292631  -0.112960   0.073154  -0.034370  -0.007671  -0.145000
     25       0.038020  -0.071474  -0.034513  -0.019356   0.028636   0.199233
     26      -0.628827  -0.089559   0.161331  -0.029733  -0.037583   0.060544
     27       0.099600   0.043723  -0.046399   0.010607   0.007487   0.827474
     28      -0.173311  -0.079400   0.049542  -0.013136  -0.006622   0.273155
     29       0.103272   0.035505  -0.056588   0.014480   0.001990  -0.298693
     30       0.053115   0.413055   0.230112  -0.071603  -0.268405   0.000288
     31      -0.007832  -0.034684   0.098610  -0.030484   0.085593  -0.002803
     32       0.059168   0.452267   0.300865  -0.115121  -0.254330  -0.000655
     33      -0.004522   0.147172   0.034828  -0.067851  -0.066335  -0.000252
     34       0.024118  -0.171156   0.409295  -0.038932   0.314731   0.000430
     35       0.020260   0.054973   0.238480  -0.103338   0.089682  -0.001057
     36       0.078502   0.250657   0.256045   0.034099   0.238953   0.000175
     37       0.040480  -0.151016   0.081757   0.100690  -0.096804  -0.001310
     38       0.115112   0.178345   0.315777   0.073974   0.206124  -0.000299
     39       0.032172   0.045345   0.066136   0.036424   0.051733  -0.002488
     40       0.132965  -0.380268   0.426366   0.121420  -0.379102   0.000471
     41       0.102336  -0.125305   0.268406   0.074112  -0.116402  -0.001973
     42       0.016621  -0.048073   0.009270  -0.658305  -0.009913   0.000244
     43       0.001134   0.009774   0.006692   0.387366  -0.003453   0.000322
     44       0.004727   0.028377   0.005481   0.097804  -0.005823   0.000448
     45       0.000084   0.023595   0.008372   0.213962   0.009781  -0.000104
     46      -0.000425  -0.031105  -0.011865  -0.255573  -0.005374  -0.000044
     47      -0.000181  -0.029430  -0.008917  -0.174301  -0.001715  -0.000138
     48      -0.016993   0.035983  -0.024640   0.355149  -0.002924  -0.000040
     49       0.000259   0.000691   0.001120  -0.061516   0.004745  -0.000134
     50      -0.005034   0.008104  -0.006450   0.076648   0.002910  -0.000109
     51      -0.000031  -0.000112  -0.000103  -0.001261   0.000267  -0.000019
     52      -0.000064  -0.000009  -0.000106   0.000926   0.000290  -0.000023
     53      -0.000107   0.000016  -0.000148   0.000571   0.000391  -0.000031
                 48         49         50         51         52         53    
      0       0.001174  -0.000769   0.000865  -0.001963   0.000436  -0.000693
      1       0.001040  -0.000339  -0.002660   0.001053  -0.001125  -0.000260
      2       0.000577  -0.000868  -0.000396  -0.001704   0.000105  -0.000976
      3       0.000346   0.000862  -0.000173   0.023859  -0.000920   0.003925
      4       0.000647  -0.002040   0.001561  -0.080768   0.007742  -0.021540
      5      -0.000153  -0.000703   0.000574  -0.011702   0.002714  -0.006035
      6       0.000022   0.000035  -0.001344  -0.014144  -0.026819   0.055223
      7       0.000006   0.000057   0.000768   0.010616   0.013508  -0.028391
      8       0.000149   0.000044  -0.001070  -0.010417  -0.023027   0.046958
      9      -0.000050  -0.000151   0.000008   0.000055   0.002711  -0.000009
     10       0.000048   0.000081   0.000036  -0.000083  -0.002934   0.002241
     11      -0.000057  -0.000109   0.000002   0.000027   0.001616   0.001033
     12       0.000032   0.000087   0.007118   0.000863  -0.020285  -0.010002
     13      -0.000083  -0.000001  -0.016775  -0.002515   0.074666   0.035833
     14       0.000070   0.000065  -0.000191  -0.000291   0.013128   0.006097
     15       0.000307   0.000161  -0.059993  -0.000658  -0.013191  -0.008228
     16      -0.000081  -0.000546   0.033740   0.000799   0.003703   0.003074
     17       0.000731   0.000611  -0.050893  -0.000372  -0.012741  -0.007582
     18       0.028392  -0.051491  -0.000474   0.001203  -0.000023   0.000235
     19       0.019317   0.077373   0.000810  -0.001773   0.000215  -0.000278
     20      -0.073883  -0.008649  -0.000639  -0.000242  -0.000114   0.000079
     21       0.153450   0.064817   0.002177  -0.000482   0.000303  -0.000151
     22      -0.465040  -0.229242  -0.004573   0.003184  -0.000769   0.001249
     23       0.701355   0.353538   0.009772  -0.002906   0.001317  -0.000703
     24      -0.194110   0.474376   0.003040  -0.011415   0.000707  -0.001397
     25       0.316612  -0.729979  -0.003322   0.019895  -0.000912   0.003010
     26       0.076157  -0.201705   0.000146   0.006620  -0.000220   0.001221
     27      -0.315140   0.081312   0.000868  -0.001233  -0.000401  -0.000361
     28      -0.097472   0.047291   0.001281  -0.000672   0.000249   0.000115
     29       0.095007  -0.038142  -0.000017   0.001299   0.000335   0.000413
     30       0.001472  -0.005768   0.005915  -0.270253   0.022740  -0.064519
     31      -0.004966   0.022583  -0.020197   0.915187  -0.078820   0.221511
     32      -0.001246   0.005156  -0.003080   0.133428  -0.012550   0.034616
     33      -0.001707   0.001157   0.014894   0.177212   0.302241  -0.615336
     34       0.000370  -0.000654  -0.007912  -0.096455  -0.160102   0.325676
     35      -0.000849   0.001352   0.012385   0.147078   0.253260  -0.514948
     36       0.000030   0.000526  -0.062840  -0.008328   0.237886   0.113217
     37      -0.000905  -0.001319   0.212544   0.028745  -0.832485  -0.395488
     38      -0.000280  -0.000351   0.033103   0.004633  -0.137297  -0.065358
     39      -0.004444  -0.005778   0.679354   0.005861   0.132635   0.083403
     40       0.002381   0.002514  -0.385156  -0.003608  -0.072475  -0.045922
     41      -0.005410  -0.005726   0.575503   0.005050   0.112425   0.070542
     42      -0.000008  -0.000005   0.000077  -0.000173  -0.000722   0.000382
     43       0.000048   0.000063  -0.000157   0.000079   0.000754  -0.000089
     44       0.000014   0.000091  -0.000031  -0.000090  -0.000006   0.000224
     45       0.000020   0.000006  -0.000081   0.000005   0.000318   0.000105
     46      -0.000020  -0.000016   0.000052  -0.000000  -0.000180  -0.000111
     47      -0.000015  -0.000037  -0.000029   0.000032   0.000133  -0.000046
     48       0.000008   0.000012   0.000012   0.000073   0.000066  -0.000240
     49      -0.000020  -0.000034   0.000025  -0.000090  -0.000222   0.000246
     50      -0.000001  -0.000018   0.000000  -0.000010  -0.000064   0.000018
     51      -0.000000  -0.000005  -0.000000   0.000001   0.000009  -0.000004
     52      -0.000001  -0.000005   0.000000  -0.000000  -0.000015   0.000007
     53       0.000001  -0.000007   0.000002   0.000001   0.000002  -0.000001


-----------
IR SPECTRUM
-----------

 Mode   freq       eps      Int      T**2         TX        TY        TZ
       cm**-1   L/(mol*cm) km/mol    a.u.
----------------------------------------------------------------------------
  7:      2.59   0.000000    0.00  0.000000  ( 0.000000  0.000000  0.000000)
  8:      5.50   0.017902   90.47  1.016438  ( 0.103119 -0.798366  0.606973)
  9:     17.30   0.021737  109.85  0.391996  (-0.262394 -0.359121 -0.440656)
 10:     77.75   0.000083    0.42  0.000334  ( 0.009875  0.010337  0.011376)
 11:     93.61   0.000170    0.86  0.000567  ( 0.014922  0.012094 -0.014069)
 12:    198.77   0.000512    2.59  0.000803  ( 0.019725 -0.020155  0.002854)
 13:    240.73   0.000683    3.45  0.000885  (-0.007698 -0.021678  0.018858)
 14:    349.67   0.000578    2.92  0.000515  (-0.012978 -0.009329 -0.016126)
 15:    355.74   0.000209    1.06  0.000184  ( 0.004710 -0.008712  0.009251)
 16:    391.48   0.000056    0.28  0.000045  (-0.004244 -0.001273 -0.005018)
 17:    429.70   0.000599    3.03  0.000435  ( 0.020812 -0.000850 -0.001154)
 18:    539.57   0.002117   10.70  0.001224  (-0.026785 -0.018937  0.012171)
 19:    588.99   0.000044    0.22  0.000024  ( 0.002983 -0.003794 -0.000465)
 20:    619.86   0.004222   21.33  0.002125  ( 0.020859  0.023908  0.033446)
 21:    682.92   0.000863    4.36  0.000394  (-0.013221 -0.014813  0.000481)
 22:    751.99   0.005245   26.51  0.002177  ( 0.021071  0.012636 -0.039660)
 23:    789.77   0.000609    3.08  0.000241  (-0.003437 -0.006597 -0.013615)
 24:    821.75   0.000667    3.37  0.000253  (-0.007504 -0.009741 -0.010103)
 25:    844.05   0.019443   98.26  0.007189  ( 0.039675  0.044957  0.059945)
 26:    854.87   0.004644   23.47  0.001695  (-0.010676  0.008489  0.038847)
 27:    980.81   0.018482   93.40  0.005880  ( 0.046381  0.041724  0.044589)
 28:    990.24   0.004324   21.85  0.001363  (-0.027788 -0.024302 -0.000019)
 29:   1006.03   0.000093    0.47  0.000029  (-0.002829 -0.002649 -0.003709)
 30:   1015.79   0.001216    6.15  0.000374  ( 0.010293  0.010360  0.012666)
 31:   1022.01   0.005065   25.60  0.001546  (-0.028907 -0.021531 -0.015727)
 32:   1138.56   0.003889   19.65  0.001066  ( 0.025952 -0.003753  0.019448)
 33:   1143.77   0.014807   74.83  0.004040  (-0.027813 -0.035532 -0.044765)
 34:   1202.25   0.020836  105.29  0.005408  ( 0.034461  0.039419  0.051641)
 35:   1253.49   0.040539  204.87  0.010092  (-0.048623 -0.052938 -0.070183)
 36:   1290.96   0.002880   14.55  0.000696  ( 0.008456  0.018195  0.017136)
 37:   1345.67   0.047677  240.94  0.011056  ( 0.064379  0.044631  0.070142)
 38:   1370.91   0.005085   25.70  0.001157  ( 0.010642  0.031685  0.006344)
 39:   1417.64   0.000832    4.21  0.000183  ( 0.012808  0.001928 -0.003927)
 40:   1422.95   0.000518    2.62  0.000114  (-0.006513 -0.004143 -0.007343)
 41:   1434.46   0.009963   50.35  0.002167  (-0.025453  0.037922 -0.009022)
 42:   1455.56   0.012820   64.79  0.002749  ( 0.041853  0.015797  0.027336)
 43:   1485.87   0.003697   18.68  0.000776  ( 0.014196 -0.003136  0.023770)
 44:   1491.90   0.034444  174.07  0.007205  ( 0.034540  0.048563  0.060442)
 45:   1601.35   0.026830  135.59  0.005229  (-0.062783  0.032218  0.015774)
 46:   1660.73   0.174995  884.35  0.032883  (-0.084953 -0.095831 -0.128383)
 47:   2981.14   0.073822  373.07  0.007728  ( 0.044878  0.047166  0.059068)
 48:   3072.38   0.000190    0.96  0.000019  (-0.002356 -0.002154  0.003022)
 49:   3148.98   0.005153   26.04  0.000511  ( 0.009992  0.012321  0.016094)
 50:   3203.59   0.000119    0.60  0.000012  (-0.000752 -0.002961 -0.001510)
 51:   3206.60   0.000211    1.07  0.000021  (-0.002719 -0.000980 -0.003495)
 52:   3228.13   0.003409   17.23  0.000330  ( 0.010139 -0.014852  0.002492)
 53:   3228.45   0.000642    3.25  0.000062  (-0.005729  0.001898 -0.005064)

* The epsilon (eps) is given for a Dirac delta lineshape.
** The dipole moment derivative (T) already includes vibrational overlap.

The first frequency considered to be a vibration is 7
The total number of vibrations considered is 47


--------------------------
THERMOCHEMISTRY AT 298.15K
--------------------------

Temperature         ... 298.15 K
Pressure            ... 1.00 atm
Total Mass          ... 138.15 AMU

Throughout the following assumptions are being made:
  (1) The electronic state is orbitally nondegenerate
  (2) There are no thermally accessible electronically excited states
  (3) Hindered rotations indicated by low frequency modes are not
      treated as such but are treated as vibrations and this may
      cause some error
  (4) All equations used are the standard statistical mechanics
      equations for an ideal gas
  (5) All vibrations are strictly harmonic

freq.       2.59  E(vib)   ...       0.59 
freq.       5.50  E(vib)   ...       0.58 
freq.      17.30  E(vib)   ...       0.57 
freq.      77.75  E(vib)   ...       0.49 
freq.      93.61  E(vib)   ...       0.47 
freq.     198.77  E(vib)   ...       0.35 
freq.     240.73  E(vib)   ...       0.31 
freq.     349.67  E(vib)   ...       0.23 
freq.     355.74  E(vib)   ...       0.22 
freq.     391.48  E(vib)   ...       0.20 
freq.     429.70  E(vib)   ...       0.18 
freq.     539.57  E(vib)   ...       0.12 
freq.     588.99  E(vib)   ...       0.10 
freq.     619.86  E(vib)   ...       0.09 
freq.     682.92  E(vib)   ...       0.08 
freq.     751.99  E(vib)   ...       0.06 
freq.     789.77  E(vib)   ...       0.05 
freq.     821.75  E(vib)   ...       0.05 
freq.     844.05  E(vib)   ...       0.04 
freq.     854.87  E(vib)   ...       0.04 
freq.     980.81  E(vib)   ...       0.02 
freq.     990.24  E(vib)   ...       0.02 
freq.    1006.03  E(vib)   ...       0.02 
freq.    1015.79  E(vib)   ...       0.02 
freq.    1022.01  E(vib)   ...       0.02 
freq.    1138.56  E(vib)   ...       0.01 
freq.    1143.77  E(vib)   ...       0.01 
freq.    1202.25  E(vib)   ...       0.01 
freq.    1253.49  E(vib)   ...       0.01 
freq.    1290.96  E(vib)   ...       0.01 
freq.    1345.67  E(vib)   ...       0.01 
freq.    1370.91  E(vib)   ...       0.01 
freq.    1417.64  E(vib)   ...       0.00 
freq.    1422.95  E(vib)   ...       0.00 
freq.    1434.46  E(vib)   ...       0.00 
freq.    1455.56  E(vib)   ...       0.00 
freq.    1485.87  E(vib)   ...       0.00 
freq.    1491.90  E(vib)   ...       0.00 
freq.    1601.35  E(vib)   ...       0.00 
freq.    1660.73  E(vib)   ...       0.00 
freq.    2981.14  E(vib)   ...       0.00 
freq.    3072.38  E(vib)   ...       0.00 
freq.    3148.98  E(vib)   ...       0.00 
freq.    3203.59  E(vib)   ...       0.00 
freq.    3206.60  E(vib)   ...       0.00 
freq.    3228.13  E(vib)   ...       0.00 
freq.    3228.45  E(vib)   ...       0.00 

------------
INNER ENERGY
------------

The inner energy is: U= E(el) + E(ZPE) + E(vib) + E(rot) + E(trans)
    E(el)   - is the total energy from the electronic structure calculation
              = E(kin-el) + E(nuc-el) + E(el-el) + E(nuc-nuc)
    E(ZPE)  - the the zero temperature vibrational energy from the frequency calculation
    E(vib)  - the the finite temperature correction to E(ZPE) due to population
              of excited vibrational states
    E(rot)  - is the rotational thermal energy
    E(trans)- is the translational thermal energy

Summary of contributions to the inner energy U:
Electronic energy                ...   -475.59923238 Eh
Zero point energy                ...      0.12861814 Eh      80.71 kcal/mol
Thermal vibrational correction   ...      0.00801461 Eh       5.03 kcal/mol
Thermal rotational correction    ...      0.00141627 Eh       0.89 kcal/mol
Thermal translational correction ...      0.00141627 Eh       0.89 kcal/mol
-----------------------------------------------------------------------
Total thermal energy                   -475.45976709 Eh


Summary of corrections to the electronic energy:
(perhaps to be used in another calculation)
Total thermal correction                  0.01084715 Eh       6.81 kcal/mol
Non-thermal (ZPE) correction              0.12861814 Eh      80.71 kcal/mol
-----------------------------------------------------------------------
Total correction                          0.13946529 Eh      87.52 kcal/mol


--------
ENTHALPY
--------

The enthalpy is H = U + kB*T
                kB is Boltzmann's constant
Total free energy                 ...   -475.45976709 Eh 
Thermal Enthalpy correction       ...      0.00094421 Eh       0.59 kcal/mol
-----------------------------------------------------------------------
Total Enthalpy                    ...   -475.45882288 Eh


Note: Only C1 symmetry has been detected, increase convergence thresholds 
      if your molecule has a higher symmetry. Symmetry factor of 1.0 is   
      used for the rotational entropy correction. 
 

Note: Rotational entropy computed according to Herzberg 
Infrared and Raman Spectra, Chapter V,1, Van Nostrand Reinhold, 1945 
Point Group:  C1, Symmetry Number:   1  
Rotational constants in cm-1:     0.126428     0.022613     0.019709 

Vibrational entropy computed according to the QRRHO of S. Grimme
Chem.Eur.J. 2012 18 9955


-------
ENTROPY
-------

The entropy contributions are T*S = T*(S(el)+S(vib)+S(rot)+S(trans))
     S(el)   - electronic entropy
     S(vib)  - vibrational entropy
     S(rot)  - rotational entropy
     S(trans)- translational entropy
The entropies will be listed as multiplied by the temperature to get
units of energy

Electronic entropy                ...      0.00000000 Eh      0.00 kcal/mol
Vibrational entropy               ...      0.01666652 Eh     10.46 kcal/mol
Rotational entropy                ...      0.01412976 Eh      8.87 kcal/mol
Translational entropy             ...      0.01932890 Eh     12.13 kcal/mol
-----------------------------------------------------------------------
Final entropy term                ...      0.05012518 Eh     31.45 kcal/mol

In case the symmetry of your molecule has not been determined correctly
or in case you have a reason to use a different symmetry number we print 
out the resulting rotational entropy values for sn=1,12 :
 --------------------------------------------------------
|  sn= 1 | S(rot)=       0.01412976 Eh      8.87 kcal/mol|
|  sn= 2 | S(rot)=       0.01347531 Eh      8.46 kcal/mol|
|  sn= 3 | S(rot)=       0.01309247 Eh      8.22 kcal/mol|
|  sn= 4 | S(rot)=       0.01282085 Eh      8.05 kcal/mol|
|  sn= 5 | S(rot)=       0.01261016 Eh      7.91 kcal/mol|
|  sn= 6 | S(rot)=       0.01243802 Eh      7.80 kcal/mol|
|  sn= 7 | S(rot)=       0.01229247 Eh      7.71 kcal/mol|
|  sn= 8 | S(rot)=       0.01216639 Eh      7.63 kcal/mol|
|  sn= 9 | S(rot)=       0.01205518 Eh      7.56 kcal/mol|
|  sn=10 | S(rot)=       0.01195570 Eh      7.50 kcal/mol|
|  sn=11 | S(rot)=       0.01186571 Eh      7.45 kcal/mol|
|  sn=12 | S(rot)=       0.01178356 Eh      7.39 kcal/mol|
 --------------------------------------------------------


-------------------
GIBBS FREE ENERGY
-------------------

The Gibbs free energy is G = H - T*S

Total enthalpy                    ...   -475.45882288 Eh 
Total entropy correction          ...     -0.05012518 Eh    -31.45 kcal/mol
-----------------------------------------------------------------------
Final Gibbs free energy         ...   -475.50894806 Eh

For completeness - the Gibbs free energy minus the electronic energy
G-E(el)                           ...      0.09028433 Eh     56.65 kcal/mol


Timings for individual modules:

Sum of individual times         ...    11434.575 sec (= 190.576 min)
GTO integral calculation        ...       20.986 sec (=   0.350 min)   0.2 %
SCF iterations                  ...     8588.238 sec (= 143.137 min)  75.1 %
SCF Gradient evaluation         ...     1628.718 sec (=  27.145 min)  14.2 %
Geometry relaxation             ...        6.622 sec (=   0.110 min)   0.1 %
Analytical frequency calculation...     1190.011 sec (=  19.834 min)  10.4 %
                             ****ORCA TERMINATED NORMALLY****
TOTAL RUN TIME: 0 days 3 hours 10 minutes 56 seconds 679 msec
