20
	Energy:      24.3374370
C         -2.35960        1.23828       -0.50808
C         -3.67227        1.57227       -0.11970
C         -4.63898        0.58593        0.08995
C         -4.31545       -0.76351       -0.08429
C         -3.02097       -1.11633       -0.46873
C         -2.04837       -0.13296       -0.68022
H         -3.95192        2.60880        0.02286
H         -5.63939        0.87381        0.38800
H         -1.07749       -0.48702       -0.97409
H         -2.76496       -2.15987       -0.60510
O         -5.23713       -1.72749        0.11413
H         -6.14510       -1.52451        0.38102
N         -1.42579        2.31530       -0.70290
C         -0.11359        2.23110       -1.07577
H         -1.78782        3.26866       -0.54234
C          0.69257        3.48857       -1.22363
H          1.73536        3.25730       -1.53016
H          0.71800        4.03127       -0.25549
H          0.23050        4.13922       -1.99539
O          0.43078        1.16233       -1.29461
