
                                 *****************
                                 * O   R   C   A *
                                 *****************

                                            #,                                       
                                            ###                                      
                                            ####                                     
                                            #####                                    
                                            ######                                   
                                           ########,                                 
                                     ,,################,,,,,                         
                               ,,#################################,,                 
                          ,,##########################################,,             
                       ,#########################################, ''#####,          
                    ,#############################################,,   '####,        
                  ,##################################################,,,,####,       
                ,###########''''           ''''###############################       
              ,#####''   ,,,,##########,,,,          '''####'''          '####       
            ,##' ,,,,###########################,,,                        '##       
           ' ,,###''''                  '''############,,,                           
         ,,##''                                '''############,,,,        ,,,,,,###''
      ,#''                                            '''#######################'''  
     '                                                          ''''####''''         
             ,#######,   #######,   ,#######,      ##                                
            ,#'     '#,  ##    ##  ,#'     '#,    #''#        ######   ,####,        
            ##       ##  ##   ,#'  ##            #'  '#       #        #'  '#        
            ##       ##  #######   ##           ,######,      #####,   #    #        
            '#,     ,#'  ##    ##  '#,     ,#' ,#      #,         ##   #,  ,#        
             '#######'   ##     ##  '#######'  #'      '#     #####' # '####'        



                  #######################################################
                  #                        -***-                        #
                  #          Department of theory and spectroscopy      #
                  #    Directorship and core code : Frank Neese         #
                  #        Max Planck Institute fuer Kohlenforschung    #
                  #                Kaiser Wilhelm Platz 1               #
                  #                 D-45470 Muelheim/Ruhr               #
                  #                      Germany                        #
                  #                                                     #
                  #                  All rights reserved                #
                  #                        -***-                        #
                  #######################################################



                         Program Version 5.0.4 -  RELEASE  -

 With contributions from (in alphabetic order):
   Daniel Aravena         : Magnetic Suceptibility
   Michael Atanasov       : Ab Initio Ligand Field Theory (pilot matlab implementation)
   Alexander A. Auer      : GIAO ZORA, VPT2 properties, NMR spectrum
   Ute Becker             : Parallelization
   Giovanni Bistoni       : ED, misc. LED, open-shell LED, HFLD
   Martin Brehm           : Molecular dynamics
   Dmytro Bykov           : SCF Hessian
   Vijay G. Chilkuri      : MRCI spin determinant printing, contributions to CSF-ICE
   Dipayan Datta          : RHF DLPNO-CCSD density
   Achintya Kumar Dutta   : EOM-CC, STEOM-CC
   Dmitry Ganyushin       : Spin-Orbit,Spin-Spin,Magnetic field MRCI
   Miquel Garcia          : C-PCM and meta-GGA Hessian, CC/C-PCM, Gaussian charge scheme
   Yang Guo               : DLPNO-NEVPT2, F12-NEVPT2, CIM, IAO-localization
   Andreas Hansen         : Spin unrestricted coupled pair/coupled cluster methods
   Benjamin Helmich-Paris : MC-RPA, TRAH-SCF, COSX integrals
   Lee Huntington         : MR-EOM, pCC
   Robert Izsak           : Overlap fitted RIJCOSX, COSX-SCS-MP3, EOM
   Marcus Kettner         : VPT2
   Christian Kollmar      : KDIIS, OOCD, Brueckner-CCSD(T), CCSD density, CASPT2, CASPT2-K
   Simone Kossmann        : Meta GGA functionals, TD-DFT gradient, OOMP2, MP2 Hessian
   Martin Krupicka        : Initial AUTO-CI
   Lucas Lang             : DCDCAS
   Marvin Lechner         : AUTO-CI (C++ implementation), FIC-MRCC
   Dagmar Lenk            : GEPOL surface, SMD
   Dimitrios Liakos       : Extrapolation schemes; Compound Job, initial MDCI parallelization
   Dimitrios Manganas     : Further ROCIS development; embedding schemes
   Dimitrios Pantazis     : SARC Basis sets
   Anastasios Papadopoulos: AUTO-CI, single reference methods and gradients
   Taras Petrenko         : DFT Hessian,TD-DFT gradient, ASA, ECA, R-Raman, ABS, FL, XAS/XES, NRVS
   Peter Pinski           : DLPNO-MP2, DLPNO-MP2 Gradient
   Christoph Reimann      : Effective Core Potentials
   Marius Retegan         : Local ZFS, SOC
   Christoph Riplinger    : Optimizer, TS searches, QM/MM, DLPNO-CCSD(T), (RO)-DLPNO pert. Triples
   Tobias Risthaus        : Range-separated hybrids, TD-DFT gradient, RPA, STAB
   Michael Roemelt        : Original ROCIS implementation
   Masaaki Saitow         : Open-shell DLPNO-CCSD energy and density
   Barbara Sandhoefer     : DKH picture change effects
   Avijit Sen             : IP-ROCIS
   Kantharuban Sivalingam : CASSCF convergence, NEVPT2, FIC-MRCI
   Bernardo de Souza      : ESD, SOC TD-DFT
   Georgi Stoychev        : AutoAux, RI-MP2 NMR, DLPNO-MP2 response
   Willem Van den Heuvel  : Paramagnetic NMR
   Boris Wezisla          : Elementary symmetry handling
   Frank Wennmohs         : Technical directorship


 We gratefully acknowledge several colleagues who have allowed us to
 interface, adapt or use parts of their codes:
   Stefan Grimme, W. Hujo, H. Kruse, P. Pracht,  : VdW corrections, initial TS optimization,
                  C. Bannwarth, S. Ehlert          DFT functionals, gCP, sTDA/sTD-DF
   Ed Valeev, F. Pavosevic, A. Kumar             : LibInt (2-el integral package), F12 methods
   Garnet Chan, S. Sharma, J. Yang, R. Olivares  : DMRG
   Ulf Ekstrom                                   : XCFun DFT Library
   Mihaly Kallay                                 : mrcc  (arbitrary order and MRCC methods)
   Jiri Pittner, Ondrej Demel                    : Mk-CCSD
   Frank Weinhold                                : gennbo (NPA and NBO analysis)
   Christopher J. Cramer and Donald G. Truhlar   : smd solvation model
   Lars Goerigk                                  : TD-DFT with DH, B97 family of functionals
   V. Asgeirsson, H. Jonsson                     : NEB implementation
   FAccTs GmbH                                   : IRC, NEB, NEB-TS, DLPNO-Multilevel, CI-OPT
                                                   MM, QMMM, 2- and 3-layer-ONIOM, Crystal-QMMM,
                                                   LR-CPCM, SF, NACMEs, symmetry and pop. for TD-DFT,
                                                   nearIR, NL-DFT gradient (VV10), updates on ESD,
                                                   ML-optimized integration grids
   S Lehtola, MJT Oliveira, MAL Marques          : LibXC Library
   Liviu Ungur et al                             : ANISO software


 Your calculation uses the libint2 library for the computation of 2-el integrals
 For citations please refer to: http://libint.valeyev.net

 Your ORCA version has been built with support for libXC version: 5.1.0
 For citations please refer to: https://tddft.org/programs/libxc/

 This ORCA versions uses:
   CBLAS   interface :  Fast vector & matrix operations
   LAPACKE interface :  Fast linear algebra routines
   Shared memory     :  Shared parallel matrices


Your calculation utilizes the atom-pairwise dispersion correction
based on tight binding partial charges (D4)
Cite in your paper:
E.Caldeweyher, C.Bannwarth, S.Grimme, J.Chem.Phys., (2017), 147, 034112.
E.Caldeweyher, S.Ehlert, A.Hansen, H.Neugebauer, S.Grimme, J.Chem.Phys., (2018), in progress.
   

================================================================================

----- Orbital basis set information -----
Your calculation utilizes the basis: cc-pVTZ 
       H, B-Ne : Obtained from the ccRepo (grant-hill.group.shef.ac.uk/ccrepo) Feb. 2017
                 T. H. Dunning, Jr., J. Chem. Phys. 90, 1007 (1989)
            He : Obtained from the ccRepo (grant-hill.group.shef.ac.uk/ccrepo) Feb. 2017
                 D. E. Woon, T. H. Dunning, Jr., J. Chem. Phys. 100, 2975 (1994)
  Li-Be, Na-Mg : Obtained from the ccRepo (grant-hill.group.shef.ac.uk/ccrepo) Feb. 2017
                 B. P. Prascher, D. E. Woon, K. A. Peterson, T. H. Dunning, Jr., A. K. Wilson, Theor. Chem. Acc. 128, 69 (2011)
         Al-Ar : Obtained from the ccRepo (grant-hill.group.shef.ac.uk/ccrepo) Feb. 2017
                 D. E. Woon, T. H. Dunning, Jr., J. Chem. Phys. 98, 1358 (1993)
            Ca : Obtained from the Peterson Research Group Website (tyr0.chem.wsu.edu/~kipeters) Feb. 2017
                 J. Koput, K. A. Peterson, J. Phys. Chem. 106, 9595 (2002)
         Sc-Zn : Obtained from the ccRepo (grant-hill.group.shef.ac.uk/ccrepo) Feb. 2017
                 N. B. Balabanov, K. A. Peterson, J. Chem. Phys. 123, 064107 (2005)
                 N. B. Balabanov, K. A. Peterson, J. Chem. Phys. 125, 074110 (2006)
         Ga-Kr : Obtained from the ccRepo (grant-hill.group.shef.ac.uk/ccrepo) Feb. 2017
                 A. K. Wilson, D. E. Woon, K. A. Peterson, T. H. Dunning, Jr., J. Chem. Phys. 110, 7667 (1999)
             Y : Obtained from the ccRepo (grant-hill.group.shef.ac.uk/ccrepo) Feb. 2017
                 K. A. Peterson, D. Figgen, M. Dolg, H. Stoll, J. Chem. Phys. 126, 124101 (2007)
        Ag, Au : Obtained from the Peterson Research Group Website (tyr0.chem.wsu.edu/~kipeters) Feb. 2017
                 K. A. Peterson, C. Puzzarini, Theor. Chem. Acc. 114, 283 (2005)

----- AuxJ basis set information -----
Your calculation utilizes the auxiliary basis: def2/J
   F. Weigend, Phys. Chem. Chem. Phys. 8, 1057 (2006).

================================================================================
                                        WARNINGS
                       Please study these warnings very carefully!
================================================================================


WARNING: Geometry Optimization
  ===> : Switching off AutoStart
         For restart on a previous wavefunction, please use MOREAD

INFO   : the flag for use of the SHARK integral package has been found!

================================================================================
                                       INPUT FILE
================================================================================
NAME = opt2.inp
|  1> !BP86 cc-pVTZ OPT FREQ D4
|  2> 
|  3> * xyz 0 1
|  4>    C       -3.00086        2.28181       -0.01304
|  5>    C       -4.38196        2.01747        0.01821
|  6>    C       -4.87347        0.70800        0.02671
|  7>    C       -3.97815       -0.35080        0.00835
|  8>    C       -2.61080       -0.11453       -0.02147
|  9>    C       -2.12230        1.19872       -0.03444
| 10>    H       -5.10106        2.83433        0.03503
| 11>    H       -5.94617        0.54191        0.04934
| 12>    H       -1.04763        1.30869       -0.06486
| 13>    H       -1.91777       -0.95217       -0.03809
| 14>    O       -4.40149       -1.64509        0.01652
| 15>    H       -5.37293       -1.65684        0.03620
| 16>    N       -2.63740        3.64047       -0.02826
| 17>    C       -1.45662        4.31757        0.00220
| 18>    H       -3.40641        4.30223       -0.05329
| 19>    C       -0.13246        3.61554        0.04974
| 20>    H        0.01924        3.03404       -0.86667
| 21>    H       -0.06097        2.99537        0.94596
| 22>    H        0.66929        4.36292        0.09806
| 23>    O       -1.50293        5.55204       -0.01100
| 24> **                         ****END OF INPUT****
================================================================================

                       *****************************
                       * Geometry Optimization Run *
                       *****************************

Geometry optimization settings:
Update method            Update   .... BFGS
Choice of coordinates    CoordSys .... Z-matrix Internals
Initial Hessian          InHess   .... Almoef's Model

Convergence Tolerances:
Energy Change            TolE     ....  5.0000e-06 Eh
Max. Gradient            TolMAXG  ....  3.0000e-04 Eh/bohr
RMS Gradient             TolRMSG  ....  1.0000e-04 Eh/bohr
Max. Displacement        TolMAXD  ....  4.0000e-03 bohr
RMS Displacement         TolRMSD  ....  2.0000e-03 bohr
Strict Convergence                ....  False
------------------------------------------------------------------------------
                        ORCA OPTIMIZATION COORDINATE SETUP
------------------------------------------------------------------------------

The optimization will be done in new redundant internal coordinates
Making redundant internal coordinates   ...  (new redundants) done
Evaluating the initial hessian          ...  (Almloef) done
Evaluating the coordinates              ...  done
Calculating the B-matrix                .... done
Calculating the G-matrix                .... done
Diagonalizing the G-matrix              .... done
Small eigenvalue found = 9.976e-03
The first mode is                       ....   37
The number of degrees of freedom        ....   54

    -----------------------------------------------------------------
                    Redundant Internal Coordinates


    -----------------------------------------------------------------
         Definition                    Initial Value    Approx d2E/dq
    -----------------------------------------------------------------
      1. B(C   1,C   0)                  1.4065         0.588013   
      2. B(C   2,C   1)                  1.3987         0.605140   
      3. B(C   3,C   2)                  1.3867         0.632370   
      4. B(C   4,C   3)                  1.3879         0.629558   
      5. B(C   5,C   0)                  1.3948         0.613922   
      6. B(C   5,C   4)                  1.4012         0.599560   
      7. B(H   6,C   1)                  1.0884         0.362202   
      8. B(H   7,C   2)                  1.0857         0.365810   
      9. B(H   8,C   5)                  1.0807         0.372601   
     10. B(H   9,C   4)                  1.0873         0.363698   
     11. B(O  10,C   3)                  1.3618         0.620703   
     12. B(H  11,O  10)                  0.9717         0.498062   
     13. B(N  12,C   0)                  1.4065         0.526651   
     14. B(C  13,N  12)                  1.3615         0.621404   
     15. B(H  14,N  12)                  1.0149         0.425060   
     16. B(C  15,C  13)                  1.4995         0.417864   
     17. B(H  16,C  15)                  1.0959         0.352399   
     18. B(H  17,C  15)                  1.0922         0.357183   
     19. B(H  18,C  15)                  1.0971         0.350778   
     20. B(O  19,C  13)                  1.2354         0.987452   
     21. A(C   1,C   0,N  12)          115.8188         0.414887   
     22. A(C   5,C   0,N  12)          125.9566         0.418083   
     23. A(C   1,C   0,C   5)          118.2233         0.429194   
     24. A(C   0,C   1,C   2)          121.4087         0.428087   
     25. A(C   2,C   1,H   6)          118.0579         0.351810   
     26. A(C   0,C   1,H   6)          120.5334         0.350108   
     27. A(C   3,C   2,H   7)          121.4243         0.355037   
     28. A(C   1,C   2,H   7)          119.3758         0.352400   
     29. A(C   1,C   2,C   3)          119.1999         0.433714   
     30. A(C   2,C   3,C   4)          120.4224         0.436815   
     31. A(C   2,C   3,O  10)          121.6611         0.432849   
     32. A(C   4,C   3,O  10)          117.9164         0.432502   
     33. A(C   5,C   4,H   9)          119.9783         0.351504   
     34. A(C   3,C   4,H   9)          119.8097         0.354421   
     35. A(C   3,C   4,C   5)          120.2117         0.432646   
     36. A(C   0,C   5,C   4)          120.5334         0.430695   
     37. A(C   4,C   5,H   8)          116.2510         0.352945   
     38. A(C   0,C   5,H   8)          123.2152         0.354363   
     39. A(C   3,O  10,H  11)          108.8080         0.367464   
     40. A(C  13,N  12,H  14)          109.4777         0.357720   
     41. A(C   0,N  12,H  14)          115.7434         0.347843   
     42. A(C   0,N  12,C  13)          134.7710         0.416271   
     43. A(N  12,C  13,O  19)          117.6584         0.466308   
     44. A(C  15,C  13,O  19)          120.0834         0.436758   
     45. A(N  12,C  13,C  15)          122.2582         0.402150   
     46. A(H  17,C  15,H  18)          107.6274         0.289276   
     47. A(H  16,C  15,H  18)          107.2856         0.288666   
     48. A(C  13,C  15,H  18)          109.1344         0.328934   
     49. A(H  16,C  15,H  17)          112.0748         0.289485   
     50. A(C  13,C  15,H  17)          110.4659         0.329918   
     51. A(C  13,C  15,H  16)          110.1301         0.329184   
     52. D(C   2,C   1,C   0,C   5)     -0.0549         0.023786   
     53. D(C   2,C   1,C   0,N  12)    179.5577         0.023786   
     54. D(H   6,C   1,C   0,N  12)     -0.3501         0.023786   
     55. D(H   6,C   1,C   0,C   5)   -179.9627         0.023786   
     56. D(C   3,C   2,C   1,H   6)   -179.8747         0.025268   
     57. D(H   7,C   2,C   1,C   0)   -179.8955         0.025268   
     58. D(C   3,C   2,C   1,C   0)      0.2154         0.025268   
     59. D(H   7,C   2,C   1,H   6)      0.0145         0.025268   
     60. D(O  10,C   3,C   2,H   7)      0.0644         0.027740   
     61. D(O  10,C   3,C   2,C   1)    179.9512         0.027740   
     62. D(C   4,C   3,C   2,H   7)    179.9539         0.027740   
     63. D(C   4,C   3,C   2,C   1)     -0.1593         0.027740   
     64. D(C   5,C   4,C   3,O  10)    179.8398         0.027478   
     65. D(H   9,C   4,C   3,C   2)   -179.8527         0.027478   
     66. D(C   5,C   4,C   3,C   2)     -0.0537         0.027478   
     67. D(H   9,C   4,C   3,O  10)      0.0409         0.027478   
     68. D(H   8,C   5,C   4,H   9)      0.2198         0.024779   
     69. D(C   0,C   5,C   4,H   9)   -179.9836         0.024779   
     70. D(C   0,C   5,C   4,C   3)      0.2178         0.024779   
     71. D(H   8,C   5,C   0,N  12)      0.0515         0.026050   
     72. D(H   8,C   5,C   0,C   1)    179.6207         0.026050   
     73. D(H   8,C   5,C   4,C   3)   -179.5789         0.024779   
     74. D(C   4,C   5,C   0,N  12)   -179.7305         0.026050   
     75. D(C   4,C   5,C   0,C   1)     -0.1613         0.026050   
     76. D(H  11,O  10,C   3,C   4)   -179.8978         0.028271   
     77. D(H  11,O  10,C   3,C   2)     -0.0056         0.028271   
     78. D(H  14,N  12,C   0,C   5)    177.1939         0.022013   
     79. D(H  14,N  12,C   0,C   1)     -2.3844         0.022013   
     80. D(C  13,N  12,C   0,C   5)     -3.9576         0.022013   
     81. D(C  13,N  12,C   0,C   1)    176.4641         0.022013   
     82. D(C  15,C  13,N  12,C   0)      0.8066         0.031279   
     83. D(O  19,C  13,N  12,H  14)     -0.3176         0.031279   
     84. D(O  19,C  13,N  12,C   0)   -179.2174         0.031279   
     85. D(C  15,C  13,N  12,H  14)    179.7064         0.031279   
     86. D(H  18,C  15,C  13,O  19)      1.6972         0.012916   
     87. D(H  18,C  15,C  13,N  12)   -178.3273         0.012916   
     88. D(H  17,C  15,C  13,O  19)    119.8364         0.012916   
     89. D(H  17,C  15,C  13,N  12)    -60.1881         0.012916   
     90. D(H  16,C  15,C  13,O  19)   -115.8285         0.012916   
     91. D(H  16,C  15,C  13,N  12)     64.1469         0.012916   
    -----------------------------------------------------------------

Number of atoms                         .... 20
Number of degrees of freedom            .... 91

         *************************************************************
         *                GEOMETRY OPTIMIZATION CYCLE   1            *
         *************************************************************
---------------------------------
CARTESIAN COORDINATES (ANGSTROEM)
---------------------------------
  C     -3.000860    2.281810   -0.013040
  C     -4.381960    2.017470    0.018210
  C     -4.873470    0.708000    0.026710
  C     -3.978150   -0.350800    0.008350
  C     -2.610800   -0.114530   -0.021470
  C     -2.122300    1.198720   -0.034440
  H     -5.101060    2.834330    0.035030
  H     -5.946170    0.541910    0.049340
  H     -1.047630    1.308690   -0.064860
  H     -1.917770   -0.952170   -0.038090
  O     -4.401490   -1.645090    0.016520
  H     -5.372930   -1.656840    0.036200
  N     -2.637400    3.640470   -0.028260
  C     -1.456620    4.317570    0.002200
  H     -3.406410    4.302230   -0.053290
  C     -0.132460    3.615540    0.049740
  H      0.019240    3.034040   -0.866670
  H     -0.060970    2.995370    0.945960
  H      0.669290    4.362920    0.098060
  O     -1.502930    5.552040   -0.011000

----------------------------
CARTESIAN COORDINATES (A.U.)
----------------------------
  NO LB      ZA    FRAG     MASS         X           Y           Z
   0 C     6.0000    0    12.011   -5.670804    4.311996   -0.024642
   1 C     6.0000    0    12.011   -8.280704    3.812466    0.034412
   2 C     6.0000    0    12.011   -9.209524    1.337926    0.050475
   3 C     6.0000    0    12.011   -7.517614   -0.662916    0.015779
   4 C     6.0000    0    12.011   -4.933697   -0.216430   -0.040572
   5 C     6.0000    0    12.011   -4.010566    2.265253   -0.065082
   6 H     1.0000    0     1.008   -9.639606    5.356107    0.066197
   7 H     1.0000    0     1.008  -11.236633    1.024061    0.093239
   8 H     1.0000    0     1.008   -1.979734    2.473066   -0.122568
   9 H     1.0000    0     1.008   -3.624060   -1.799341   -0.071980
  10 O     8.0000    0    15.999   -8.317611   -3.108770    0.031218
  11 H     1.0000    0     1.008  -10.153366   -3.130974    0.068408
  12 N     7.0000    0    14.007   -4.983964    6.879491   -0.053404
  13 C     6.0000    0    12.011   -2.752613    8.159025    0.004157
  14 H     1.0000    0     1.008   -6.437182    8.130036   -0.100704
  15 C     6.0000    0    12.011   -0.250313    6.832380    0.093995
  16 H     1.0000    0     1.008    0.036358    5.733505   -1.637769
  17 H     1.0000    0     1.008   -0.115217    5.660429    1.787605
  18 H     1.0000    0     1.008    1.264775    8.244724    0.185307
  19 O     8.0000    0    15.999   -2.840126   10.491835   -0.020787

--------------------------------
INTERNAL COORDINATES (ANGSTROEM)
--------------------------------
 C      0   0   0     0.000000000000     0.00000000     0.00000000
 C      1   0   0     1.406516764244     0.00000000     0.00000000
 C      2   1   0     1.398701544648   121.40868802     0.00000000
 C      3   2   1     1.386720026537   119.19985844     0.21537592
 C      4   3   2     1.387933272099   120.42244224   359.84070026
 C      1   2   3     1.394779402522   118.22330053   359.94510650
 H      2   1   3     1.088415353622   120.53338097   180.09223851
 H      3   2   1     1.085717870812   119.37578961   180.10452459
 H      6   1   2     1.080710130516   123.21521949   179.62068539
 H      5   4   3     1.087293693029   119.80971348   180.14727902
 O      4   3   2     1.361789304041   121.66106817   179.95117550
 H     11   4   3     0.971710367599   108.80801626     0.00000000
 N      1   2   3     1.406517620082   115.81881443   179.55770317
 C     13   1   2     1.361482144576   134.77104175   176.46411916
 H     13   1   2     1.014854264710   115.74339309   357.61562436
 C     14  13   1     1.499501876658   122.25820144     0.80657252
 H     16  14  13     1.095884313283   110.13007962    64.14693871
 H     16  14  13     1.092214236036   110.46589451   299.81187028
 H     16  14  13     1.097139348169   109.13437567   181.67266825
 O     14  13   1     1.235408854186   117.65835329   180.78258325

---------------------------
INTERNAL COORDINATES (A.U.)
---------------------------
 C      0   0   0     0.000000000000     0.00000000     0.00000000
 C      1   0   0     2.657931487191     0.00000000     0.00000000
 C      2   1   0     2.643162862477   121.40868802     0.00000000
 C      3   2   1     2.620521074580   119.19985844     0.21537592
 C      4   3   2     2.622813776425   120.42244224   359.84070026
 C      1   2   3     2.635751088001   118.22330053   359.94510650
 H      2   1   3     2.056806938301   120.53338097   180.09223851
 H      3   2   1     2.051709434538   119.37578961   180.10452459
 H      6   1   2     2.042246176830   123.21521949   179.62068539
 H      5   4   3     2.054687306964   119.80971348   180.14727902
 O      4   3   2     2.573408836740   121.66106817   179.95117550
 H     11   4   3     1.836266476255   108.80801626     0.00000000
 N      1   2   3     2.657933104489   115.81881443   179.55770317
 C     13   1   2     2.572828389473   134.77104175   176.46411916
 H     13   1   2     1.917796626144   115.74339309   357.61562436
 C     14  13   1     2.833647884184   122.25820144     0.80657252
 H     16  14  13     2.070921226565   110.13007962    64.14693871
 H     16  14  13     2.063985785678   110.46589451   299.81187028
 H     16  14  13     2.073292898788   109.13437567   181.67266825
 O     14  13   1     2.334584397832   117.65835329   180.78258325

---------------------
BASIS SET INFORMATION
---------------------
There are 4 groups of distinct atoms

 Group   1 Type C   : 18s5p2d1f contracted to 4s3p2d1f pattern {8811/311/11/1}
 Group   2 Type H   : 5s2p1d contracted to 3s2p1d pattern {311/11/1}
 Group   3 Type O   : 18s5p2d1f contracted to 4s3p2d1f pattern {8811/311/11/1}
 Group   4 Type N   : 18s5p2d1f contracted to 4s3p2d1f pattern {8811/311/11/1}

Atom   0C    basis set group =>   1
Atom   1C    basis set group =>   1
Atom   2C    basis set group =>   1
Atom   3C    basis set group =>   1
Atom   4C    basis set group =>   1
Atom   5C    basis set group =>   1
Atom   6H    basis set group =>   2
Atom   7H    basis set group =>   2
Atom   8H    basis set group =>   2
Atom   9H    basis set group =>   2
Atom  10O    basis set group =>   3
Atom  11H    basis set group =>   2
Atom  12N    basis set group =>   4
Atom  13C    basis set group =>   1
Atom  14H    basis set group =>   2
Atom  15C    basis set group =>   1
Atom  16H    basis set group =>   2
Atom  17H    basis set group =>   2
Atom  18H    basis set group =>   2
Atom  19O    basis set group =>   3
---------------------------------
AUXILIARY/J BASIS SET INFORMATION
---------------------------------
There are 4 groups of distinct atoms

 Group   1 Type C   : 12s5p4d2f1g contracted to 6s4p3d1f1g pattern {711111/2111/211/2/1}
 Group   2 Type H   : 5s2p1d contracted to 3s1p1d pattern {311/2/1}
 Group   3 Type O   : 12s5p4d2f1g contracted to 6s4p3d1f1g pattern {711111/2111/211/2/1}
 Group   4 Type N   : 12s5p4d2f1g contracted to 6s4p3d1f1g pattern {711111/2111/211/2/1}

Atom   0C    basis set group =>   1
Atom   1C    basis set group =>   1
Atom   2C    basis set group =>   1
Atom   3C    basis set group =>   1
Atom   4C    basis set group =>   1
Atom   5C    basis set group =>   1
Atom   6H    basis set group =>   2
Atom   7H    basis set group =>   2
Atom   8H    basis set group =>   2
Atom   9H    basis set group =>   2
Atom  10O    basis set group =>   3
Atom  11H    basis set group =>   2
Atom  12N    basis set group =>   4
Atom  13C    basis set group =>   1
Atom  14H    basis set group =>   2
Atom  15C    basis set group =>   1
Atom  16H    basis set group =>   2
Atom  17H    basis set group =>   2
Atom  18H    basis set group =>   2
Atom  19O    basis set group =>   3
------------------------------------------------------------------------------
                           ORCA GTO INTEGRAL CALCULATION
                           -- RI-GTO INTEGRALS CHOSEN --
------------------------------------------------------------------------------
------------------------------------------------------------------------------
                   ___                                                        
                  /   \      - P O W E R E D   B Y -                         
                 /     \                                                     
                 |  |  |   _    _      __       _____    __    __             
                 |  |  |  | |  | |    /  \     |  _  \  |  |  /  |          
                  \  \/   | |  | |   /    \    | | | |  |  | /  /          
                 / \  \   | |__| |  /  /\  \   | |_| |  |  |/  /          
                |  |  |   |  __  | /  /__\  \  |    /   |      \           
                |  |  |   | |  | | |   __   |  |    \   |  |\   \          
                \     /   | |  | | |  |  |  |  | |\  \  |  | \   \       
                 \___/    |_|  |_| |__|  |__|  |_| \__\ |__|  \__/        
                                                                              
                      - O R C A' S   B I G   F R I E N D -                    
                                      &                                       
                       - I N T E G R A L  F E E D E R -                       
                                                                              
 v1 FN, 2020, v2 2021                                                         
------------------------------------------------------------------------------


Reading SHARK input file opt2.SHARKINP.tmp ... ok
----------------------
SHARK INTEGRAL PACKAGE
----------------------

Number of atoms                             ...     20
Number of basis functions                   ...    522
Number of shells                            ...    230
Maximum angular momentum                    ...      3
Integral batch strategy                     ... SHARK/LIBINT Hybrid
RI-J (if used) integral strategy            ... SPLIT-RIJ (Revised 2003 algorithm where possible)
Printlevel                                  ...      1
Contraction scheme used                     ... PARTIAL GENERAL contraction
Coulomb Range Separation                    ... NOT USED
Exchange Range Separation                   ... NOT USED
Finite Nucleus Model                        ... NOT USED
Auxiliary Coulomb fitting basis             ... AVAILABLE
   # of basis functions in Aux-J            ...    638
   # of shells in Aux-J                     ...    210
   Maximum angular momentum in Aux-J        ...      4
Auxiliary J/K fitting basis                 ... NOT available
Auxiliary Correlation fitting basis         ... NOT available
Auxiliary 'external' fitting basis          ... NOT available
Integral threshold                          ...     2.500000e-11
Primitive cut-off                           ...     2.500000e-12
Primitive pair pre-selection threshold      ...     2.500000e-12

Calculating pre-screening integrals         ... done (  0.4 sec) Dimension = 230
Calculating pre-screening integrals (ORCA)  ... done (  1.1 sec) Dimension = 164
Organizing shell pair data                  ... done (  0.5 sec)
Shell pair information
Total number of shell pairs                 ...     26565
Shell pairs after pre-screening             ...     17828
Total number of primitive shell pairs       ...     36645
Primitive shell pairs kept                  ...     22136
          la=0 lb=0:   5230 shell pairs
          la=1 lb=0:   5069 shell pairs
          la=1 lb=1:   1116 shell pairs
          la=2 lb=0:   2868 shell pairs
          la=2 lb=1:   1289 shell pairs
          la=2 lb=2:    386 shell pairs
          la=3 lb=0:   1081 shell pairs
          la=3 lb=1:    462 shell pairs
          la=3 lb=2:    272 shell pairs
          la=3 lb=3:     55 shell pairs

Calculating one electron integrals          ... done (  0.3 sec)
Calculating RI/J V-Matrix + Cholesky decomp.... done (  0.1 sec)
Calculating Nuclear repulsion               ... done (  0.0 sec) ENN=    570.982220183698 Eh

SHARK setup successfully completed in   3.9 seconds

Maximum memory used throughout the entire GTOINT-calculation: 172.7 MB
-------------------------------------------------------------------------------
                                 ORCA SCF
-------------------------------------------------------------------------------

------------
SCF SETTINGS
------------
Hamiltonian:
 Density Functional     Method          .... DFT(GTOs)
 Exchange Functional    Exchange        .... B88
   X-Alpha parameter    XAlpha          ....  0.666667
   Becke's b parameter  XBeta           ....  0.004200
 Correlation Functional Correlation     .... P86
 LDA part of GGA corr.  LDAOpt          .... PW91-LDA
 Gradients option       PostSCFGGA      .... off
   Density functional embedding theory  .... OFF
   NL short-range parameter             ....  4.400000
 RI-approximation to the Coulomb term is turned on
   Number of AuxJ basis functions       .... 638


General Settings:
 Integral files         IntName         .... opt2
 Hartree-Fock type      HFTyp           .... RHF
 Total Charge           Charge          ....    0
 Multiplicity           Mult            ....    1
 Number of Electrons    NEL             ....   80
 Basis Dimension        Dim             ....  456
 Nuclear Repulsion      ENuc            ....    570.9822201837 Eh

Convergence Acceleration:
 DIIS                   CNVDIIS         .... on
   Start iteration      DIISMaxIt       ....    12
   Startup error        DIISStart       ....  0.200000
   # of expansion vecs  DIISMaxEq       ....     5
   Bias factor          DIISBfac        ....   1.050
   Max. coefficient     DIISMaxC        ....  10.000
 Trust-Rad. Augm. Hess. CNVTRAH         .... auto
   Auto Start mean grad. ratio tolernc. ....  1.125000
   Auto Start start iteration           ....    20
   Auto Start num. interpolation iter.  ....    10
   Max. Number of Micro iterations      ....    16
   Max. Number of Macro iterations      .... Maxiter - #DIIS iter
   Number of Davidson start vectors     ....     2
   Converg. threshold I  (grad. norm)   ....   1.000e-05
   Converg. threshold II (energy diff.) ....   1.000e-08
   Grad. Scal. Fac. for Micro threshold ....   0.100
   Minimum threshold for Micro iter.    ....   0.010
   NR start threshold (gradient norm)   ....   0.001
   Initial trust radius                 ....   0.400
   Minimum AH scaling param. (alpha)    ....   1.000
   Maximum AH scaling param. (alpha)    .... 1000.000
   Orbital update algorithm             .... Taylor
   White noise on init. David. guess    .... on
   Maximum white noise                  ....   0.010
   Quad. conv. algorithm                .... NR
 SOSCF                  CNVSOSCF        .... on
   Start iteration      SOSCFMaxIt      ....   150
   Startup grad/error   SOSCFStart      ....  0.003300
 Level Shifting         CNVShift        .... on
   Level shift para.    LevelShift      ....    0.2500
   Turn off err/grad.   ShiftErr        ....    0.0010
 Zerner damping         CNVZerner       .... off
 Static damping         CNVDamp         .... on
   Fraction old density DampFac         ....    0.7000
   Max. Damping (<1)    DampMax         ....    0.9800
   Min. Damping (>=0)   DampMin         ....    0.0000
   Turn off err/grad.   DampErr         ....    0.1000
 Fernandez-Rico         CNVRico         .... off

SCF Procedure:
 Maximum # iterations   MaxIter         ....   125
 SCF integral mode      SCFMode         .... Direct
   Integral package                     .... SHARK and LIBINT hybrid scheme
 Reset frequency        DirectResetFreq ....    20
 Integral Threshold     Thresh          ....  2.500e-11 Eh
 Primitive CutOff       TCut            ....  2.500e-12 Eh

Convergence Tolerance:
 Convergence Check Mode ConvCheckMode   .... Total+1el-Energy
 Convergence forced     ConvForced      .... 0
 Energy Change          TolE            ....  1.000e-08 Eh
 1-El. energy change                    ....  1.000e-05 Eh
 Orbital Gradient       TolG            ....  1.000e-05
 Orbital Rotation angle TolX            ....  1.000e-05
 DIIS Error             TolErr          ....  5.000e-07


Diagonalization of the overlap matrix:
Smallest eigenvalue                        ... 3.525e-05
Time for diagonalization                   ...    0.068 sec
Threshold for overlap eigenvalues          ... 1.000e-08
Number of eigenvalues below threshold      ... 0
Time for construction of square roots      ...    0.040 sec
Total time needed                          ...    0.109 sec

Time for model grid setup =    1.134 sec

------------------------------
INITIAL GUESS: MODEL POTENTIAL
------------------------------
Loading Hartree-Fock densities                     ... done
Calculating cut-offs                               ... done
Initializing the effective Hamiltonian             ... done
Setting up the integral package (SHARK)            ... done
Starting the Coulomb interaction                   ... done (   2.9 sec)
Reading the grid                                   ... done
Mapping shells                                     ... done
Starting the XC term evaluation                    ... done (   3.3 sec)
  promolecular density results
     # of electrons  =     79.999919317
     EX              =    -66.807888751
     EC              =     -2.931572305
     EX+EC           =    -69.739461056
Transforming the Hamiltonian                       ... done (   0.0 sec)
Diagonalizing the Hamiltonian                      ... done (   0.1 sec)
Back transforming the eigenvectors                 ... done (   0.0 sec)
Now organizing SCF variables                       ... done
                      ------------------
                      INITIAL GUESS DONE (   7.5 sec)
                      ------------------
-------------------
DFT GRID GENERATION
-------------------

General Integration Accuracy     IntAcc      ... 4.388
Radial Grid Type                 RadialGrid  ... OptM3 with GC (2021)
Angular Grid (max. ang.)         AngularGrid ... 4 (Lebedev-302)
Angular grid pruning method      GridPruning ... 4 (adaptive)
Weight generation scheme         WeightScheme... Becke
Basis function cutoff            BFCut       ... 1.0000e-11
Integration weight cutoff        WCut        ... 1.0000e-14
Angular grids for H and He will be reduced by one unit
Partially contracted basis set               ... off
Rotationally invariant grid construction     ... off

Total number of grid points                  ...    95035
Total number of batches                      ...     1496
Average number of points per batch           ...       63
Average number of grid points per atom       ...     4752
Time for grid setup =    4.332 sec

--------------
SCF ITERATIONS
--------------
ITER       Energy         Delta-E        Max-DP      RMS-DP      [F,P]     Damp
               ***  Starting incremental Fock matrix formation  ***
  0   -515.3597078959   0.000000000000 0.11319235  0.00130779  0.3098275 0.7000
  1   -515.5172613021  -0.157553406206 0.08977700  0.00090779  0.0918242 0.7000
                               ***Turning on DIIS***
  2   -515.5671188312  -0.049857529083 0.09737225  0.00101915  0.0333689 0.0000
  3   -515.6534119129  -0.086293081696 0.06830910  0.00068016  0.0576415 0.0000
  4   -515.6724563984  -0.019044485532 0.01293898  0.00014148  0.0363202 0.0000
  5   -515.6750550016  -0.002598603229 0.00680532  0.00006059  0.0066469 0.0000
                      *** Initiating the SOSCF procedure ***
                           *** Shutting down DIIS ***
                      *** Re-Reading the Fockian *** 
                      *** Removing any level shift *** 
ITER      Energy       Delta-E        Grad      Rot      Max-DP    RMS-DP
  6   -515.67517078  -0.0001157791  0.000280  0.000280  0.002705  0.000032
               *** Restarting incremental Fock matrix formation ***
  7   -515.67517391  -0.0000031305  0.000402  0.003124  0.001397  0.000018
  8   -515.67515180   0.0000221063  0.001116  0.002416  0.000683  0.000013
  9   -515.67517780  -0.0000259932  0.000143  0.000475  0.000495  0.000006
 10   -515.67517539   0.0000024037  0.000351  0.000341  0.000366  0.000005
 11   -515.67517829  -0.0000028917  0.000051  0.000290  0.000133  0.000003
 12   -515.67517789   0.0000003924  0.000121  0.000219  0.000108  0.000002
 13   -515.67517836  -0.0000004649  0.000007  0.000024  0.000024  0.000000
 14   -515.67517835   0.0000000091  0.000014  0.000023  0.000015  0.000000
                  ***Gradient check signals convergence***
              ***Rediagonalizing the Fockian in SOSCF/NRSCF***

               *****************************************************
               *                     SUCCESS                       *
               *           SCF CONVERGED AFTER  15 CYCLES          *
               *****************************************************


----------------
TOTAL SCF ENERGY
----------------

Total Energy       :         -515.67517836 Eh          -14032.23499 eV

Components:
Nuclear Repulsion  :          570.98222018 Eh           15537.21611 eV
Electronic Energy  :        -1086.65739854 Eh          -29569.45110 eV
One Electron Energy:        -1831.99777926 Eh          -49851.19396 eV
Two Electron Energy:          745.34038072 Eh           20281.74286 eV

Virial components:
Potential Energy   :        -1028.12450672 Eh          -27976.69014 eV
Kinetic Energy     :          512.44932836 Eh           13944.45515 eV
Virial Ratio       :            2.00629496


DFT components:
N(Alpha)           :       39.999982844978 electrons
N(Beta)            :       39.999982844978 electrons
N(Total)           :       79.999965689956 electrons
E(X)               :      -68.007884397181 Eh       
E(C)               :       -2.931171233154 Eh       
E(XC)              :      -70.939055630335 Eh       
DFET-embed. en.    :        0.000000000000 Eh       

---------------
SCF CONVERGENCE
---------------

  Last Energy change         ...   -8.4566e-09  Tolerance :   1.0000e-08
  Last MAX-Density change    ...    1.2517e-05  Tolerance :   1.0000e-07
  Last RMS-Density change    ...    1.9077e-07  Tolerance :   5.0000e-09
  Last Orbital Gradient      ...    2.3934e-06  Tolerance :   1.0000e-05
  Last Orbital Rotation      ...    1.3096e-05  Tolerance :   1.0000e-05

             **** THE GBW FILE WAS UPDATED (opt2.gbw) ****
             **** DENSITY opt2.scfp WAS UPDATED ****
             **** ENERGY FILE WAS UPDATED (opt2.en.tmp) ****
             **** THE GBW FILE WAS UPDATED (opt2.gbw) ****
             **** DENSITY opt2.scfp WAS UPDATED ****
----------------
ORBITAL ENERGIES
----------------

  NO   OCC          E(Eh)            E(eV) 
   0   2.0000     -18.809936      -511.8444 
   1   2.0000     -18.731680      -509.7149 
   2   2.0000     -14.045231      -382.1902 
   3   2.0000      -9.997594      -272.0484 
   4   2.0000      -9.967187      -271.2210 
   5   2.0000      -9.958301      -270.9792 
   6   2.0000      -9.920316      -269.9455 
   7   2.0000      -9.917071      -269.8572 
   8   2.0000      -9.916778      -269.8492 
   9   2.0000      -9.911717      -269.7115 
  10   2.0000      -9.908343      -269.6197 
  11   2.0000      -0.987243       -26.8642 
  12   2.0000      -0.951621       -25.8949 
  13   2.0000      -0.864962       -23.5368 
  14   2.0000      -0.784162       -21.3381 
  15   2.0000      -0.699690       -19.0395 
  16   2.0000      -0.687865       -18.7178 
  17   2.0000      -0.677094       -18.4247 
  18   2.0000      -0.596056       -16.2195 
  19   2.0000      -0.570643       -15.5280 
  20   2.0000      -0.535269       -14.5654 
  21   2.0000      -0.510833       -13.9005 
  22   2.0000      -0.492765       -13.4088 
  23   2.0000      -0.441664       -12.0183 
  24   2.0000      -0.421763       -11.4768 
  25   2.0000      -0.418737       -11.3944 
  26   2.0000      -0.409167       -11.1340 
  27   2.0000      -0.394944       -10.7470 
  28   2.0000      -0.381646       -10.3851 
  29   2.0000      -0.377411       -10.2699 
  30   2.0000      -0.367105        -9.9894 
  31   2.0000      -0.354692        -9.6516 
  32   2.0000      -0.352440        -9.5904 
  33   2.0000      -0.335469        -9.1286 
  34   2.0000      -0.315489        -8.5849 
  35   2.0000      -0.314547        -8.5592 
  36   2.0000      -0.258817        -7.0428 
  37   2.0000      -0.245734        -6.6868 
  38   2.0000      -0.210286        -5.7222 
  39   2.0000      -0.189311        -5.1514 
  40   0.0000      -0.060677        -1.6511 
  41   0.0000      -0.045966        -1.2508 
  42   0.0000      -0.001183        -0.0322 
  43   0.0000       0.003763         0.1024 
  44   0.0000       0.016439         0.4473 
  45   0.0000       0.034076         0.9272 
  46   0.0000       0.043078         1.1722 
  47   0.0000       0.071117         1.9352 
  48   0.0000       0.080283         2.1846 
  49   0.0000       0.083765         2.2794 
  50   0.0000       0.100289         2.7290 
  51   0.0000       0.113766         3.0957 
  52   0.0000       0.114848         3.1252 
  53   0.0000       0.138399         3.7660 
  54   0.0000       0.140439         3.8215 
  55   0.0000       0.162646         4.4258 
  56   0.0000       0.174904         4.7594 
  57   0.0000       0.193929         5.2771 
  58   0.0000       0.214304         5.8315 
  59   0.0000       0.219450         5.9715 
  60   0.0000       0.234031         6.3683 
  61   0.0000       0.243741         6.6325 
  62   0.0000       0.245850         6.6899 
  63   0.0000       0.256194         6.9714 
  64   0.0000       0.265842         7.2339 
  65   0.0000       0.282254         7.6805 
  66   0.0000       0.284945         7.7538 
  67   0.0000       0.287853         7.8329 
  68   0.0000       0.289272         7.8715 
  69   0.0000       0.305957         8.3255 
  70   0.0000       0.309979         8.4349 
  71   0.0000       0.329401         8.9635 
  72   0.0000       0.335106         9.1187 
  73   0.0000       0.346363         9.4250 
  74   0.0000       0.350715         9.5434 
  75   0.0000       0.359510         9.7828 
  76   0.0000       0.365689         9.9509 
  77   0.0000       0.372552        10.1376 
  78   0.0000       0.379537        10.3277 
  79   0.0000       0.391438        10.6516 
  80   0.0000       0.401774        10.9328 
  81   0.0000       0.413342        11.2476 
  82   0.0000       0.420010        11.4291 
  83   0.0000       0.436396        11.8749 
  84   0.0000       0.439353        11.9554 
  85   0.0000       0.445467        12.1218 
  86   0.0000       0.453858        12.3501 
  87   0.0000       0.461544        12.5593 
  88   0.0000       0.462548        12.5866 
  89   0.0000       0.472889        12.8680 
  90   0.0000       0.475918        12.9504 
  91   0.0000       0.479139        13.0380 
  92   0.0000       0.491202        13.3663 
  93   0.0000       0.495725        13.4894 
  94   0.0000       0.519223        14.1288 
  95   0.0000       0.528784        14.3889 
  96   0.0000       0.542835        14.7713 
  97   0.0000       0.558779        15.2052 
  98   0.0000       0.566119        15.4049 
  99   0.0000       0.579634        15.7726 
 100   0.0000       0.597457        16.2576 
 101   0.0000       0.610439        16.6109 
 102   0.0000       0.617375        16.7996 
 103   0.0000       0.620528        16.8854 
 104   0.0000       0.635206        17.2848 
 105   0.0000       0.638099        17.3636 
 106   0.0000       0.657798        17.8996 
 107   0.0000       0.669614        18.2211 
 108   0.0000       0.684203        18.6181 
 109   0.0000       0.688224        18.7275 
 110   0.0000       0.696986        18.9659 
 111   0.0000       0.702788        19.1238 
 112   0.0000       0.722442        19.6586 
 113   0.0000       0.727641        19.8001 
 114   0.0000       0.728961        19.8360 
 115   0.0000       0.742828        20.2134 
 116   0.0000       0.750128        20.4120 
 117   0.0000       0.758736        20.6463 
 118   0.0000       0.777225        21.1494 
 119   0.0000       0.783553        21.3215 
 120   0.0000       0.806032        21.9332 
 121   0.0000       0.825061        22.4511 
 122   0.0000       0.834023        22.6949 
 123   0.0000       0.845290        23.0015 
 124   0.0000       0.857196        23.3255 
 125   0.0000       0.888884        24.1878 
 126   0.0000       0.896686        24.4001 
 127   0.0000       0.908047        24.7092 
 128   0.0000       0.923145        25.1200 
 129   0.0000       0.933258        25.3952 
 130   0.0000       0.940949        25.6045 
 131   0.0000       0.947070        25.7711 
 132   0.0000       0.950530        25.8652 
 133   0.0000       0.979073        26.6419 
 134   0.0000       0.985941        26.8288 
 135   0.0000       0.991397        26.9773 
 136   0.0000       1.013649        27.5828 
 137   0.0000       1.031010        28.0552 
 138   0.0000       1.050424        28.5835 
 139   0.0000       1.058597        28.8059 
 140   0.0000       1.082483        29.4559 
 141   0.0000       1.086674        29.5699 
 142   0.0000       1.087243        29.5854 
 143   0.0000       1.103644        30.0317 
 144   0.0000       1.137718        30.9589 
 145   0.0000       1.142697        31.0944 
 146   0.0000       1.152283        31.3552 
 147   0.0000       1.160112        31.5682 
 148   0.0000       1.164486        31.6873 
 149   0.0000       1.165048        31.7026 
 150   0.0000       1.192159        32.4403 
 151   0.0000       1.204055        32.7640 
 152   0.0000       1.207700        32.8632 
 153   0.0000       1.226107        33.3641 
 154   0.0000       1.241111        33.7723 
 155   0.0000       1.256101        34.1803 
 156   0.0000       1.267103        34.4796 
 157   0.0000       1.282168        34.8896 
 158   0.0000       1.290660        35.1206 
 159   0.0000       1.295574        35.2544 
 160   0.0000       1.299585        35.3635 
 161   0.0000       1.314869        35.7794 
 162   0.0000       1.323373        36.0108 
 163   0.0000       1.331711        36.2377 
 164   0.0000       1.343409        36.5560 
 165   0.0000       1.351820        36.7849 
 166   0.0000       1.358047        36.9543 
 167   0.0000       1.378752        37.5178 
 168   0.0000       1.383295        37.6414 
 169   0.0000       1.388217        37.7753 
 170   0.0000       1.439921        39.1822 
 171   0.0000       1.461025        39.7565 
 172   0.0000       1.470390        40.0114 
 173   0.0000       1.476714        40.1834 
 174   0.0000       1.481452        40.3124 
 175   0.0000       1.565828        42.6083 
 176   0.0000       1.577301        42.9206 
 177   0.0000       1.587792        43.2060 
 178   0.0000       1.617609        44.0174 
 179   0.0000       1.633701        44.4553 
 180   0.0000       1.665858        45.3303 
 181   0.0000       1.695605        46.1397 
 182   0.0000       1.768523        48.1240 
 183   0.0000       1.781100        48.4662 
 184   0.0000       1.789158        48.6855 
 185   0.0000       1.825543        49.6756 
 186   0.0000       1.839442        50.0538 
 187   0.0000       1.844208        50.1835 
 188   0.0000       1.855441        50.4891 
 189   0.0000       1.858348        50.5682 
 190   0.0000       1.904973        51.8369 
 191   0.0000       1.938113        52.7387 
 192   0.0000       1.959783        53.3284 
 193   0.0000       2.000803        54.4446 
 194   0.0000       2.028655        55.2025 
 195   0.0000       2.031953        55.2922 
 196   0.0000       2.057622        55.9907 
 197   0.0000       2.075871        56.4873 
 198   0.0000       2.085348        56.7452 
 199   0.0000       2.088203        56.8229 
 200   0.0000       2.092365        56.9361 
 201   0.0000       2.100745        57.1642 
 202   0.0000       2.143801        58.3358 
 203   0.0000       2.150087        58.5068 
 204   0.0000       2.153107        58.5890 
 205   0.0000       2.195191        59.7342 
 206   0.0000       2.204581        59.9897 
 207   0.0000       2.233536        60.7776 
 208   0.0000       2.256309        61.3973 
 209   0.0000       2.266089        61.6634 
 210   0.0000       2.290964        62.3403 
 211   0.0000       2.310530        62.8727 
 212   0.0000       2.343538        63.7709 
 213   0.0000       2.351478        63.9870 
 214   0.0000       2.366283        64.3898 
 215   0.0000       2.390074        65.0372 
 216   0.0000       2.396453        65.2108 
 217   0.0000       2.401096        65.3371 
 218   0.0000       2.422582        65.9218 
 219   0.0000       2.478684        67.4484 
 220   0.0000       2.481428        67.5231 
 221   0.0000       2.492449        67.8230 
 222   0.0000       2.504118        68.1405 
 223   0.0000       2.535485        68.9941 
 224   0.0000       2.548217        69.3405 
 225   0.0000       2.553992        69.4977 
 226   0.0000       2.567632        69.8688 
 227   0.0000       2.592942        70.5575 
 228   0.0000       2.602460        70.8165 
 229   0.0000       2.622809        71.3703 
 230   0.0000       2.632455        71.6327 
 231   0.0000       2.633867        71.6712 
 232   0.0000       2.649466        72.0956 
 233   0.0000       2.659799        72.3768 
 234   0.0000       2.666319        72.5542 
 235   0.0000       2.695955        73.3607 
 236   0.0000       2.700684        73.4893 
 237   0.0000       2.722092        74.0719 
 238   0.0000       2.724185        74.1289 
 239   0.0000       2.743726        74.6606 
 240   0.0000       2.747642        74.7671 
 241   0.0000       2.769357        75.3580 
 242   0.0000       2.784118        75.7597 
 243   0.0000       2.801098        76.2217 
 244   0.0000       2.807082        76.3846 
 245   0.0000       2.814479        76.5859 
 246   0.0000       2.835567        77.1597 
 247   0.0000       2.844660        77.4071 
 248   0.0000       2.846002        77.4437 
 249   0.0000       2.858346        77.7795 
 250   0.0000       2.866657        78.0057 
 251   0.0000       2.883608        78.4670 
 252   0.0000       2.892333        78.7044 
 253   0.0000       2.905086        79.0514 
 254   0.0000       2.919099        79.4327 
 255   0.0000       2.922382        79.5221 
 256   0.0000       2.943637        80.1004 
 257   0.0000       2.955387        80.4202 
 258   0.0000       2.958974        80.5178 
 259   0.0000       2.972023        80.8729 
 260   0.0000       2.982449        81.1566 
 261   0.0000       2.986652        81.2709 
 262   0.0000       2.991657        81.4071 
 263   0.0000       2.999651        81.6246 
 264   0.0000       3.006823        81.8198 
 265   0.0000       3.015939        82.0679 
 266   0.0000       3.029059        82.4249 
 267   0.0000       3.032637        82.5222 
 268   0.0000       3.036088        82.6162 
 269   0.0000       3.048328        82.9492 
 270   0.0000       3.061620        83.3109 
 271   0.0000       3.070477        83.5519 
 272   0.0000       3.079545        83.7987 
 273   0.0000       3.128478        85.1302 
 274   0.0000       3.138260        85.3964 
 275   0.0000       3.153816        85.8197 
 276   0.0000       3.160271        85.9953 
 277   0.0000       3.186648        86.7131 
 278   0.0000       3.194406        86.9242 
 279   0.0000       3.206270        87.2470 
 280   0.0000       3.210074        87.3506 
 281   0.0000       3.225116        87.7599 
 282   0.0000       3.228886        87.8624 
 283   0.0000       3.253383        88.5290 
 284   0.0000       3.262187        88.7686 
 285   0.0000       3.271790        89.0299 
 286   0.0000       3.282439        89.3197 
 287   0.0000       3.294857        89.6576 
 288   0.0000       3.313232        90.1576 
 289   0.0000       3.326946        90.5308 
 290   0.0000       3.329128        90.5902 
 291   0.0000       3.337212        90.8102 
 292   0.0000       3.353814        91.2619 
 293   0.0000       3.369461        91.6877 
 294   0.0000       3.374724        91.8309 
 295   0.0000       3.381955        92.0277 
 296   0.0000       3.392925        92.3262 
 297   0.0000       3.410336        92.8000 
 298   0.0000       3.468402        94.3800 
 299   0.0000       3.475946        94.5853 
 300   0.0000       3.480270        94.7030 
 301   0.0000       3.524974        95.9194 
 302   0.0000       3.526290        95.9552 
 303   0.0000       3.547784        96.5401 
 304   0.0000       3.556946        96.7894 
 305   0.0000       3.579503        97.4032 
 306   0.0000       3.583240        97.5049 
 307   0.0000       3.593887        97.7946 
 308   0.0000       3.603435        98.0544 
 309   0.0000       3.610983        98.2599 
 310   0.0000       3.624287        98.6219 
 311   0.0000       3.657709        99.5313 
 312   0.0000       3.662563        99.6634 
 313   0.0000       3.674671        99.9929 
 314   0.0000       3.687148       100.3324 
 315   0.0000       3.703156       100.7680 
 316   0.0000       3.707674       100.8910 
 317   0.0000       3.722134       101.2844 
 318   0.0000       3.728911       101.4688 
 319   0.0000       3.730405       101.5095 
 320   0.0000       3.745389       101.9172 
 321   0.0000       3.759940       102.3132 
 322   0.0000       3.764106       102.4265 
 323   0.0000       3.773716       102.6880 
 324   0.0000       3.786657       103.0402 
 325   0.0000       3.808320       103.6296 
 326   0.0000       3.827624       104.1549 
 327   0.0000       3.830321       104.2283 
 328   0.0000       3.848947       104.7352 
 329   0.0000       3.862165       105.0949 
 330   0.0000       3.873014       105.3901 
 331   0.0000       3.890553       105.8673 
 332   0.0000       3.908979       106.3687 
 333   0.0000       3.931848       106.9910 
 334   0.0000       3.937734       107.1512 
 335   0.0000       3.958857       107.7260 
 336   0.0000       3.979347       108.2835 
 337   0.0000       3.985572       108.4529 
 338   0.0000       4.002728       108.9198 
 339   0.0000       4.006148       109.0128 
 340   0.0000       4.016205       109.2865 
 341   0.0000       4.048251       110.1585 
 342   0.0000       4.061825       110.5279 
 343   0.0000       4.067770       110.6897 
 344   0.0000       4.084205       111.1369 
 345   0.0000       4.099392       111.5501 
 346   0.0000       4.100293       111.5746 
 347   0.0000       4.130534       112.3975 
 348   0.0000       4.146208       112.8240 
 349   0.0000       4.155791       113.0848 
 350   0.0000       4.174133       113.5839 
 351   0.0000       4.186458       113.9193 
 352   0.0000       4.208506       114.5193 
 353   0.0000       4.210332       114.5690 
 354   0.0000       4.212816       114.6365 
 355   0.0000       4.222438       114.8984 
 356   0.0000       4.226253       115.0022 
 357   0.0000       4.254427       115.7688 
 358   0.0000       4.263289       116.0100 
 359   0.0000       4.277316       116.3917 
 360   0.0000       4.294270       116.8530 
 361   0.0000       4.350174       118.3743 
 362   0.0000       4.362566       118.7115 
 363   0.0000       4.382564       119.2556 
 364   0.0000       4.414835       120.1338 
 365   0.0000       4.434248       120.6620 
 366   0.0000       4.478954       121.8785 
 367   0.0000       4.521167       123.0272 
 368   0.0000       4.546691       123.7218 
 369   0.0000       4.581506       124.6691 
 370   0.0000       4.596093       125.0660 
 371   0.0000       4.624783       125.8467 
 372   0.0000       4.636544       126.1668 
 373   0.0000       4.657541       126.7381 
 374   0.0000       4.662977       126.8860 
 375   0.0000       4.674474       127.1989 
 376   0.0000       4.679518       127.3362 
 377   0.0000       4.705508       128.0434 
 378   0.0000       4.714727       128.2942 
 379   0.0000       4.744342       129.1001 
 380   0.0000       4.756097       129.4200 
 381   0.0000       4.764159       129.6393 
 382   0.0000       4.786349       130.2432 
 383   0.0000       4.873694       132.6200 
 384   0.0000       4.886489       132.9681 
 385   0.0000       4.901656       133.3808 
 386   0.0000       4.924714       134.0083 
 387   0.0000       4.963733       135.0700 
 388   0.0000       4.975656       135.3945 
 389   0.0000       4.981320       135.5486 
 390   0.0000       4.994640       135.9111 
 391   0.0000       5.014121       136.4412 
 392   0.0000       5.024799       136.7317 
 393   0.0000       5.045234       137.2878 
 394   0.0000       5.063199       137.7766 
 395   0.0000       5.071744       138.0092 
 396   0.0000       5.117991       139.2676 
 397   0.0000       5.149382       140.1218 
 398   0.0000       5.157133       140.3327 
 399   0.0000       5.199357       141.4817 
 400   0.0000       5.205448       141.6474 
 401   0.0000       5.213632       141.8701 
 402   0.0000       5.226412       142.2179 
 403   0.0000       5.241165       142.6193 
 404   0.0000       5.259209       143.1103 
 405   0.0000       5.347003       145.4993 
 406   0.0000       5.387001       146.5878 
 407   0.0000       5.406864       147.1282 
 408   0.0000       5.426610       147.6656 
 409   0.0000       5.495535       149.5411 
 410   0.0000       5.499347       149.6448 
 411   0.0000       5.548167       150.9733 
 412   0.0000       5.553135       151.1085 
 413   0.0000       5.596262       152.2820 
 414   0.0000       5.624723       153.0565 
 415   0.0000       5.682535       154.6296 
 416   0.0000       5.738249       156.1457 
 417   0.0000       5.779886       157.2787 
 418   0.0000       5.785423       157.4294 
 419   0.0000       5.797468       157.7571 
 420   0.0000       5.877093       159.9238 
 421   0.0000       5.902855       160.6249 
 422   0.0000       5.932234       161.4243 
 423   0.0000       5.997645       163.2042 
 424   0.0000       6.061439       164.9401 
 425   0.0000       6.125407       166.6808 
 426   0.0000       6.160472       167.6350 
 427   0.0000       6.183997       168.2751 
 428   0.0000       6.273787       170.7184 
 429   0.0000       6.277000       170.8059 
 430   0.0000       6.366614       173.2444 
 431   0.0000       6.409077       174.3999 
 432   0.0000       6.468734       176.0232 
 433   0.0000       6.523760       177.5205 
 434   0.0000       6.560734       178.5267 
 435   0.0000       6.641115       180.7139 
 436   0.0000       6.657051       181.1476 
 437   0.0000       6.683018       181.8542 
 438   0.0000       6.733403       183.2252 
 439   0.0000       6.826225       185.7510 
 440   0.0000       6.914936       188.1650 
 441   0.0000       6.962039       189.4467 
 442   0.0000       7.027658       191.2323 
 443   0.0000       7.182483       195.4453 
 444   0.0000       7.277795       198.0389 
 445   0.0000       8.489501       231.0111 
 446   0.0000       9.651972       262.6435 
 447   0.0000      11.767137       320.2001 
 448   0.0000      12.039825       327.6203 
 449   0.0000      12.395151       337.2892 
 450   0.0000      12.456298       338.9531 
 451   0.0000      12.643966       344.0598 
 452   0.0000      12.988993       353.4485 
 453   0.0000      13.254781       360.6809 
 454   0.0000      13.495475       367.2305 
 455   0.0000      15.112024       411.2191 

                    ********************************
                    * MULLIKEN POPULATION ANALYSIS *
                    ********************************

-----------------------
MULLIKEN ATOMIC CHARGES
-----------------------
   0 C :    0.149574
   1 C :   -0.156144
   2 C :   -0.190739
   3 C :    0.207541
   4 C :   -0.153803
   5 C :   -0.131433
   6 H :    0.094686
   7 H :    0.090887
   8 H :    0.112924
   9 H :    0.116589
  10 O :   -0.267880
  11 H :    0.210422
  12 N :   -0.095844
  13 C :    0.176984
  14 H :    0.132351
  15 C :   -0.311343
  16 H :    0.109723
  17 H :    0.110773
  18 H :    0.120882
  19 O :   -0.326150
Sum of atomic charges:   -0.0000000

--------------------------------
MULLIKEN REDUCED ORBITAL CHARGES
--------------------------------
  0 C s       :     3.121830  s :     3.121830
      pz      :     0.974718  p :     2.583516
      px      :     0.867525
      py      :     0.741273
      dz2     :     0.004939  d :     0.132153
      dxz     :     0.024178
      dyz     :     0.037921
      dx2y2   :     0.028206
      dxy     :     0.036909
      f0      :     0.002026  f :     0.012928
      f+1     :     0.000850
      f-1     :     0.001146
      f+2     :     0.001590
      f-2     :     0.001104
      f+3     :     0.002616
      f-3     :     0.003597
  1 C s       :     3.266127  s :     3.266127
      pz      :     1.000899  p :     2.812772
      px      :     0.876617
      py      :     0.935256
      dz2     :     0.005241  d :     0.068670
      dxz     :     0.017852
      dyz     :     0.014238
      dx2y2   :     0.013991
      dxy     :     0.017350
      f0      :     0.001364  f :     0.008574
      f+1     :     0.000689
      f-1     :     0.000675
      f+2     :     0.001188
      f-2     :     0.000411
      f+3     :     0.001813
      f-3     :     0.002434
  2 C s       :     3.252089  s :     3.252089
      pz      :     1.027318  p :     2.869144
      px      :     0.933549
      py      :     0.908277
      dz2     :     0.004348  d :     0.061140
      dxz     :     0.006957
      dyz     :     0.023627
      dx2y2   :     0.010798
      dxy     :     0.015411
      f0      :     0.001392  f :     0.008365
      f+1     :     0.000626
      f-1     :     0.000701
      f+2     :     0.000441
      f-2     :     0.001115
      f+3     :     0.001612
      f-3     :     0.002477
  3 C s       :     3.115315  s :     3.115315
      pz      :     0.947888  p :     2.507108
      px      :     0.841708
      py      :     0.717511
      dz2     :     0.006192  d :     0.154418
      dxz     :     0.027422
      dyz     :     0.038383
      dx2y2   :     0.052789
      dxy     :     0.029632
      f0      :     0.002428  f :     0.015617
      f+1     :     0.000886
      f-1     :     0.001319
      f+2     :     0.001924
      f-2     :     0.001458
      f+3     :     0.002768
      f-3     :     0.004834
  4 C s       :     3.275555  s :     3.275555
      pz      :     1.001673  p :     2.804130
      px      :     0.886508
      py      :     0.915948
      dz2     :     0.004856  d :     0.065619
      dxz     :     0.017740
      dyz     :     0.013388
      dx2y2   :     0.013217
      dxy     :     0.016419
      f0      :     0.001375  f :     0.008499
      f+1     :     0.000658
      f-1     :     0.000667
      f+2     :     0.001205
      f-2     :     0.000390
      f+3     :     0.001723
      f-3     :     0.002481
  5 C s       :     3.238892  s :     3.238892
      pz      :     0.998589  p :     2.811179
      px      :     0.949954
      py      :     0.862637
      dz2     :     0.004732  d :     0.073042
      dxz     :     0.006689
      dyz     :     0.024643
      dx2y2   :     0.022973
      dxy     :     0.014005
      f0      :     0.001341  f :     0.008319
      f+1     :     0.000615
      f-1     :     0.000725
      f+2     :     0.000412
      f-2     :     0.001109
      f+3     :     0.001498
      f-3     :     0.002620
  6 H s       :     0.866816  s :     0.866816
      pz      :     0.014092  p :     0.035879
      px      :     0.011343
      py      :     0.010444
      dz2     :     0.000148  d :     0.002620
      dxz     :     0.000360
      dyz     :     0.000493
      dx2y2   :     0.001261
      dxy     :     0.000358
  7 H s       :     0.869304  s :     0.869304
      pz      :     0.014760  p :     0.037165
      px      :     0.011932
      py      :     0.010473
      dz2     :     0.000154  d :     0.002644
      dxz     :     0.000840
      dyz     :     0.000043
      dx2y2   :     0.000435
      dxy     :     0.001173
  8 H s       :     0.845889  s :     0.845889
      pz      :     0.014630  p :     0.038515
      px      :     0.011459
      py      :     0.012427
      dz2     :     0.000114  d :     0.002672
      dxz     :     0.000819
      dyz     :     0.000053
      dx2y2   :     0.000392
      dxy     :     0.001294
  9 H s       :     0.848717  s :     0.848717
      pz      :     0.013456  p :     0.032094
      px      :     0.008827
      py      :     0.009811
      dz2     :     0.000114  d :     0.002600
      dxz     :     0.000332
      dyz     :     0.000541
      dx2y2   :     0.001249
      dxy     :     0.000364
 10 O s       :     3.727485  s :     3.727485
      pz      :     1.779289  p :     4.510771
      px      :     1.288851
      py      :     1.442630
      dz2     :     0.003912  d :     0.028110
      dxz     :     0.001045
      dyz     :     0.005966
      dx2y2   :     0.012115
      dxy     :     0.005072
      f0      :     0.000216  f :     0.001515
      f+1     :     0.000237
      f-1     :     0.000305
      f+2     :     0.000094
      f-2     :     0.000065
      f+3     :     0.000382
      f-3     :     0.000216
 11 H s       :     0.694564  s :     0.694564
      pz      :     0.036647  p :     0.087323
      px      :     0.030372
      py      :     0.020304
      dz2     :     0.000631  d :     0.007690
      dxz     :     0.003023
      dyz     :     0.000057
      dx2y2   :     0.002103
      dxy     :     0.001877
 12 N s       :     3.408818  s :     3.408818
      pz      :     1.542091  p :     3.626473
      px      :     1.060479
      py      :     1.023904
      dz2     :     0.004077  d :     0.056247
      dxz     :     0.006309
      dyz     :     0.011484
      dx2y2   :     0.017857
      dxy     :     0.016520
      f0      :     0.000706  f :     0.004306
      f+1     :     0.000558
      f-1     :     0.000713
      f+2     :     0.000231
      f-2     :     0.000324
      f+3     :     0.001059
      f-3     :     0.000716
 13 C s       :     3.111811  s :     3.111811
      pz      :     0.822776  p :     2.455970
      px      :     0.853371
      py      :     0.779823
      dz2     :     0.010462  d :     0.236517
      dxz     :     0.029331
      dyz     :     0.055224
      dx2y2   :     0.047139
      dxy     :     0.094362
      f0      :     0.002380  f :     0.018717
      f+1     :     0.000994
      f-1     :     0.001024
      f+2     :     0.002488
      f-2     :     0.001459
      f+3     :     0.006915
      f-3     :     0.003456
 14 H s       :     0.797298  s :     0.797298
      pz      :     0.024279  p :     0.064550
      px      :     0.018528
      py      :     0.021744
      dz2     :     0.000397  d :     0.005800
      dxz     :     0.001154
      dyz     :     0.000984
      dx2y2   :     0.001704
      dxy     :     0.001562
 15 C s       :     3.292643  s :     3.292643
      pz      :     0.991060  p :     2.972838
      px      :     0.944435
      py      :     1.037343
      dz2     :     0.007253  d :     0.042583
      dxz     :     0.006951
      dyz     :     0.009430
      dx2y2   :     0.008449
      dxy     :     0.010500
      f0      :     0.000219  f :     0.003278
      f+1     :     0.000267
      f-1     :     0.000798
      f+2     :    -0.000045
      f-2     :     0.000332
      f+3     :     0.000791
      f-3     :     0.000915
 16 H s       :     0.854477  s :     0.854477
      pz      :     0.008840  p :     0.033356
      px      :     0.012158
      py      :     0.012358
      dz2     :     0.000706  d :     0.002445
      dxz     :     0.000620
      dyz     :     0.000511
      dx2y2   :     0.000200
      dxy     :     0.000408
 17 H s       :     0.853376  s :     0.853376
      pz      :     0.008899  p :     0.033396
      px      :     0.012171
      py      :     0.012326
      dz2     :     0.000703  d :     0.002455
      dxz     :     0.000630
      dyz     :     0.000473
      dx2y2   :     0.000204
      dxy     :     0.000445
 18 H s       :     0.846662  s :     0.846662
      pz      :     0.010861  p :     0.029972
      px      :     0.008938
      py      :     0.010173
      dz2     :     0.000115  d :     0.002483
      dxz     :     0.000394
      dyz     :     0.000468
      dx2y2   :     0.001084
      dxy     :     0.000422
 19 O s       :     3.749693  s :     3.749693
      pz      :     1.407788  p :     4.542502
      px      :     1.771291
      py      :     1.363423
      dz2     :     0.003322  d :     0.031777
      dxz     :     0.000112
      dyz     :     0.010054
      dx2y2   :     0.010492
      dxy     :     0.007796
      f0      :     0.000195  f :     0.002178
      f+1     :     0.000030
      f-1     :     0.000290
      f+2     :     0.000434
      f-2     :     0.000012
      f+3     :     0.000577
      f-3     :     0.000639


                     *******************************
                     * LOEWDIN POPULATION ANALYSIS *
                     *******************************

----------------------
LOEWDIN ATOMIC CHARGES
----------------------
   0 C :   -0.146403
   1 C :    0.028168
   2 C :    0.008062
   3 C :   -0.243334
   4 C :    0.030118
   5 C :    0.027309
   6 H :   -0.028175
   7 H :   -0.030458
   8 H :   -0.033647
   9 H :   -0.021262
  10 O :    0.446746
  11 H :   -0.160847
  12 N :    0.435605
  13 C :   -0.449871
  14 H :   -0.054827
  15 C :    0.094675
  16 H :   -0.015892
  17 H :   -0.018154
  18 H :   -0.004750
  19 O :    0.136937

-------------------------------
LOEWDIN REDUCED ORBITAL CHARGES
-------------------------------
  0 C s       :     2.692105  s :     2.692105
      pz      :     0.884641  p :     2.776248
      px      :     1.006578
      py      :     0.885029
      dz2     :     0.038249  d :     0.605510
      dxz     :     0.078048
      dyz     :     0.123445
      dx2y2   :     0.193934
      dxy     :     0.171834
      f0      :     0.004762  f :     0.072541
      f+1     :     0.004102
      f-1     :     0.006108
      f+2     :     0.011623
      f-2     :     0.007859
      f+3     :     0.016701
      f-3     :     0.021386
  1 C s       :     2.704050  s :     2.704050
      pz      :     0.875243  p :     2.828222
      px      :     0.971466
      py      :     0.981513
      dz2     :     0.027510  d :     0.397356
      dxz     :     0.056280
      dyz     :     0.046402
      dx2y2   :     0.113252
      dxy     :     0.153913
      f0      :     0.002361  f :     0.042204
      f+1     :     0.003581
      f-1     :     0.003302
      f+2     :     0.007811
      f-2     :     0.002347
      f+3     :     0.009882
      f-3     :     0.012920
  2 C s       :     2.704613  s :     2.704613
      pz      :     0.889195  p :     2.851870
      px      :     0.963592
      py      :     0.999083
      dz2     :     0.028264  d :     0.392380
      dxz     :     0.017180
      dyz     :     0.081903
      dx2y2   :     0.144877
      dxy     :     0.120155
      f0      :     0.002406  f :     0.043076
      f+1     :     0.003220
      f-1     :     0.003868
      f+2     :     0.002730
      f-2     :     0.007607
      f+3     :     0.010251
      f-3     :     0.012994
  3 C s       :     2.704789  s :     2.704789
      pz      :     0.867845  p :     2.745054
      px      :     1.021423
      py      :     0.855786
      dz2     :     0.046723  d :     0.696967
      dxz     :     0.086329
      dyz     :     0.136999
      dx2y2   :     0.232977
      dxy     :     0.193941
      f0      :     0.006180  f :     0.096523
      f+1     :     0.004644
      f-1     :     0.008490
      f+2     :     0.013944
      f-2     :     0.011180
      f+3     :     0.019806
      f-3     :     0.032279
  4 C s       :     2.704421  s :     2.704421
      pz      :     0.872129  p :     2.835406
      px      :     0.982093
      py      :     0.981184
      dz2     :     0.027417  d :     0.387502
      dxz     :     0.053763
      dyz     :     0.043198
      dx2y2   :     0.115659
      dxy     :     0.147465
      f0      :     0.002445  f :     0.042553
      f+1     :     0.003659
      f-1     :     0.003325
      f+2     :     0.007759
      f-2     :     0.002295
      f+3     :     0.010031
      f-3     :     0.013039
  5 C s       :     2.700710  s :     2.700710
      pz      :     0.872186  p :     2.833098
      px      :     0.969149
      py      :     0.991764
      dz2     :     0.026629  d :     0.396281
      dxz     :     0.017214
      dyz     :     0.084092
      dx2y2   :     0.151551
      dxy     :     0.116795
      f0      :     0.002337  f :     0.042601
      f+1     :     0.003094
      f-1     :     0.003819
      f+2     :     0.002708
      f-2     :     0.007564
      f+3     :     0.010025
      f-3     :     0.013054
  6 H s       :     0.838667  s :     0.838667
      pz      :     0.046643  p :     0.160260
      px      :     0.053991
      py      :     0.059626
      dz2     :     0.002625  d :     0.029249
      dxz     :     0.003850
      dyz     :     0.005097
      dx2y2   :     0.009191
      dxy     :     0.008485
  7 H s       :     0.839656  s :     0.839656
      pz      :     0.048075  p :     0.161442
      px      :     0.076775
      py      :     0.036593
      dz2     :     0.002631  d :     0.029359
      dxz     :     0.008845
      dyz     :     0.000263
      dx2y2   :     0.008460
      dxy     :     0.009160
  8 H s       :     0.830756  s :     0.830756
      pz      :     0.048841  p :     0.172750
      px      :     0.082549
      py      :     0.041360
[...]
     35       0.012297   0.007796   0.000291  -0.000002  -0.000020  -0.000011
     36       0.042423   0.009946   0.036544   0.000092   0.000086   0.000506
     37      -0.000252   0.031797   0.083361  -0.000349  -0.000049   0.000001
     38       0.007168  -0.005699  -0.010586   0.000101   0.000092   0.000072
     39      -0.009824   0.010282  -0.045622  -0.000914  -0.001145  -0.001155
     40       0.026081  -0.019921  -0.612123  -0.000164   0.000060  -0.002239
     41      -0.016885   0.009810   0.138231  -0.000608   0.000563  -0.000285
     42      -0.130900  -0.036928  -0.384435  -0.000457   0.000759   0.000100
     43      -0.201065  -0.022858  -0.411030   0.001652  -0.000705   0.000003
     44      -0.015340  -0.005055  -0.040723  -0.000533   0.001000   0.000113
     45       0.002965  -0.002261  -0.008298   0.037347  -0.041375  -0.046467
     46      -0.001625   0.002853   0.049233  -0.034769  -0.001087  -0.076787
     47       0.001369  -0.000692  -0.019231   0.007150   0.080182  -0.022406
     48      -0.011279  -0.000564   0.025808  -0.443316   0.420338  -0.082777
     49      -0.007354  -0.003046   0.113925   0.294700  -0.292742   0.030284
     50      -0.008013   0.004172  -0.032215   0.479932  -0.439476   0.071885
     51       0.014772  -0.014984  -0.169846   0.222928   0.256269   0.191213
     52       0.000030  -0.003449   0.135013   0.393537   0.495382   0.353172
     53       0.013561  -0.018843   0.004064  -0.315581  -0.367118  -0.288233
     54      -0.008098   0.003658   0.146558  -0.213050  -0.171145   0.448249
     55      -0.002485   0.005683  -0.186499  -0.275943  -0.193272   0.544594
     56       0.013177  -0.011051   0.075437  -0.240416  -0.154071   0.484867
     57      -0.002440  -0.001805   0.037827   0.000120   0.000010   0.000289
     58      -0.020878   0.010494   0.369462   0.000505   0.000152   0.000803
     59       0.006340  -0.003870  -0.081401  -0.000044  -0.000044   0.000115
                 54         55         56         57         58         59    
      0      -0.000007   0.003099  -0.000280  -0.001102  -0.000195   0.000043
      1      -0.000739   0.002074   0.001433   0.003234  -0.000771  -0.000032
      2      -0.000050  -0.001199   0.000077   0.000433   0.000345  -0.000011
      3       0.017511  -0.048885   0.001829  -0.001822  -0.000144  -0.000147
      4      -0.019025   0.063329  -0.003106   0.001526  -0.000311  -0.000110
      5      -0.006964   0.019352  -0.000674   0.000762   0.000078   0.000077
      6      -0.074503  -0.027411   0.000042  -0.001884   0.000097   0.001293
      7      -0.011980  -0.007091  -0.000342   0.000021   0.000228   0.000727
      8       0.028867   0.010622  -0.000002   0.000694  -0.000020  -0.000514
      9       0.000492   0.001040   0.001913  -0.002447   0.000151  -0.002471
     10      -0.004003  -0.002017   0.001490  -0.001428  -0.000070   0.000785
     11      -0.000076  -0.000373  -0.000741   0.000988  -0.000008   0.000929
     12       0.000710  -0.002357  -0.041525   0.030561  -0.000088   0.000756
     13       0.000409   0.003535   0.051450  -0.042458   0.000014   0.000058
     14      -0.000282   0.000924   0.016086  -0.011677   0.000057  -0.000291
     15      -0.001251  -0.000145   0.045924   0.062998   0.000161  -0.000170
     16       0.000114  -0.000928   0.005932   0.012671  -0.000480   0.000024
     17       0.000599   0.000035  -0.020530  -0.028166  -0.000168   0.000045
     18      -0.199512   0.562656  -0.024040   0.016583   0.000341  -0.000148
     19       0.250432  -0.718668   0.031477  -0.019955   0.001159   0.000883
     20       0.079416  -0.223206   0.009635  -0.006380  -0.000985   0.000072
     21       0.865194   0.300331   0.000059   0.019651  -0.000509  -0.006167
     22       0.147897   0.054699   0.000286   0.003127  -0.000018  -0.003881
     23      -0.335647  -0.116627  -0.000116  -0.007625   0.000004   0.002434
     24       0.015087   0.001919  -0.541299  -0.717258  -0.001171   0.000307
     25       0.002382   0.001616  -0.095343  -0.130912   0.000034  -0.000367
     26      -0.006630  -0.001018   0.239743   0.317528   0.000520  -0.000139
     27      -0.003397   0.029620   0.473472  -0.354402   0.000296   0.000564
     28       0.002135  -0.039103  -0.610748   0.462218  -0.000383   0.000376
     29       0.001234  -0.011403  -0.183288   0.136980  -0.000205  -0.000224
     30      -0.000243  -0.000229  -0.000240   0.000290   0.000001  -0.057844
     31       0.000503   0.000356  -0.000097   0.000183  -0.000035  -0.003297
     32       0.000072   0.000089   0.000084  -0.000115  -0.000022   0.022151
     33       0.006924   0.003158   0.000368   0.000459  -0.000490   0.931530
     34       0.007434   0.001657  -0.001415   0.001647  -0.000034   0.036863
     35      -0.002821  -0.001281  -0.000167  -0.000251   0.000225  -0.356334
     36      -0.000248  -0.000199   0.000101   0.000060  -0.049095   0.000061
     37      -0.000019  -0.000210  -0.000123  -0.000332   0.045074   0.000110
     38      -0.000005  -0.000011   0.000056  -0.000007  -0.026338   0.000007
     39       0.000214   0.000052   0.000005   0.000206  -0.000908  -0.000142
     40       0.000234  -0.000113  -0.000225  -0.000138   0.001031  -0.000097
     41       0.000048   0.000118  -0.000004   0.000033  -0.000551   0.000008
     42       0.001197  -0.001947  -0.001024  -0.001119   0.688168   0.000555
     43       0.000707  -0.002586   0.000361  -0.000853  -0.621687  -0.000268
     44      -0.000335   0.001342  -0.000749  -0.000639   0.367125  -0.000082
     45       0.000918   0.000045  -0.000485  -0.000371   0.000477   0.000007
     46       0.001520   0.000310  -0.001976  -0.001665  -0.000391  -0.000005
     47       0.000491   0.000276  -0.000948  -0.000638   0.000071  -0.000005
     48       0.001542   0.001717  -0.008786  -0.007936  -0.001094   0.000052
     49      -0.000585  -0.000961   0.005329   0.004950   0.000942  -0.000057
     50      -0.001379  -0.001739   0.009321   0.008726   0.001181   0.000022
     51      -0.003542  -0.000128   0.004816   0.005116   0.000413  -0.000105
     52      -0.006619  -0.000135   0.007757   0.007864   0.000175  -0.000060
     53       0.005372   0.000507  -0.007522  -0.007564   0.000103  -0.000049
     54      -0.009295  -0.001967   0.010589   0.008149  -0.000701   0.000077
     55      -0.011188  -0.002528   0.013427   0.010548   0.000273   0.000095
     56      -0.010061  -0.002005   0.011442   0.008871   0.000226   0.000043
     57      -0.000039  -0.000032  -0.000013  -0.000068   0.000145   0.000030
     58      -0.000095  -0.000059   0.000054  -0.000030   0.000171   0.000072
     59       0.000005  -0.000025  -0.000008  -0.000002   0.000030  -0.000015


-----------
IR SPECTRUM
-----------

 Mode   freq       eps      Int      T**2         TX        TY        TZ
       cm**-1   L/(mol*cm) km/mol    a.u.
----------------------------------------------------------------------------
  6:     41.67   0.000352    1.78  0.002638  ( 0.036110  0.026406 -0.025233)
  7:     62.79   0.000398    2.01  0.001979  ( 0.024983 -0.000507 -0.036800)
  8:    100.85   0.000186    0.94  0.000576  (-0.019836  0.013334 -0.002185)
  9:    152.38   0.000011    0.05  0.000022  (-0.003691 -0.000623 -0.002801)
 10:    194.20   0.000341    1.72  0.000548  ( 0.015848  0.000649  0.017203)
 11:    314.47   0.000044    0.22  0.000044  ( 0.006041 -0.002727 -0.000310)
 12:    350.92   0.000451    2.28  0.000401  (-0.018197 -0.005595 -0.006186)
 13:    357.11   0.012404   62.68  0.010839  (-0.031884  0.011375 -0.098455)
 14:    361.42   0.006822   34.48  0.005891  ( 0.034320  0.024168  0.064254)
 15:    412.45   0.000335    1.69  0.000254  (-0.001490 -0.010437  0.011936)
 16:    419.41   0.002036   10.29  0.001515  (-0.010270 -0.037288  0.004389)
 17:    486.87   0.000331    1.68  0.000212  ( 0.010056  0.007256 -0.007660)
 18:    500.00   0.009008   45.52  0.005622  (-0.016808 -0.049648 -0.053614)
 19:    523.11   0.004418   22.33  0.002635  (-0.044600  0.004293 -0.025057)
 20:    583.64   0.002474   12.50  0.001323  (-0.009332 -0.034616  0.006106)
 21:    626.68   0.010532   53.22  0.005245  (-0.000687 -0.026900 -0.067234)
 22:    638.82   0.001727    8.73  0.000844  ( 0.005063  0.015847  0.023811)
 23:    703.83   0.000223    1.12  0.000099  (-0.008035  0.001383 -0.005675)
 24:    762.32   0.002366   11.96  0.000968  (-0.013502 -0.013209 -0.024733)
 25:    782.15   0.000508    2.57  0.000203  (-0.004544 -0.000555 -0.013485)
 26:    814.80   0.006727   34.00  0.002577  (-0.008414  0.018377 -0.046562)
 27:    822.25   0.003161   15.97  0.001200  ( 0.011448  0.022811  0.023416)
 28:    895.05   0.000449    2.27  0.000157  (-0.010035  0.003160 -0.006783)
 29:    906.19   0.000676    3.42  0.000233  ( 0.009274 -0.005200  0.010950)
 30:    930.95   0.000017    0.09  0.000006  (-0.001951  0.001168 -0.000834)
 31:    988.29   0.004304   21.75  0.001359  (-0.024477 -0.027158 -0.004737)
 32:    999.85   0.000022    0.11  0.000007  (-0.001063 -0.000120  0.002424)
 33:   1012.82   0.001214    6.14  0.000374  ( 0.013609  0.008944 -0.010435)
 34:   1094.26   0.003515   17.76  0.001002  ( 0.025564  0.012525 -0.013856)
 35:   1156.35   0.008321   42.05  0.002245  (-0.022341 -0.041764  0.001445)
 36:   1161.70   0.030107  152.15  0.008088  ( 0.022142  0.086702 -0.008955)
 37:   1217.05   0.003954   19.98  0.001014  ( 0.014176 -0.024181  0.015101)
 38:   1257.68   0.034073  172.19  0.008454  (-0.052961 -0.075100  0.003091)
 39:   1293.47   0.005247   26.51  0.001266  ( 0.032581  0.013358  0.005088)
 40:   1296.03   0.027138  137.14  0.006534  (-0.057586 -0.055545 -0.011527)
 41:   1346.47   0.022804  115.24  0.005285  ( 0.065415  0.027106  0.016468)
 42:   1352.39   0.009391   47.46  0.002167  (-0.026313 -0.037861  0.006415)
 43:   1394.75   0.002315   11.70  0.000518  (-0.015935 -0.015944 -0.003131)
 44:   1422.89   0.003063   15.48  0.000672  ( 0.011455  0.021490  0.008867)
 45:   1436.22   0.002117   10.70  0.000460  (-0.003853 -0.011299 -0.017819)
 46:   1450.14   0.003183   16.08  0.000685  (-0.006177  0.021980 -0.012793)
 47:   1503.96   0.042823  216.41  0.008886  (-0.036647 -0.086455  0.008261)
 48:   1588.65   0.000778    3.93  0.000153  (-0.002783 -0.012040  0.000271)
 49:   1613.23   0.001255    6.34  0.000243  ( 0.005200  0.014226 -0.003661)
 50:   1695.37   0.088749  448.50  0.016336  (-0.039310 -0.120654  0.015273)
 51:   2979.45   0.000721    3.65  0.000076  ( 0.005831 -0.005931  0.002528)
 52:   3044.26   0.001367    6.91  0.000140  (-0.000979 -0.000023  0.011798)
 53:   3079.98   0.001795    9.07  0.000182  (-0.007882 -0.010916 -0.000736)
 54:   3081.09   0.003520   17.79  0.000357  (-0.012112 -0.013833  0.004298)
 55:   3106.02   0.001443    7.29  0.000145  (-0.009114  0.007272  0.003013)
 56:   3116.85   0.001011    5.11  0.000101  ( 0.003976  0.009102 -0.001605)
 57:   3131.72   0.000744    3.76  0.000074  ( 0.007417 -0.002138 -0.003811)
 58:   3482.94   0.003821   19.31  0.000342  ( 0.013697 -0.009878  0.007561)
 59:   3690.47   0.011655   58.90  0.000986  ( 0.024079  0.018139 -0.008758)

* The epsilon (eps) is given for a Dirac delta lineshape.
** The dipole moment derivative (T) already includes vibrational overlap.

The first frequency considered to be a vibration is 6
The total number of vibrations considered is 54


--------------------------
THERMOCHEMISTRY AT 298.15K
--------------------------

Temperature         ... 298.15 K
Pressure            ... 1.00 atm
Total Mass          ... 151.16 AMU

Throughout the following assumptions are being made:
  (1) The electronic state is orbitally nondegenerate
  (2) There are no thermally accessible electronically excited states
  (3) Hindered rotations indicated by low frequency modes are not
      treated as such but are treated as vibrations and this may
      cause some error
  (4) All equations used are the standard statistical mechanics
      equations for an ideal gas
  (5) All vibrations are strictly harmonic

freq.      41.67  E(vib)   ...       0.53 
freq.      62.79  E(vib)   ...       0.51 
freq.     100.85  E(vib)   ...       0.46 
freq.     152.38  E(vib)   ...       0.40 
freq.     194.20  E(vib)   ...       0.36 
freq.     314.47  E(vib)   ...       0.25 
freq.     350.92  E(vib)   ...       0.23 
freq.     357.11  E(vib)   ...       0.22 
freq.     361.42  E(vib)   ...       0.22 
freq.     412.45  E(vib)   ...       0.19 
freq.     419.41  E(vib)   ...       0.18 
freq.     486.87  E(vib)   ...       0.15 
freq.     500.00  E(vib)   ...       0.14 
freq.     523.11  E(vib)   ...       0.13 
freq.     583.64  E(vib)   ...       0.11 
freq.     626.68  E(vib)   ...       0.09 
freq.     638.82  E(vib)   ...       0.09 
freq.     703.83  E(vib)   ...       0.07 
freq.     762.32  E(vib)   ...       0.06 
freq.     782.15  E(vib)   ...       0.05 
freq.     814.80  E(vib)   ...       0.05 
freq.     822.25  E(vib)   ...       0.05 
freq.     895.05  E(vib)   ...       0.03 
freq.     906.19  E(vib)   ...       0.03 
freq.     930.95  E(vib)   ...       0.03 
freq.     988.29  E(vib)   ...       0.02 
freq.     999.85  E(vib)   ...       0.02 
freq.    1012.82  E(vib)   ...       0.02 
freq.    1094.26  E(vib)   ...       0.02 
freq.    1156.35  E(vib)   ...       0.01 
freq.    1161.70  E(vib)   ...       0.01 
freq.    1217.05  E(vib)   ...       0.01 
freq.    1257.68  E(vib)   ...       0.01 
freq.    1293.47  E(vib)   ...       0.01 
freq.    1296.03  E(vib)   ...       0.01 
freq.    1346.47  E(vib)   ...       0.01 
freq.    1352.39  E(vib)   ...       0.01 
freq.    1394.75  E(vib)   ...       0.00 
freq.    1422.89  E(vib)   ...       0.00 
freq.    1436.22  E(vib)   ...       0.00 
freq.    1450.14  E(vib)   ...       0.00 
freq.    1503.96  E(vib)   ...       0.00 
freq.    1588.65  E(vib)   ...       0.00 
freq.    1613.23  E(vib)   ...       0.00 
freq.    1695.37  E(vib)   ...       0.00 
freq.    2979.45  E(vib)   ...       0.00 
freq.    3044.26  E(vib)   ...       0.00 
freq.    3079.98  E(vib)   ...       0.00 
freq.    3081.09  E(vib)   ...       0.00 
freq.    3106.02  E(vib)   ...       0.00 
freq.    3116.85  E(vib)   ...       0.00 
freq.    3131.72  E(vib)   ...       0.00 
freq.    3482.94  E(vib)   ...       0.00 
freq.    3690.47  E(vib)   ...       0.00 

------------
INNER ENERGY
------------

The inner energy is: U= E(el) + E(ZPE) + E(vib) + E(rot) + E(trans)
    E(el)   - is the total energy from the electronic structure calculation
              = E(kin-el) + E(nuc-el) + E(el-el) + E(nuc-nuc)
    E(ZPE)  - the the zero temperature vibrational energy from the frequency calculation
    E(vib)  - the the finite temperature correction to E(ZPE) due to population
              of excited vibrational states
    E(rot)  - is the rotational thermal energy
    E(trans)- is the translational thermal energy

Summary of contributions to the inner energy U:
Electronic energy                ...   -515.70722004 Eh
Zero point energy                ...      0.15432016 Eh      96.84 kcal/mol
Thermal vibrational correction   ...      0.00765005 Eh       4.80 kcal/mol
Thermal rotational correction    ...      0.00141627 Eh       0.89 kcal/mol
Thermal translational correction ...      0.00141627 Eh       0.89 kcal/mol
-----------------------------------------------------------------------
Total thermal energy                   -515.54241729 Eh


Summary of corrections to the electronic energy:
(perhaps to be used in another calculation)
Total thermal correction                  0.01048259 Eh       6.58 kcal/mol
Non-thermal (ZPE) correction              0.15432016 Eh      96.84 kcal/mol
-----------------------------------------------------------------------
Total correction                          0.16480275 Eh     103.42 kcal/mol


--------
ENTHALPY
--------

The enthalpy is H = U + kB*T
                kB is Boltzmann's constant
Total free energy                 ...   -515.54241729 Eh 
Thermal Enthalpy correction       ...      0.00094421 Eh       0.59 kcal/mol
-----------------------------------------------------------------------
Total Enthalpy                    ...   -515.54147308 Eh


Note: Only C1 symmetry has been detected, increase convergence thresholds 
      if your molecule has a higher symmetry. Symmetry factor of 1.0 is   
      used for the rotational entropy correction. 
 

Note: Rotational entropy computed according to Herzberg 
Infrared and Raman Spectra, Chapter V,1, Van Nostrand Reinhold, 1945 
Point Group:  C1, Symmetry Number:   1  
Rotational constants in cm-1:     0.110582     0.018335     0.016521 

Vibrational entropy computed according to the QRRHO of S. Grimme
Chem.Eur.J. 2012 18 9955


-------
ENTROPY
-------

The entropy contributions are T*S = T*(S(el)+S(vib)+S(rot)+S(trans))
     S(el)   - electronic entropy
     S(vib)  - vibrational entropy
     S(rot)  - rotational entropy
     S(trans)- translational entropy
The entropies will be listed as multiplied by the temperature to get
units of energy

Electronic entropy                ...      0.00000000 Eh      0.00 kcal/mol
Vibrational entropy               ...      0.01294443 Eh      8.12 kcal/mol
Rotational entropy                ...      0.01437527 Eh      9.02 kcal/mol
Translational entropy             ...      0.01945645 Eh     12.21 kcal/mol
-----------------------------------------------------------------------
Final entropy term                ...      0.04677614 Eh     29.35 kcal/mol

In case the symmetry of your molecule has not been determined correctly
or in case you have a reason to use a different symmetry number we print 
out the resulting rotational entropy values for sn=1,12 :
 --------------------------------------------------------
|  sn= 1 | S(rot)=       0.01437527 Eh      9.02 kcal/mol|
|  sn= 2 | S(rot)=       0.01372081 Eh      8.61 kcal/mol|
|  sn= 3 | S(rot)=       0.01333798 Eh      8.37 kcal/mol|
|  sn= 4 | S(rot)=       0.01306635 Eh      8.20 kcal/mol|
|  sn= 5 | S(rot)=       0.01285567 Eh      8.07 kcal/mol|
|  sn= 6 | S(rot)=       0.01268352 Eh      7.96 kcal/mol|
|  sn= 7 | S(rot)=       0.01253798 Eh      7.87 kcal/mol|
|  sn= 8 | S(rot)=       0.01241190 Eh      7.79 kcal/mol|
|  sn= 9 | S(rot)=       0.01230069 Eh      7.72 kcal/mol|
|  sn=10 | S(rot)=       0.01220121 Eh      7.66 kcal/mol|
|  sn=11 | S(rot)=       0.01211122 Eh      7.60 kcal/mol|
|  sn=12 | S(rot)=       0.01202907 Eh      7.55 kcal/mol|
 --------------------------------------------------------


-------------------
GIBBS FREE ENERGY
-------------------

The Gibbs free energy is G = H - T*S

Total enthalpy                    ...   -515.54147308 Eh 
Total entropy correction          ...     -0.04677614 Eh    -29.35 kcal/mol
-----------------------------------------------------------------------
Final Gibbs free energy         ...   -515.58824922 Eh

For completeness - the Gibbs free energy minus the electronic energy
G-E(el)                           ...      0.11897082 Eh     74.66 kcal/mol


Timings for individual modules:

Sum of individual times         ...     6229.400 sec (= 103.823 min)
GTO integral calculation        ...       59.475 sec (=   0.991 min)   1.0 %
SCF iterations                  ...     2293.635 sec (=  38.227 min)  36.8 %
SCF Gradient evaluation         ...     1002.022 sec (=  16.700 min)  16.1 %
Geometry relaxation             ...        5.632 sec (=   0.094 min)   0.1 %
Analytical frequency calculation...     2868.636 sec (=  47.811 min)  46.0 %
                             ****ORCA TERMINATED NORMALLY****
TOTAL RUN TIME: 0 days 1 hours 44 minutes 6 seconds 532 msec
