
                                 *****************
                                 * O   R   C   A *
                                 *****************

                                            #,                                       
                                            ###                                      
                                            ####                                     
                                            #####                                    
                                            ######                                   
                                           ########,                                 
                                     ,,################,,,,,                         
                               ,,#################################,,                 
                          ,,##########################################,,             
                       ,#########################################, ''#####,          
                    ,#############################################,,   '####,        
                  ,##################################################,,,,####,       
                ,###########''''           ''''###############################       
              ,#####''   ,,,,##########,,,,          '''####'''          '####       
            ,##' ,,,,###########################,,,                        '##       
           ' ,,###''''                  '''############,,,                           
         ,,##''                                '''############,,,,        ,,,,,,###''
      ,#''                                            '''#######################'''  
     '                                                          ''''####''''         
             ,#######,   #######,   ,#######,      ##                                
            ,#'     '#,  ##    ##  ,#'     '#,    #''#        ######   ,####,        
            ##       ##  ##   ,#'  ##            #'  '#       #        #'  '#        
            ##       ##  #######   ##           ,######,      #####,   #    #        
            '#,     ,#'  ##    ##  '#,     ,#' ,#      #,         ##   #,  ,#        
             '#######'   ##     ##  '#######'  #'      '#     #####' # '####'        



                  #######################################################
                  #                        -***-                        #
                  #          Department of theory and spectroscopy      #
                  #    Directorship and core code : Frank Neese         #
                  #        Max Planck Institute fuer Kohlenforschung    #
                  #                Kaiser Wilhelm Platz 1               #
                  #                 D-45470 Muelheim/Ruhr               #
                  #                      Germany                        #
                  #                                                     #
                  #                  All rights reserved                #
                  #                        -***-                        #
                  #######################################################



                         Program Version 5.0.4 -  RELEASE  -

 With contributions from (in alphabetic order):
   Daniel Aravena         : Magnetic Suceptibility
   Michael Atanasov       : Ab Initio Ligand Field Theory (pilot matlab implementation)
   Alexander A. Auer      : GIAO ZORA, VPT2 properties, NMR spectrum
   Ute Becker             : Parallelization
   Giovanni Bistoni       : ED, misc. LED, open-shell LED, HFLD
   Martin Brehm           : Molecular dynamics
   Dmytro Bykov           : SCF Hessian
   Vijay G. Chilkuri      : MRCI spin determinant printing, contributions to CSF-ICE
   Dipayan Datta          : RHF DLPNO-CCSD density
   Achintya Kumar Dutta   : EOM-CC, STEOM-CC
   Dmitry Ganyushin       : Spin-Orbit,Spin-Spin,Magnetic field MRCI
   Miquel Garcia          : C-PCM and meta-GGA Hessian, CC/C-PCM, Gaussian charge scheme
   Yang Guo               : DLPNO-NEVPT2, F12-NEVPT2, CIM, IAO-localization
   Andreas Hansen         : Spin unrestricted coupled pair/coupled cluster methods
   Benjamin Helmich-Paris : MC-RPA, TRAH-SCF, COSX integrals
   Lee Huntington         : MR-EOM, pCC
   Robert Izsak           : Overlap fitted RIJCOSX, COSX-SCS-MP3, EOM
   Marcus Kettner         : VPT2
   Christian Kollmar      : KDIIS, OOCD, Brueckner-CCSD(T), CCSD density, CASPT2, CASPT2-K
   Simone Kossmann        : Meta GGA functionals, TD-DFT gradient, OOMP2, MP2 Hessian
   Martin Krupicka        : Initial AUTO-CI
   Lucas Lang             : DCDCAS
   Marvin Lechner         : AUTO-CI (C++ implementation), FIC-MRCC
   Dagmar Lenk            : GEPOL surface, SMD
   Dimitrios Liakos       : Extrapolation schemes; Compound Job, initial MDCI parallelization
   Dimitrios Manganas     : Further ROCIS development; embedding schemes
   Dimitrios Pantazis     : SARC Basis sets
   Anastasios Papadopoulos: AUTO-CI, single reference methods and gradients
   Taras Petrenko         : DFT Hessian,TD-DFT gradient, ASA, ECA, R-Raman, ABS, FL, XAS/XES, NRVS
   Peter Pinski           : DLPNO-MP2, DLPNO-MP2 Gradient
   Christoph Reimann      : Effective Core Potentials
   Marius Retegan         : Local ZFS, SOC
   Christoph Riplinger    : Optimizer, TS searches, QM/MM, DLPNO-CCSD(T), (RO)-DLPNO pert. Triples
   Tobias Risthaus        : Range-separated hybrids, TD-DFT gradient, RPA, STAB
   Michael Roemelt        : Original ROCIS implementation
   Masaaki Saitow         : Open-shell DLPNO-CCSD energy and density
   Barbara Sandhoefer     : DKH picture change effects
   Avijit Sen             : IP-ROCIS
   Kantharuban Sivalingam : CASSCF convergence, NEVPT2, FIC-MRCI
   Bernardo de Souza      : ESD, SOC TD-DFT
   Georgi Stoychev        : AutoAux, RI-MP2 NMR, DLPNO-MP2 response
   Willem Van den Heuvel  : Paramagnetic NMR
   Boris Wezisla          : Elementary symmetry handling
   Frank Wennmohs         : Technical directorship


 We gratefully acknowledge several colleagues who have allowed us to
 interface, adapt or use parts of their codes:
   Stefan Grimme, W. Hujo, H. Kruse, P. Pracht,  : VdW corrections, initial TS optimization,
                  C. Bannwarth, S. Ehlert          DFT functionals, gCP, sTDA/sTD-DF
   Ed Valeev, F. Pavosevic, A. Kumar             : LibInt (2-el integral package), F12 methods
   Garnet Chan, S. Sharma, J. Yang, R. Olivares  : DMRG
   Ulf Ekstrom                                   : XCFun DFT Library
   Mihaly Kallay                                 : mrcc  (arbitrary order and MRCC methods)
   Jiri Pittner, Ondrej Demel                    : Mk-CCSD
   Frank Weinhold                                : gennbo (NPA and NBO analysis)
   Christopher J. Cramer and Donald G. Truhlar   : smd solvation model
   Lars Goerigk                                  : TD-DFT with DH, B97 family of functionals
   V. Asgeirsson, H. Jonsson                     : NEB implementation
   FAccTs GmbH                                   : IRC, NEB, NEB-TS, DLPNO-Multilevel, CI-OPT
                                                   MM, QMMM, 2- and 3-layer-ONIOM, Crystal-QMMM,
                                                   LR-CPCM, SF, NACMEs, symmetry and pop. for TD-DFT,
                                                   nearIR, NL-DFT gradient (VV10), updates on ESD,
                                                   ML-optimized integration grids
   S Lehtola, MJT Oliveira, MAL Marques          : LibXC Library
   Liviu Ungur et al                             : ANISO software


 Your calculation uses the libint2 library for the computation of 2-el integrals
 For citations please refer to: http://libint.valeyev.net

 Your ORCA version has been built with support for libXC version: 5.1.0
 For citations please refer to: https://tddft.org/programs/libxc/

 This ORCA versions uses:
   CBLAS   interface :  Fast vector & matrix operations
   LAPACKE interface :  Fast linear algebra routines
   Shared memory     :  Shared parallel matrices


Your calculation utilizes the atom-pairwise dispersion correction
based on tight binding partial charges (D4)
Cite in your paper:
E.Caldeweyher, C.Bannwarth, S.Grimme, J.Chem.Phys., (2017), 147, 034112.
E.Caldeweyher, S.Ehlert, A.Hansen, H.Neugebauer, S.Grimme, J.Chem.Phys., (2018), in progress.
   

================================================================================

----- Orbital basis set information -----
Your calculation utilizes the basis: 3-21G
   H-Ne       : J. S. Binkley, J. A. Pople and W. J. Hehre, J. Am. Chem. Soc. 102 939 (1980).
   Na-Ar      : M. S. Gordon, J. S. Binkley, J. A. Pople, W. J. Pietro and W.J. Hehre, J. Am. Chem. Soc. 104, 2797 (1983).
   K-Ca, Ga-Kr: K. D. Dobbs and W. J. Hehre, J. Comput. Chem. 7, 359 (1986).
   Sc-Zn      : K. D. Dobbs and W. J. Hehre, J. Comput. Chem. 8, 861 (1987).
   Y-Cd       : K. D. Dobbs and W. J. Hehre, J. Comput. Chem. 8, 880 (1987).

================================================================================
                                        WARNINGS
                       Please study these warnings very carefully!
================================================================================


WARNING: Geometry Optimization
  ===> : Switching off AutoStart
         For restart on a previous wavefunction, please use MOREAD

WARNING: Post HF methods need fully converged wavefunctions
  ===> : Setting SCFConvForced true
         You can overwrite this default with %scf ConvForced false 


INFO   : the flag for use of the SHARK integral package has been found!

================================================================================
                                       INPUT FILE
================================================================================
NAME = opt.inp
|  1> !MP2 3-21G OPT FREQ D4 SOSCF NoFrozencore
|  2> 
|  3> %geom
|  4> convergence loose
|  5> maxIter 2000
|  6> end
|  7> 
|  8> %maxCore 1000
|  9> 
| 10> * xyz 0 1
| 11>    C       -1.37842        1.74482       -0.67431
| 12>    C       -2.55921        0.76761       -0.90393
| 13>    C       -2.07061       -0.62633       -1.34830
| 14>    H       -3.22933        1.17667       -1.66381
| 15>    H       -3.13412        0.67031        0.02118
| 16>    C       -1.03017       -1.15481       -0.34027
| 17>    C        0.12918       -0.15110       -0.11951
| 18>    O       -0.42914        1.14223        0.25266
| 19>    C       -1.92240        3.06669       -0.07071
| 20>    H       -0.86932        1.94378       -1.62233
| 21>    O       -0.91959        4.08626        0.01510
| 22>    H       -2.31933        2.87162        0.92941
| 23>    H       -2.73745        3.43668       -0.69871
| 24>    H       -1.33825        4.91236        0.34164
| 25>    O       -3.18124       -1.54182       -1.37789
| 26>    H       -1.61441       -0.55596       -2.34039
| 27>    H       -3.84937       -1.25159       -2.02577
| 28>    N       -0.52731       -2.47019       -0.76935
| 29>    H       -1.53180       -1.29000        0.62231
| 30>    H       -1.30708       -3.11958       -0.85158
| 31>    H        0.11550       -2.84369       -0.07436
| 32>    O        1.01638       -0.07546       -1.28311
| 33>    H        0.71902       -0.50508        0.73899
| 34>    C        2.88512        1.62128       -1.28755
| 35>    C        3.55394        1.70646       -2.70306
| 36>    C        4.63546        0.60823       -2.97927
| 37>    O        3.92632       -0.66570       -2.84683
| 38>    C        3.35301       -1.03045       -1.53679
| 39>    C        2.42946        0.13486       -0.95976
| 40>    C        2.69830       -2.47755       -1.69648
| 41>    H        4.20396       -1.13361       -0.85825
| 42>    H        2.52278        0.04533        0.12545
| 43>    O        2.66993       -3.35279       -0.51095
| 44>    H        3.27642       -3.00572       -2.45968
| 45>    H        1.68884       -2.37076       -2.09762
| 46>    H        2.38354       -4.32280       -0.66655
| 47>    N        4.15729        3.03883       -2.87932
| 48>    H        2.76513        1.58839       -3.45194
| 49>    H        3.43385        3.74861       -2.78095
| 50>    H        4.52733        3.11359       -3.82485
| 51>    O        5.19117        0.81597       -4.35403
| 52>    H        5.45607        0.65517       -2.24754
| 53>    C        6.49489        0.30348       -4.89089
| 54>    C        6.84876       -1.15163       -4.27974
| 55>    C        8.31994       -1.50763       -4.58198
| 56>    C        7.67844        1.43805       -4.84493
| 57>    H        6.31765        0.13429       -5.95628
| 58>    C        7.72213        2.67322       -5.90462
| 59>    O        8.95674        0.77827       -5.03371
| 60>    H        7.68459        1.86607       -3.83881
| 61>    O        8.94025        3.57959       -5.87908
| 62>    H        6.83403        3.28882       -5.73886
| 63>    H        7.64163        2.25039       -6.90948
| 64>    H        9.13369        4.36481       -6.55540
| 65>    N        8.71390       -2.73067       -3.85869
| 66>    H        8.12172       -3.50695       -4.14538
| 67>    H        8.58282       -2.60316       -2.85753
| 68>    O        1.77914        2.60979       -1.20311
| 69>    H        3.64331        1.89561       -0.54919
| 70>    H        1.78622        3.37096       -0.52639
| 71>    C        9.24683       -0.34779       -4.17932
| 72>    H        8.43166       -1.68446       -5.65587
| 73>    H       10.28970       -0.63557       -4.33982
| 74>    H        9.10534       -0.06736       -3.13145
| 75>    O        6.01674       -2.29621       -4.75053
| 76>    H        6.74627       -1.08621       -3.19380
| 77>    H        6.25235       -3.26053       -4.46687
| 78> **                         ****END OF INPUT****
================================================================================

                       *****************************
                       * Geometry Optimization Run *
                       *****************************

Geometry optimization settings:
Update method            Update   .... BFGS
Choice of coordinates    CoordSys .... Z-matrix Internals
Initial Hessian          InHess   .... Almoef's Model

Convergence Tolerances:
Energy Change            TolE     ....  3.0000e-05 Eh
Max. Gradient            TolMAXG  ....  2.0000e-03 Eh/bohr
RMS Gradient             TolRMSG  ....  5.0000e-04 Eh/bohr
Max. Displacement        TolMAXD  ....  1.0000e-02 bohr
RMS Displacement         TolRMSD  ....  7.0000e-03 bohr
Strict Convergence                ....  False
------------------------------------------------------------------------------
                        ORCA OPTIMIZATION COORDINATE SETUP
------------------------------------------------------------------------------

The optimization will be done in new redundant internal coordinates
Making redundant internal coordinates   ...  (new redundants) done
Evaluating the initial hessian          ...  (Almloef) done
Evaluating the coordinates              ...  done
Calculating the B-matrix                .... done
Calculating the G-matrix                .... done
Diagonalizing the G-matrix              .... done
Small eigenvalue found = 1.339e-03
Small eigenvalue found = 1.812e-03
Small eigenvalue found = 2.390e-03
Small eigenvalue found = 4.276e-03
Small eigenvalue found = 6.895e-03
Small eigenvalue found = 9.667e-03
Small eigenvalue found = 1.431e-02
Small eigenvalue found = 1.802e-02
Small eigenvalue found = 2.313e-02
Small eigenvalue found = 2.825e-02
The first mode is                       ....  203
The number of degrees of freedom        ....  195

    -----------------------------------------------------------------
                    Redundant Internal Coordinates


    -----------------------------------------------------------------
         Definition                    Initial Value    Approx d2E/dq
    -----------------------------------------------------------------
      1. B(C   1,C   0)                  1.5498         0.347346   
      2. B(C   2,C   1)                  1.5425         0.356826   
      3. B(H   3,C   1)                  1.0926         0.356657   
      4. B(H   4,C   1)                  1.0935         0.355455   
      5. B(C   5,C   2)                  1.5421         0.357393   
      6. B(C   6,C   5)                  1.5493         0.348034   
      7. B(O   7,C   0)                  1.4572         0.437133   
      8. B(O   7,C   6)                  1.4570         0.437456   
      9. B(C   8,C   0)                  1.5516         0.345026   
     10. B(H   9,C   0)                  1.0943         0.354446   
     11. B(O  10,C   8)                  1.4327         0.478426   
     12. B(H  11,C   8)                  1.0935         0.355438   
     13. B(H  12,C   8)                  1.0934         0.355595   
     14. B(H  13,O  10)                  0.9820         0.479567   
     15. B(O  14,C   2)                  1.4396         0.466353   
     16. B(H  15,C   2)                  1.0942         0.354563   
     17. B(H  16,O  14)                  0.9749         0.492307   
     18. B(N  17,C   5)                  1.4721         0.413831   
     19. B(H  18,C   5)                  1.0938         0.355066   
     20. B(H  19,N  17)                  1.0181         0.420035   
     21. B(H  20,N  17)                  1.0177         0.420636   
     22. B(O  21,C   6)                  1.4652         0.424521   
     23. B(H  22,C   6)                  1.1001         0.346975   
     24. B(C  24,C  23)                  1.5679         0.325045   
     25. B(C  25,C  24)                  1.5659         0.327400   
     26. B(O  26,C  25)                  1.4640         0.426385   
     27. B(C  27,O  26)                  1.4758         0.408335   
     28. B(C  28,C  27)                  1.5949         0.294279   
     29. B(C  28,C  23)                  1.5889         0.300919   
     30. B(C  28,O  21)                  1.4648         0.425174   
     31. B(C  29,C  27)                  1.5963         0.292796   
     32. B(H  30,C  27)                  1.0932         0.355839   
     33. B(H  31,C  28)                  1.0929         0.356299   
     34. B(O  32,C  29)                  1.4739         0.411193   
     35. B(H  33,C  29)                  1.0935         0.355548   
     36. B(H  34,C  29)                  1.0915         0.358148   
     37. B(H  35,O  32)                  1.0233         0.412069   
     38. B(N  36,C  24)                  1.4732         0.412231   
     39. B(H  37,C  24)                  1.0941         0.354760   
     40. B(H  38,N  36)                  1.0182         0.419793   
     41. B(H  39,N  36)                  1.0181         0.420008   
     42. B(O  40,C  25)                  1.4973         0.377286   
     43. B(H  41,C  25)                  1.1005         0.346513   
     44. B(C  42,O  40)                  1.5002         0.373323   
     45. B(C  43,C  42)                  1.6174         0.270952   
     46. B(C  44,C  43)                  1.5435         0.355473   
     47. B(C  45,C  42)                  1.6402         0.249236   
     48. B(H  46,C  42)                  1.0932         0.355886   
     49. B(C  47,C  45)                  1.6280         0.260597   
     50. B(O  48,C  45)                  1.4509         0.447482   
     51. B(H  49,C  45)                  1.0934         0.355634   
     52. B(O  50,C  47)                  1.5185         0.348973   
     53. B(H  51,C  47)                  1.0932         0.355847   
     54. B(H  52,C  47)                  1.0932         0.355938   
     55. B(H  53,O  50)                  1.0542         0.367816   
     56. B(N  54,C  44)                  1.4745         0.410247   
     57. B(H  55,N  54)                  1.0176         0.420817   
     58. B(H  56,N  54)                  1.0177         0.420602   
     59. B(O  57,C  23)                  1.4858         0.393642   
     60. B(H  58,C  23)                  1.0933         0.355773   
     61. B(H  59,O  57)                  1.0185         0.419377   
     62. B(C  60,O  48)                  1.4430         0.460654   
     63. B(C  60,C  44)                  1.5383         0.362303   
     64. B(H  61,C  44)                  1.0941         0.354755   
     65. B(H  62,C  60)                  1.0937         0.355253   
     66. B(H  63,C  60)                  1.0939         0.354933   
     67. B(O  64,C  43)                  1.4913         0.385713   
     68. B(H  65,C  43)                  1.0927         0.356512   
     69. B(H  66,O  64)                  1.0324         0.398499   
     70. A(O   7,C   0,C   8)          109.4636         0.365916   
     71. A(O   7,C   0,H   9)          108.8568         0.329967   
     72. A(C   1,C   0,H   9)          109.9218         0.319646   
     73. A(C   1,C   0,O   7)          109.2583         0.366337   
     74. A(C   8,C   0,H   9)          110.1949         0.319296   
     75. A(C   1,C   0,C   8)          109.1287         0.354056   
     76. A(C   0,C   1,C   2)          111.7869         0.356081   
     77. A(C   0,C   1,H   4)          109.3487         0.319794   
     78. A(C   2,C   1,H   4)          109.2591         0.321205   
     79. A(C   0,C   1,H   3)          109.5274         0.319970   
     80. A(H   3,C   1,H   4)          107.4109         0.289810   
     81. A(C   2,C   1,H   3)          109.4055         0.321382   
     82. A(C   1,C   2,O  14)          109.6475         0.372149   
     83. A(C   5,C   2,H  15)          109.4766         0.321156   
     84. A(C   1,C   2,C   5)          109.5792         0.357810   
     85. A(O  14,C   2,H  15)          110.1149         0.333540   
     86. A(C   5,C   2,O  14)          108.4224         0.372251   
     87. A(C   1,C   2,H  15)          109.5813         0.321073   
     88. A(C   2,C   5,C   6)          112.0871         0.356296   
     89. A(C   6,C   5,N  17)          111.3945         0.363042   
     90. A(N  17,C   5,H  18)          107.6205         0.327092   
     91. A(C   6,C   5,H  18)          107.3287         0.319840   
     92. A(C   2,C   5,H  18)          107.9502         0.321231   
     93. A(C   2,C   5,N  17)          110.2525         0.364693   
     94. A(O   7,C   6,O  21)          112.8957         0.376882   
     95. A(C   5,C   6,H  22)          107.6956         0.318639   
     96. A(C   5,C   6,O  21)          111.9255         0.364629   
     97. A(C   5,C   6,O   7)          108.9485         0.366507   
     98. A(O  21,C   6,H  22)          108.1616         0.327224   
     99. A(O   7,C   6,H  22)          106.9621         0.328848   
    100. A(C   0,O   7,C   6)          117.0132         0.378796   
    101. A(O  10,C   8,H  12)          108.3819         0.335120   
    102. A(C   0,C   8,H  12)          109.0367         0.319465   
    103. A(H  11,C   8,H  12)          108.3649         0.289672   
    104. A(O  10,C   8,H  11)          109.0407         0.335096   
    105. A(C   0,C   8,H  11)          109.3330         0.319442   
    106. A(C   0,C   8,O  10)          112.5929         0.371632   
    107. A(C   8,O  10,H  13)          108.6735         0.349290   
    108. A(C   2,O  14,H  16)          110.6752         0.349329   
    109. A(C   5,N  17,H  19)          109.3809         0.333439   
    110. A(H  19,N  17,H  20)          107.7484         0.300462   
    111. A(C   5,N  17,H  20)          110.1595         0.333518   
    112. A(C   6,O  21,C  28)          114.5977         0.375032   
    113. A(C  28,C  23,H  58)          107.1153         0.312465   
    114. A(C  28,C  23,O  57)          113.4046         0.351182   
    115. A(C  24,C  23,O  57)          109.4329         0.355799   
    116. A(C  24,C  23,C  28)          111.0642         0.342145   
    117. A(O  57,C  23,H  58)          108.1136         0.324518   
    118. A(C  24,C  23,H  58)          107.4734         0.316400   
    119. A(N  36,C  24,H  37)          108.1188         0.326836   
    120. A(C  23,C  24,C  25)          114.5676         0.347024   
    121. A(C  25,C  24,H  37)          107.5499         0.316625   
    122. A(C  23,C  24,H  37)          107.7312         0.316253   
    123. A(C  25,C  24,N  36)          109.2886         0.359041   
    124. A(C  23,C  24,N  36)          109.3815         0.358600   
    125. A(O  40,C  25,H  41)          109.1372         0.320878   
    126. A(C  24,C  25,O  26)          105.0567         0.361112   
    127. A(O  26,C  25,H  41)          109.7651         0.327388   
    128. A(C  24,C  25,H  41)          111.5813         0.315416   
    129. A(O  26,C  25,O  40)          112.5545         0.367676   
    130. A(C  24,C  25,O  40)          108.7222         0.353680   
    131. A(C  25,O  26,C  27)          118.9172         0.372709   
    132. A(C  29,C  27,H  30)          107.2048         0.311094   
    133. A(C  28,C  27,H  30)          107.1641         0.311348   
    134. A(O  26,C  27,H  30)          105.7775         0.326489   
    135. A(C  28,C  27,C  29)          117.4537         0.334983   
    136. A(O  26,C  27,C  29)          107.1324         0.351733   
    137. A(O  26,C  27,C  28)          111.4398         0.352034   
    138. A(C  27,C  28,H  31)          104.4744         0.311413   
    139. A(O  21,C  28,H  31)          106.8466         0.328741   
    140. A(C  23,C  28,C  27)          116.2837         0.336511   
    141. A(O  21,C  28,C  27)          111.9525         0.354451   
    142. A(O  21,C  28,C  23)          111.4349         0.355795   
    143. A(C  23,C  28,H  31)          104.8924         0.312539   
    144. A(C  27,C  29,H  33)          106.9090         0.311053   
    145. A(C  27,C  29,O  32)          117.7589         0.352148   
    146. A(O  32,C  29,H  33)          106.5442         0.326820   
    147. A(C  27,C  29,H  34)          109.1103         0.311420   
    148. A(H  33,C  29,H  34)          106.2434         0.290012   
    149. A(O  32,C  29,H  34)          109.6282         0.327213   
    150. A(C  29,O  32,H  35)          116.4864         0.332030   
    151. A(H  38,N  36,H  39)          107.2633         0.300363   
    152. A(C  24,N  36,H  39)          109.0493         0.333221   
    153. A(C  24,N  36,H  38)          109.1408         0.333193   
    154. A(C  25,O  40,C  42)          127.1362         0.359418   
    155. A(C  45,C  42,H  46)          104.5579         0.303150   
    156. A(C  43,C  42,H  46)          105.3359         0.307237   
    157. A(O  40,C  42,H  46)          105.1135         0.321726   
    158. A(C  43,C  42,C  45)          116.9913         0.321784   
    159. A(O  40,C  42,C  45)          112.3810         0.337239   
    160. A(O  40,C  42,C  43)          111.2384         0.341977   
    161. A(C  44,C  43,H  65)          107.3256         0.321161   
    162. A(C  42,C  43,H  65)          107.5252         0.307324   
    163. A(C  44,C  43,O  64)          107.0337         0.360006   
    164. A(C  42,C  43,O  64)          116.6881         0.343854   
    165. A(O  64,C  43,H  65)          107.8997         0.323545   
    166. A(C  42,C  43,C  44)          110.0011         0.341263   
    167. A(C  60,C  44,H  61)          108.4969         0.321903   
    168. A(N  54,C  44,H  61)          108.6712         0.326576   
    169. A(C  43,C  44,H  61)          109.0750         0.320902   
    170. A(N  54,C  44,C  60)          109.6330         0.365002   
    171. A(C  43,C  44,C  60)          110.4347         0.358410   
    172. A(C  43,C  44,N  54)          110.4820         0.363815   
    173. A(O  48,C  45,H  49)          107.0251         0.331430   
    174. A(C  47,C  45,H  49)          107.5657         0.305286   
    175. A(C  42,C  45,H  49)          107.4955         0.303115   
    176. A(C  47,C  45,O  48)          103.6905         0.350254   
    177. A(C  42,C  45,O  48)          108.5156         0.347631   
    178. A(C  42,C  45,C  47)          121.7316         0.319740   
    179. A(H  51,C  47,H  52)          107.2990         0.289768   
    180. A(O  50,C  47,H  52)          107.7820         0.318208   
    181. A(C  45,C  47,H  52)          107.6313         0.305328   
    182. A(O  50,C  47,H  51)          108.2401         0.318194   
    183. A(C  45,C  47,H  51)          107.8619         0.305316   
    184. A(C  45,C  47,O  50)          117.6078         0.335957   
    185. A(C  45,O  48,C  60)          117.0625         0.383762   
    186. A(C  47,O  50,H  53)          125.5183         0.317226   
    187. A(H  55,N  54,H  56)          107.3241         0.300547   
    188. A(C  44,N  54,H  56)          110.1337         0.333033   
    189. A(C  44,N  54,H  55)          109.8207         0.333061   
    190. A(C  23,O  57,H  59)          121.9922         0.330602   
    191. A(H  62,C  60,H  63)          109.3510         0.289564   
    192. A(O  48,C  60,H  63)          109.9452         0.332918   
    193. A(C  44,C  60,H  63)          111.4736         0.321929   
    194. A(O  48,C  60,H  62)          108.0679         0.332968   
    195. A(C  44,C  60,H  62)          109.7387         0.321977   
    196. A(C  44,C  60,O  48)          108.1953         0.372337   
    197. A(C  43,O  64,H  66)          120.1868         0.326728   
    198. D(H   4,C   1,C   0,C   8)    -52.2150         0.009733   
    199. D(C   2,C   1,C   0,C   8)   -173.3350         0.009733   
    200. D(H   4,C   1,C   0,O   7)     67.4393         0.009733   
    201. D(H   3,C   1,C   0,O   7)   -175.1073         0.009733   
    202. D(H   3,C   1,C   0,C   8)     65.2384         0.009733   
    203. D(C   2,C   1,C   0,H   9)     65.7108         0.009733   
    204. D(C   2,C   1,C   0,O   7)    -53.6807         0.009733   
    205. D(H   3,C   1,C   0,H   9)    -55.7157         0.009733   
    206. D(H   4,C   1,C   0,H   9)   -173.1691         0.009733   
    207. D(O  14,C   2,C   1,H   4)     51.3163         0.010228   
    208. D(O  14,C   2,C   1,H   3)    -66.0148         0.010228   
    209. D(C   5,C   2,C   1,H   3)    175.0951         0.010228   
    210. D(H  15,C   2,C   1,H   3)     54.9544         0.010228   
    211. D(H  15,C   2,C   1,H   4)    172.2854         0.010228   
    212. D(C   5,C   2,C   1,C   0)     53.5981         0.010228   
    213. D(C   5,C   2,C   1,H   4)    -67.5738         0.010228   
    214. D(H  15,C   2,C   1,C   0)    -66.5426         0.010228   
    215. D(O  14,C   2,C   1,C   0)    172.4882         0.010228   
    216. D(H  18,C   5,C   2,H  15)   -175.6142         0.010258   
    217. D(H  18,C   5,C   2,C   1)     64.1811         0.010258   
    218. D(N  17,C   5,C   2,O  14)     61.8399         0.010258   
    219. D(N  17,C   5,C   2,H  15)    -58.3111         0.010258   
    220. D(C   6,C   5,C   2,H  15)     66.3936         0.010258   
    221. D(C   6,C   5,C   2,O  14)   -173.4553         0.010258   
    222. D(N  17,C   5,C   2,C   1)   -178.5157         0.010258   
    223. D(C   6,C   5,C   2,C   1)    -53.8110         0.010258   
    224. D(H  18,C   5,C   2,O  14)    -55.4632         0.010258   
    225. D(O  21,C   6,C   5,C   2)    -71.7857         0.009768   
    226. D(O   7,C   6,C   5,H  18)    -64.5828         0.009768   
    227. D(O   7,C   6,C   5,N  17)    177.8483         0.009768   
    228. D(O   7,C   6,C   5,C   2)     53.7782         0.009768   
    229. D(H  22,C   6,C   5,H  18)     51.0951         0.009768   
    230. D(H  22,C   6,C   5,N  17)    -66.4738         0.009768   
    231. D(H  22,C   6,C   5,C   2)    169.4562         0.009768   
    232. D(O  21,C   6,C   5,H  18)    169.8533         0.009768   
    233. D(O  21,C   6,C   5,N  17)     52.2844         0.009768   
    234. D(C   0,O   7,C   6,H  22)   -173.2483         0.015071   
    235. D(C   6,O   7,C   0,H   9)    -62.8312         0.015048   
    236. D(C   0,O   7,C   6,C   5)    -57.0993         0.015071   
    237. D(C   6,O   7,C   0,C   1)     57.2170         0.015048   
    238. D(C   0,O   7,C   6,O  21)     67.8991         0.015071   
    239. D(C   6,O   7,C   0,C   8)    176.6645         0.015048   
    240. D(H  12,C   8,C   0,H   9)     68.5178         0.009614   
    241. D(H  12,C   8,C   0,O   7)   -171.7967         0.009614   
    242. D(H  11,C   8,C   0,H   9)   -173.1703         0.009614   
    243. D(H  11,C   8,C   0,O   7)    -53.4848         0.009614   
    244. D(H  12,C   8,C   0,C   1)    -52.2694         0.009614   
    245. D(O  10,C   8,C   0,O   7)     67.8785         0.009614   
    246. D(O  10,C   8,C   0,H   9)    -51.8070         0.009614   
    247. D(O  10,C   8,C   0,C   1)   -172.5942         0.009614   
    248. D(H  11,C   8,C   0,C   1)     66.0424         0.009614   
    249. D(H  13,O  10,C   8,C   0)    175.9518         0.018054   
    250. D(H  13,O  10,C   8,H  12)     55.2507         0.018054   
    251. D(H  13,O  10,C   8,H  11)    -62.5185         0.018054   
    252. D(H  16,O  14,C   2,H  15)    -58.6260         0.017139   
    253. D(H  16,O  14,C   2,C   5)   -178.3783         0.017139   
    254. D(H  16,O  14,C   2,C   1)     62.0202         0.017139   
    255. D(H  20,N  17,C   5,C   6)     58.4054         0.014606   
    256. D(H  20,N  17,C   5,C   2)   -176.4940         0.014606   
    257. D(H  19,N  17,C   5,H  18)     59.2673         0.014606   
    258. D(H  19,N  17,C   5,C   6)    176.6597         0.014606   
    259. D(H  20,N  17,C   5,H  18)    -58.9869         0.014606   
    260. D(H  19,N  17,C   5,C   2)    -58.2398         0.014606   
    261. D(C  28,O  21,C   6,H  22)    -26.5195         0.014199   
    262. D(C  28,O  21,C   6,O   7)     91.6340         0.014199   
    263. D(C  28,O  21,C   6,C   5)   -145.0013         0.014199   
    264. D(H  37,C  24,C  23,O  57)    -54.0513         0.008631   
    265. D(H  37,C  24,C  23,C  28)     71.9116         0.008631   
    266. D(N  36,C  24,C  23,H  58)    -53.9284         0.008631   
    267. D(N  36,C  24,C  23,O  57)     63.2453         0.008631   
    268. D(N  36,C  24,C  23,C  28)   -170.7919         0.008631   
    269. D(C  25,C  24,C  23,H  58)     69.1542         0.008631   
    270. D(C  25,C  24,C  23,O  57)   -173.6721         0.008631   
    271. D(H  37,C  24,C  23,H  58)   -171.2250         0.008631   
    272. D(C  25,C  24,C  23,C  28)    -47.7092         0.008631   
    273. D(H  41,C  25,C  24,H  37)   -178.9393         0.008743   
    274. D(H  41,C  25,C  24,N  36)     63.9154         0.008743   
    275. D(H  41,C  25,C  24,C  23)    -59.2173         0.008743   
    276. D(O  40,C  25,C  24,H  37)     60.6431         0.008743   
    277. D(O  40,C  25,C  24,N  36)    -56.5022         0.008743   
    278. D(O  40,C  25,C  24,C  23)   -179.6349         0.008743   
    279. D(O  26,C  25,C  24,H  37)    -60.0581         0.008743   
    280. D(O  26,C  25,C  24,N  36)   -177.2035         0.008743   
    281. D(O  26,C  25,C  24,C  23)     59.6638         0.008743   
    282. D(C  27,O  26,C  25,H  41)     56.5934         0.014323   
    283. D(C  27,O  26,C  25,O  40)    178.3590         0.014323   
    284. D(C  27,O  26,C  25,C  24)    -63.4998         0.014323   
    285. D(H  30,C  27,O  26,C  25)    -63.9249         0.013155   
    286. D(C  29,C  27,O  26,C  25)   -178.0506         0.013155   
    287. D(C  28,C  27,O  26,C  25)     52.2055         0.013155   
    288. D(H  31,C  28,C  27,C  29)     86.3204         0.007256   
    289. D(H  31,C  28,C  27,O  26)   -149.5777         0.007256   
    290. D(C  23,C  28,C  27,H  30)     80.7585         0.007256   
    291. D(C  23,C  28,C  27,O  26)    -34.5203         0.007256   
    292. D(O  21,C  28,C  27,H  30)   -149.5608         0.007256   
    293. D(O  21,C  28,C  27,C  29)    -28.9415         0.007256   
    294. D(H  31,C  28,C  23,H  58)     31.8077         0.007539   
    295. D(H  31,C  28,C  23,O  57)    -87.3856         0.007539   
    296. D(H  31,C  28,C  23,C  24)    148.8902         0.007539   
    297. D(C  27,C  28,C  23,C  24)     34.0684         0.007539   
    298. D(O  21,C  28,C  23,H  58)    147.0580         0.007539   
    299. D(O  21,C  28,C  27,O  26)     95.1604         0.007256   
    300. D(O  21,C  28,C  23,O  57)     27.8647         0.007539   
    301. D(O  21,C  28,C  23,C  24)    -95.8595         0.007539   
    302. D(C  27,C  28,C  23,H  58)    -83.0142         0.007539   
    303. D(C  23,C  28,C  27,C  29)   -158.6222         0.007256   
    304. D(H  31,C  28,O  21,C   6)      8.0125         0.014242   
    305. D(C  27,C  28,O  21,C   6)    121.8172         0.014242   
    306. D(C  27,C  28,C  23,O  57)    157.7926         0.007539   
    307. D(H  31,C  28,C  27,H  30)    -34.2989         0.007256   
    308. D(C  23,C  28,O  21,C   6)   -106.0268         0.014242   
    309. D(H  34,C  29,C  27,H  30)    162.4057         0.007194   
    310. D(H  34,C  29,C  27,O  26)    -84.4339         0.007194   
    311. D(H  33,C  29,C  27,H  30)    -83.0915         0.007194   
    312. D(H  33,C  29,C  27,C  28)    156.3106         0.007194   
    313. D(H  33,C  29,C  27,O  26)     30.0690         0.007194   
    314. D(O  32,C  29,C  27,H  30)     36.6659         0.007194   
    315. D(H  34,C  29,C  27,C  28)     41.8077         0.007194   
    316. D(O  32,C  29,C  27,C  28)    -83.9321         0.007194   
    317. D(O  32,C  29,C  27,O  26)    149.8264         0.007194   
    318. D(H  35,O  32,C  29,H  34)     63.8313         0.013336   
    319. D(H  35,O  32,C  29,H  33)    -50.7348         0.013336   
    320. D(H  35,O  32,C  29,C  27)   -170.6832         0.013336   
    321. D(H  39,N  36,C  24,C  23)   -175.7147         0.014495   
    322. D(H  38,N  36,C  24,H  37)     58.2207         0.014495   
    323. D(H  38,N  36,C  24,C  25)    175.0063         0.014495   
    324. D(H  38,N  36,C  24,C  23)    -58.8316         0.014495   
    325. D(H  39,N  36,C  24,H  37)    -58.6624         0.014495   
    326. D(H  39,N  36,C  24,C  25)     58.1232         0.014495   
    327. D(C  42,O  40,C  25,H  41)     38.0075         0.011295   
    328. D(C  42,O  40,C  25,O  26)    -84.1137         0.011295   
    329. D(C  42,O  40,C  25,C  24)    159.9249         0.011295   
    330. D(H  46,C  42,O  40,C  25)    148.4324         0.011071   
    331. D(C  45,C  42,O  40,C  25)    -98.4396         0.011071   
    332. D(C  43,C  42,O  40,C  25)     34.9244         0.011071   
    333. D(H  65,C  43,C  42,H  46)   -163.7575         0.006322   
    334. D(H  65,C  43,C  42,C  45)     80.6365         0.006322   
    335. D(H  65,C  43,C  42,O  40)    -50.3891         0.006322   
    336. D(O  64,C  43,C  42,H  46)    -42.4598         0.006322   
    337. D(O  64,C  43,C  42,C  45)   -158.0658         0.006322   
    338. D(O  64,C  43,C  42,O  40)     70.9087         0.006322   
    339. D(C  44,C  43,C  42,H  46)     79.6729         0.006322   
    340. D(C  44,C  43,C  42,C  45)    -35.9331         0.006322   
    341. D(C  44,C  43,C  42,O  40)   -166.9586         0.006322   
    342. D(H  61,C  44,C  43,H  65)    174.0744         0.010156   
    343. D(H  61,C  44,C  43,O  64)     58.4604         0.010156   
    344. D(H  61,C  44,C  43,C  42)    -69.2310         0.010156   
    345. D(C  60,C  44,C  43,H  65)    -66.7775         0.010156   
    346. D(C  60,C  44,C  43,O  64)    177.6084         0.010156   
    347. D(C  60,C  44,C  43,C  42)     49.9170         0.010156   
    348. D(N  54,C  44,C  43,H  65)     54.6840         0.010156   
    349. D(N  54,C  44,C  43,O  64)    -60.9301         0.010156   
    350. D(N  54,C  44,C  43,C  42)    171.3785         0.010156   
    351. D(H  49,C  45,C  42,H  46)    162.9815         0.005534   
    352. D(H  49,C  45,C  42,C  43)    -80.9832         0.005534   
    353. D(H  49,C  45,C  42,O  40)     49.5118         0.005534   
    354. D(O  48,C  45,C  42,H  46)    -81.5945         0.005534   
    355. D(O  48,C  45,C  42,C  43)     34.4408         0.005534   
    356. D(O  48,C  45,C  42,O  40)    164.9358         0.005534   
    357. D(C  47,C  45,C  42,H  46)     38.4422         0.005534   
    358. D(C  47,C  45,C  42,C  43)    154.4775         0.005534   
    359. D(C  47,C  45,C  42,O  40)    -75.0275         0.005534   
    360. D(H  52,C  47,C  45,O  48)     70.9446         0.005937   
    361. D(H  52,C  47,C  45,C  42)    -51.3944         0.005937   
    362. D(H  51,C  47,C  45,H  49)    -60.4189         0.005937   
    363. D(H  51,C  47,C  45,O  48)   -173.5729         0.005937   
    364. D(H  51,C  47,C  45,C  42)     64.0881         0.005937   
    365. D(O  50,C  47,C  45,H  49)     62.2397         0.005937   
    366. D(O  50,C  47,C  45,O  48)    -50.9144         0.005937   
    367. D(H  52,C  47,C  45,H  49)   -175.9014         0.005937   
    368. D(O  50,C  47,C  45,C  42)   -173.2533         0.005937   
    369. D(C  60,O  48,C  45,H  49)     63.9678         0.015769   
    370. D(C  60,O  48,C  45,C  47)    177.5118         0.015769   
    371. D(C  60,O  48,C  45,C  42)    -51.7617         0.015769   
    372. D(H  53,O  50,C  47,H  52)     53.0841         0.009758   
    373. D(H  53,O  50,C  47,H  51)    -62.6690         0.009758   
    374. D(H  53,O  50,C  47,C  45)    174.8655         0.009758   
    375. D(H  56,N  54,C  44,H  61)   -177.7385         0.014357   
    376. D(H  56,N  54,C  44,C  60)     63.8308         0.014357   
    377. D(H  56,N  54,C  44,C  43)    -58.1041         0.014357   
    378. D(H  55,N  54,C  44,H  61)    -59.7517         0.014357   
    379. D(H  55,N  54,C  44,C  60)   -178.1824         0.014357   
    380. D(H  55,N  54,C  44,C  43)     59.8827         0.014357   
    381. D(H  59,O  57,C  23,H  58)     -1.5980         0.012252   
    382. D(H  59,O  57,C  23,C  28)    117.0211         0.012252   
    383. D(H  59,O  57,C  23,C  24)   -118.3680         0.012252   
    384. D(H  63,C  60,O  48,C  45)    -52.4331         0.016718   
    385. D(H  62,C  60,O  48,C  45)   -171.7190         0.016718   
    386. D(C  44,C  60,O  48,C  45)     69.5188         0.016718   
    387. D(H  63,C  60,C  44,H  61)    174.6897         0.010522   
    388. D(H  63,C  60,C  44,N  54)    -66.7716         0.010522   
    389. D(H  63,C  60,C  44,C  43)     55.1916         0.010522   
    390. D(H  62,C  60,C  44,H  61)    -64.0150         0.010522   
    391. D(H  62,C  60,C  44,N  54)     54.5237         0.010522   
    392. D(H  62,C  60,C  44,C  43)    176.4869         0.010522   
    393. D(O  48,C  60,C  44,H  61)     53.6814         0.010522   
    394. D(O  48,C  60,C  44,N  54)    172.2201         0.010522   
    395. D(O  48,C  60,C  44,C  43)    -65.8167         0.010522   
    396. D(H  66,O  64,C  43,H  65)    -64.7969         0.011782   
    397. D(H  66,O  64,C  43,C  44)     50.4337         0.011782   
    398. D(H  66,O  64,C  43,C  42)    174.1030         0.011782   
    -----------------------------------------------------------------

Number of atoms                         .... 67
Number of degrees of freedom            .... 398

         *************************************************************
         *                GEOMETRY OPTIMIZATION CYCLE   1            *
         *************************************************************
---------------------------------
CARTESIAN COORDINATES (ANGSTROEM)
---------------------------------
  C     -1.378420    1.744820   -0.674310
  C     -2.559210    0.767610   -0.903930
  C     -2.070610   -0.626330   -1.348300
  H     -3.229330    1.176670   -1.663810
  H     -3.134120    0.670310    0.021180
  C     -1.030170   -1.154810   -0.340270
  C      0.129180   -0.151100   -0.119510
  O     -0.429140    1.142230    0.252660
  C     -1.922400    3.066690   -0.070710
  H     -0.869320    1.943780   -1.622330
  O     -0.919590    4.086260    0.015100
  H     -2.319330    2.871620    0.929410
  H     -2.737450    3.436680   -0.698710
  H     -1.338250    4.912360    0.341640
  O     -3.181240   -1.541820   -1.377890
  H     -1.614410   -0.555960   -2.340390
  H     -3.849370   -1.251590   -2.025770
  N     -0.527310   -2.470190   -0.769350
  H     -1.531800   -1.290000    0.622310
  H     -1.307080   -3.119580   -0.851580
  H      0.115500   -2.843690   -0.074360
  O      1.016380   -0.075460   -1.283110
  H      0.719020   -0.505080    0.738990
  C      2.885120    1.621280   -1.287550
  C      3.553940    1.706460   -2.703060
  C      4.635460    0.608230   -2.979270
  O      3.926320   -0.665700   -2.846830
  C      3.353010   -1.030450   -1.536790
  C      2.429460    0.134860   -0.959760
  C      2.698300   -2.477550   -1.696480
  H      4.203960   -1.133610   -0.858250
  H      2.522780    0.045330    0.125450
  O      2.669930   -3.352790   -0.510950
  H      3.276420   -3.005720   -2.459680
  H      1.688840   -2.370760   -2.097620
  H      2.383540   -4.322800   -0.666550
  N      4.157290    3.038830   -2.879320
  H      2.765130    1.588390   -3.451940
  H      3.433850    3.748610   -2.780950
  H      4.527330    3.113590   -3.824850
  O      5.191170    0.815970   -4.354030
  H      5.456070    0.655170   -2.247540
  C      6.494890    0.303480   -4.890890
  C      6.848760   -1.151630   -4.279740
  C      8.319940   -1.507630   -4.581980
  C      7.678440    1.438050   -4.844930
  H      6.317650    0.134290   -5.956280
  C      7.722130    2.673220   -5.904620
  O      8.956740    0.778270   -5.033710
  H      7.684590    1.866070   -3.838810
  O      8.940250    3.579590   -5.879080
  H      6.834030    3.288820   -5.738860
  H      7.641630    2.250390   -6.909480
  H      9.133690    4.364810   -6.555400
  N      8.713900   -2.730670   -3.858690
  H      8.121720   -3.506950   -4.145380
  H      8.582820   -2.603160   -2.857530
  O      1.779140    2.609790   -1.203110
  H      3.643310    1.895610   -0.549190
  H      1.786220    3.370960   -0.526390
  C      9.246830   -0.347790   -4.179320
  H      8.431660   -1.684460   -5.655870
  H     10.289700   -0.635570   -4.339820
  H      9.105340   -0.067360   -3.131450
  O      6.016740   -2.296210   -4.750530
  H      6.746270   -1.086210   -3.193800
  H      6.252350   -3.260530   -4.466870

----------------------------
CARTESIAN COORDINATES (A.U.)
----------------------------
  NO LB      ZA    FRAG     MASS         X           Y           Z
   0 C     6.0000    0    12.011   -2.604836    3.297232   -1.274261
   1 C     6.0000    0    12.011   -4.836206    1.450573   -1.708180
   2 C     6.0000    0    12.011   -3.912886   -1.183592   -2.547918
   3 H     1.0000    0     1.008   -6.102549    2.223584   -3.144145
   4 H     1.0000    0     1.008   -5.922628    1.266702    0.040024
   5 C     6.0000    0    12.011   -1.946739   -2.182275   -0.643017
   6 C     6.0000    0    12.011    0.244115   -0.285538   -0.225841
   7 O     8.0000    0    15.999   -0.810957    2.158502    0.477458
   8 C     6.0000    0    12.011   -3.632810    5.795204   -0.133623
   9 H     1.0000    0     1.008   -1.642777    3.673212   -3.065759
  10 O     8.0000    0    15.999   -1.737773    7.721912    0.028535
  11 H     1.0000    0     1.008   -4.382899    5.426575    1.756330
  12 H     1.0000    0     1.008   -5.173031    6.494384   -1.320371
  13 H     1.0000    0     1.008   -2.528926    9.283015    0.645606
  14 O     8.0000    0    15.999   -6.011672   -2.913618   -2.603835
  15 H     1.0000    0     1.008   -3.050793   -1.050612   -4.422696
  16 H     1.0000    0     1.008   -7.274255   -2.365162   -3.828151
  17 N     7.0000    0    14.007   -0.996471   -4.667983   -1.453861
  18 H     1.0000    0     1.008   -2.894682   -2.437747    1.175995
  19 H     1.0000    0     1.008   -2.470023   -5.895152   -1.609253
  20 H     1.0000    0     1.008    0.218263   -5.373795   -0.140520
  21 O     8.0000    0    15.999    1.920680   -0.142599   -2.424726
  22 H     1.0000    0     1.008    1.358751   -0.954463    1.396489
  23 C     6.0000    0    12.011    5.452087    3.063775   -2.433117
  24 C     6.0000    0    12.011    6.715973    3.224742   -5.108043
  25 C     6.0000    0    12.011    8.759750    1.149388   -5.630004
  26 O     8.0000    0    15.999    7.419670   -1.257991   -5.379729
  27 C     6.0000    0    12.011    6.336271   -1.947268   -2.904112
  28 C     6.0000    0    12.011    4.591014    0.254848   -1.813684
  29 C     6.0000    0    12.011    5.099048   -4.681891   -3.205883
  30 H     1.0000    0     1.008    7.944333   -2.142212   -1.621857
  31 H     1.0000    0     1.008    4.767363    0.085661    0.237066
  32 O     8.0000    0    15.999    5.045436   -6.335855   -0.965556
  33 H     1.0000    0     1.008    6.191536   -5.679988   -4.648122
  34 H     1.0000    0     1.008    3.191445   -4.480087   -3.963927
  35 H     1.0000    0     1.008    4.504238   -8.168908   -1.259597
  36 N     7.0000    0    14.007    7.856140    5.742556   -5.441126
  37 H     1.0000    0     1.008    5.225338    3.001622   -6.523221
  38 H     1.0000    0     1.008    6.489036    7.083846   -5.255234
  39 H     1.0000    0     1.008    8.555414    5.883832   -7.227919
  40 O     8.0000    0    15.999    9.809890    1.541960   -8.227924
  41 H     1.0000    0     1.008   10.310478    1.238092   -4.247235
  42 C     6.0000    0    12.011   12.273563    0.573494   -9.242443
  43 C     6.0000    0    12.011   12.942281   -2.176265   -8.087537
  44 C     6.0000    0    12.011   15.722408   -2.849008   -8.658687
  45 C     6.0000    0    12.011   14.510149    2.717521   -9.155591
  46 H     1.0000    0     1.008   11.938628    0.253771  -11.255738
  47 C     6.0000    0    12.011   14.592711    5.051654  -11.158115
  48 O     8.0000    0    15.999   16.925786    1.470717   -9.512333
  49 H     1.0000    0     1.008   14.521771    3.526361   -7.254300
  50 O     8.0000    0    15.999   16.894624    6.764445  -11.109851
  51 H     1.0000    0     1.008   12.914445    6.214969  -10.844874
  52 H     1.0000    0     1.008   14.440588    4.252621  -13.057025
  53 H     1.0000    0     1.008   17.260173    8.248296  -12.387911
  54 N     7.0000    0    14.007   16.466885   -5.160218   -7.291867
  55 H     1.0000    0     1.008   15.347827   -6.627175   -7.833633
  56 H     1.0000    0     1.008   16.219179   -4.919259   -5.399949
  57 O     8.0000    0    15.999    3.362087    4.931788   -2.273548
  58 H     1.0000    0     1.008    6.884858    3.582184   -1.037819
  59 H     1.0000    0     1.008    3.375467    6.370191   -0.994733
  60 C     6.0000    0    12.011   17.473976   -0.657228   -7.897770
  61 H     1.0000    0     1.008   15.933528   -3.183168  -10.688045
  62 H     1.0000    0     1.008   19.444715   -1.201053   -8.201071
  63 H     1.0000    0     1.008   17.206599   -0.127292   -5.917583
  64 O     8.0000    0    15.999   11.369991   -4.339208   -8.977201
  65 H     1.0000    0     1.008   12.748603   -2.052639   -6.035407
  66 H     1.0000    0     1.008   11.815229   -6.161509   -8.441161

--------------------------------
INTERNAL COORDINATES (ANGSTROEM)
--------------------------------
 C      0   0   0     0.000000000000     0.00000000     0.00000000
 C      1   0   0     1.549816038309     0.00000000     0.00000000
 C      2   1   0     1.542486103827   111.78693013     0.00000000
 H      2   1   3     1.092615445800   109.52743621   238.57344177
 H      2   1   3     1.093534320541   109.34867108   121.12005380
 C      3   2   1     1.542054144607   109.57918707    53.59813985
 C      6   3   2     1.549277626573   112.08706007   306.18899400
 O      7   6   3     1.457029244799   108.94850088    53.77824789
 C      1   2   3     1.551640260273   109.12868477   186.66496682
 H      1   2   3     1.094307914620   109.92177449    65.71084874
 O      9   1   2     1.432659846963   112.59294574   187.40576710
 H      9   1   2     1.093547321427   109.33302762    66.04240151
 H      9   1   2     1.093427227848   109.03672053   307.73056579
 H     11   9   1     0.982011088125   108.67352656   175.95178736
 O      3   2   1     1.439616791059   109.64747746   172.48824085
 H      3   2   1     1.094217960463   109.58134484   293.45740593
 H     15   3   2     0.974874168393   110.67515846    62.02020506
 N      6   3   2     1.472142102652   110.25252704   181.48426268
 H      6   3   2     1.093832368053   107.95017523    64.18113136
 H     18   6   3     1.018091546915   109.38086230   301.76021498
 H     18   6   3     1.017702336737   110.15945747   183.50597030
 O      7   6   3     1.465199716626   111.92548973   288.21433709
 H      7   6   3     1.100106956618   107.69559044   169.45617958
 C     22   7   6     2.524110839246   118.97289637   174.92824847
 C     24  22   7     1.567878944594   110.72766107   189.65094094
 C     25  24  22     1.565913984675   114.56755049   277.22312991
 O     26  25  24     1.464007355890   105.05674083    59.66384485
 C     27  26  25     1.475781731897   118.91715840   296.50024587
 C     22   7   6     1.464781489267   114.59772032   214.99867303
 C     28  27  26     1.596322176191   107.13242676   181.94941333
 H     28  27  26     1.093240330257   105.77753890   296.07505076
 H     29  22   7     1.092888369139   106.84662324     8.01250623
 O     30  28  27     1.473883067071   117.75887234   149.82637008
 H     30  28  27     1.093462630043   106.90902856    30.06898538
 H     30  28  27     1.091479223485   109.11033149   275.56609968
 H     33  30  28     1.023303470237   116.48638302   189.31680498
 N     25  24  22     1.473196737371   109.38153349   154.14045400
 H     25  24  22     1.094067180478   107.73122063    36.84392244
 H     37  25  24     1.018248367983   109.14084072   301.16837829
 H     37  25  24     1.018108854740   109.04926941   184.28530606
 O     26  25  24     1.497309109469   108.72218979   180.36506336
 H     26  25  24     1.100469412842   111.58129692   300.78270374
 C     41  26  25     1.500183488144   127.13615583   159.92485588
 C     43  41  26     1.617428023592   111.23837154    34.92438557
 C     44  43  41     1.543520524645   110.00114681   193.04135758
 C     43  41  26     1.640168286793   112.38095903   261.56038407
 H     43  41  26     1.093204064116   105.11349733   148.43243440
 C     46  43  41     1.628034594565   121.73157329   284.97254619
 O     46  43  41     1.450861270694   108.51556204   164.93582172
 H     46  43  41     1.093396724570   107.49553192    49.51180658
 O     48  46  43     1.518543777077   117.60775130   186.74669821
 H     48  46  43     1.093234351637   107.86194148    64.08812982
 H     48  46  43     1.093164707855   107.63125832   308.60563602
 H     51  48  46     1.054228734384   125.51832418   174.86545700
 N     45  44  43     1.474510002441   110.48203129   171.37849514
 H     55  45  44     1.017584859803   109.82072602    59.88266104
 H     55  45  44     1.017723986206   110.13366694   301.89585677
 O     24  22   7     1.485757010450    84.03202498   298.19937605
 H     24  22   7     1.093290681658   132.91530657    47.44615104
 H     58  24  22     1.018518460167   121.99217074   131.72641942
 C     49  46  43     1.442964172736   117.06250909   308.23834723
 H     45  44  43     1.094070353954   109.07504054   290.76897936
 H     61  49  46     1.093688902431   108.06787621   188.28103472
 H     61  49  46     1.093934157936   109.94524992   307.56685304
 O     44  43  41     1.491296040664   116.68812580    70.90865135
 H     44  43  41     1.092725793646   107.52521538   309.61094939
 H     65  44  43     1.032418582795   120.18684044   174.10295776

---------------------------
INTERNAL COORDINATES (A.U.)
---------------------------
 C      0   0   0     0.000000000000     0.00000000     0.00000000
 C      1   0   0     2.928727870363     0.00000000     0.00000000
 C      2   1   0     2.914876301613   111.78693013     0.00000000
 H      2   1   3     2.064743962254   109.52743621   238.57344177
 H      2   1   3     2.066480383865   109.34867108   121.12005380
 C      3   2   1     2.914060016986   109.57918707    53.59813985
 C      6   3   2     2.927710419635   112.08706007   306.18899400
 O      7   6   3     2.753386241785   108.94850088    53.77824789
 C      1   2   3     2.932175150282   109.12868477   186.66496682
 H      1   2   3     2.067942264814   109.92177449    65.71084874
 O      9   1   2     2.707334753826   112.59294574   187.40576710
 H      9   1   2     2.066504951980   109.33302762    66.04240151
 H      9   1   2     2.066278008006   109.03672053   307.73056579
 H     11   9   1     1.855732017030   108.67352656   175.95178736
 O      3   2   1     2.720481472897   109.64747746   172.48824085
 H      3   2   1     2.067772276093   109.58134484   293.45740593
 H     15   3   2     1.842245193297   110.67515846    62.02020506
 N      6   3   2     2.781945404227   110.25252704   181.48426268
 H      6   3   2     2.067043612038   107.95017523    64.18113136
 H     18   6   3     1.923914202930   109.38086230   301.76021498
 H     18   6   3     1.923178702285   110.15945747   183.50597030
 O      7   6   3     2.768826195922   111.92548973   288.21433709
 H      7   6   3     2.078900866030   107.69559044   169.45617958
 C     22   7   6     4.769878217837   118.97289637   174.92824847
 C     24  22   7     2.962861816423   110.72766107   189.65094094
 C     25  24  22     2.959148580313   114.56755049   277.22312991
 O     26  25  24     2.766572960678   105.05674083    59.66384485
 C     27  26  25     2.788823306729   118.91715840   296.50024587
 C     22   7   6     2.768035860752   114.59772032   214.99867303
 C     28  27  26     3.016611734507   107.13242676   181.94941333
 H     28  27  26     2.065924822743   105.77753890   296.07505076
 H     29  22   7     2.065259712621   106.84662324     8.01250623
 O     30  28  27     2.785235350189   117.75887234   149.82637008
 H     30  28  27     2.066344908458   106.90902856    30.06898538
 H     30  28  27     2.062596813252   109.11033149   275.56609968
 H     33  30  28     1.933763310640   116.48638302   189.31680498
 N     25  24  22     2.783938375017   109.38153349   154.14045400
 H     25  24  22     2.067487343216   107.73122063    36.84392244
 H     37  25  24     1.924210551800   109.14084072   301.16837829
 H     37  25  24     1.923946909979   109.04926941   184.28530606
 O     26  25  24     2.829504154723   108.72218979   180.36506336
 H     26  25  24     2.079585809028   111.58129692   300.78270374
 C     41  26  25     2.834935943223   127.13615583   159.92485588
 C     43  41  26     3.056496005918   111.23837154    34.92438557
 C     44  43  41     2.916831073665   110.00114681   193.04135758
 C     43  41  26     3.099468875581   112.38095903   261.56038407
 H     43  41  26     2.065856289669   105.11349733   148.43243440
 C     46  43  41     3.076539520277   121.73157329   284.97254619
 O     46  43  41     2.741730459925   108.51556204   164.93582172
 H     46  43  41     2.066220365163   107.49553192    49.51180658
 O     48  46  43     2.869631861046   117.60775130   186.74669821
 H     48  46  43     2.065913524790   107.86194148    64.08812982
 H     48  46  43     2.065781917114   107.63125832   308.60563602
 H     51  48  46     1.992203590495   125.51832418   174.86545700
 N     45  44  43     2.786420086342   110.48203129   171.37849514
 H     55  45  44     1.922956703052   109.82072602    59.88266104
 H     55  45  44     1.923219613853   110.13366694   301.89585677
 O     24  22   7     2.807673851303    84.03202498   298.19937605
 H     24  22   7     2.066019973102   132.91530657    47.44615104
 H     58  24  22     1.924720952058   121.99217074   131.72641942
 C     49  46  43     2.726807107531   117.06250909   308.23834723
 H     45  44  43     2.067493340214   109.07504054   290.76897936
 H     61  49  46     2.066772501303   108.06787621   188.28103472
 H     61  49  46     2.067235967042   109.94524992   307.56685304
 O     44  43  41     2.818141101456   116.68812580    70.90865135
 H     44  43  41     2.064952489463   107.52521538   309.61094939
 H     65  44  43     1.950988377053   120.18684044   174.10295776

---------------------
BASIS SET INFORMATION
---------------------
There are 4 groups of distinct atoms

 Group   1 Type C   : 6s3p contracted to 3s2p pattern {321/21}
 Group   2 Type H   : 3s contracted to 2s pattern {21}
 Group   3 Type O   : 6s3p contracted to 3s2p pattern {321/21}
 Group   4 Type N   : 6s3p contracted to 3s2p pattern {321/21}

Atom   0C    basis set group =>   1
Atom   1C    basis set group =>   1
Atom   2C    basis set group =>   1
Atom   3H    basis set group =>   2
Atom   4H    basis set group =>   2
Atom   5C    basis set group =>   1
Atom   6C    basis set group =>   1
Atom   7O    basis set group =>   3
Atom   8C    basis set group =>   1
Atom   9H    basis set group =>   2
Atom  10O    basis set group =>   3
Atom  11H    basis set group =>   2
Atom  12H    basis set group =>   2
Atom  13H    basis set group =>   2
Atom  14O    basis set group =>   3
Atom  15H    basis set group =>   2
Atom  16H    basis set group =>   2
Atom  17N    basis set group =>   4
Atom  18H    basis set group =>   2
Atom  19H    basis set group =>   2
Atom  20H    basis set group =>   2
Atom  21O    basis set group =>   3
Atom  22H    basis set group =>   2
Atom  23C    basis set group =>   1
Atom  24C    basis set group =>   1
Atom  25C    basis set group =>   1
Atom  26O    basis set group =>   3
Atom  27C    basis set group =>   1
Atom  28C    basis set group =>   1
Atom  29C    basis set group =>   1
Atom  30H    basis set group =>   2
Atom  31H    basis set group =>   2
Atom  32O    basis set group =>   3
Atom  33H    basis set group =>   2
Atom  34H    basis set group =>   2
Atom  35H    basis set group =>   2
Atom  36N    basis set group =>   4
Atom  37H    basis set group =>   2
Atom  38H    basis set group =>   2
Atom  39H    basis set group =>   2
Atom  40O    basis set group =>   3
Atom  41H    basis set group =>   2
Atom  42C    basis set group =>   1
Atom  43C    basis set group =>   1
Atom  44C    basis set group =>   1
Atom  45C    basis set group =>   1
Atom  46H    basis set group =>   2
Atom  47C    basis set group =>   1
Atom  48O    basis set group =>   3
Atom  49H    basis set group =>   2
Atom  50O    basis set group =>   3
Atom  51H    basis set group =>   2
Atom  52H    basis set group =>   2
Atom  53H    basis set group =>   2
Atom  54N    basis set group =>   4
Atom  55H    basis set group =>   2
Atom  56H    basis set group =>   2
Atom  57O    basis set group =>   3
Atom  58H    basis set group =>   2
Atom  59H    basis set group =>   2
Atom  60C    basis set group =>   1
Atom  61H    basis set group =>   2
Atom  62H    basis set group =>   2
Atom  63H    basis set group =>   2
Atom  64O    basis set group =>   3
Atom  65H    basis set group =>   2
Atom  66H    basis set group =>   2
------------------------------------------------------------------------------
                           ORCA GTO INTEGRAL CALCULATION
------------------------------------------------------------------------------
------------------------------------------------------------------------------
                   ___                                                        
                  /   \      - P O W E R E D   B Y -                         
                 /     \                                                     
                 |  |  |   _    _      __       _____    __    __             
                 |  |  |  | |  | |    /  \     |  _  \  |  |  /  |          
                  \  \/   | |  | |   /    \    | | | |  |  | /  /          
                 / \  \   | |__| |  /  /\  \   | |_| |  |  |/  /          
                |  |  |   |  __  | /  /__\  \  |    /   |      \           
                |  |  |   | |  | | |   __   |  |    \   |  |\   \          
                \     /   | |  | | |  |  |  |  | |\  \  |  | \   \       
                 \___/    |_|  |_| |__|  |__|  |_| \__\ |__|  \__/        
                                                                              
                      - O R C A' S   B I G   F R I E N D -                    
                                      &                                       
                       - I N T E G R A L  F E E D E R -                       
                                                                              
 v1 FN, 2020, v2 2021                                                         
------------------------------------------------------------------------------


Reading SHARK input file opt.SHARKINP.tmp ... ok
----------------------
SHARK INTEGRAL PACKAGE
----------------------

Number of atoms                             ...     67
Number of basis functions                   ...    358
Number of shells                            ...    230
Maximum angular momentum                    ...      1
Integral batch strategy                     ... SHARK/LIBINT Hybrid
RI-J (if used) integral strategy            ... SPLIT-RIJ (Revised 2003 algorithm where possible)
Printlevel                                  ...      1
Contraction scheme used                     ... SEGMENTED contraction
Coulomb Range Separation                    ... NOT USED
Exchange Range Separation                   ... NOT USED
Finite Nucleus Model                        ... NOT USED
Auxiliary Coulomb fitting basis             ... NOT available
Auxiliary J/K fitting basis                 ... NOT available
Auxiliary Correlation fitting basis         ... NOT available
Auxiliary 'external' fitting basis          ... NOT available
Integral threshold                          ...     2.500000e-11
Primitive cut-off                           ...     2.500000e-12
Primitive pair pre-selection threshold      ...     2.500000e-12

Calculating pre-screening integrals         ... done (  0.0 sec) Dimension = 230
Organizing shell pair data                  ... done (  0.1 sec)
Shell pair information
Total number of shell pairs                 ...     26565
Shell pairs after pre-screening             ...     13183
Total number of primitive shell pairs       ...     77616
Primitive shell pairs kept                  ...     25843
          la=0 lb=0:   6432 shell pairs
          la=1 lb=0:   5532 shell pairs
          la=1 lb=1:   1219 shell pairs

Calculating one electron integrals          ... done (  0.1 sec)
Calculating Nuclear repulsion               ... done (  0.0 sec) ENN=   3652.103532565895 Eh

SHARK setup successfully completed in   0.4 seconds

Maximum memory used throughout the entire GTOINT-calculation: 30.0 MB
-------------------------------------------------------------------------------
                                 ORCA SCF
-------------------------------------------------------------------------------

------------
SCF SETTINGS
------------
Hamiltonian:
 Ab initio Hamiltonian  Method          .... Hartree-Fock(GTOs)


General Settings:
 Integral files         IntName         .... opt
 Hartree-Fock type      HFTyp           .... RHF
 Total Charge           Charge          ....    0
 Multiplicity           Mult            ....    1
 Number of Electrons    NEL             ....  252
 Basis Dimension        Dim             ....  358
 Nuclear Repulsion      ENuc            ....   3652.1035325659 Eh

Convergence Acceleration:
 DIIS                   CNVDIIS         .... on
   Start iteration      DIISMaxIt       ....    12
   Startup error        DIISStart       ....  0.200000
   # of expansion vecs  DIISMaxEq       ....     5
   Bias factor          DIISBfac        ....   1.050
   Max. coefficient     DIISMaxC        ....  10.000
 Trust-Rad. Augm. Hess. CNVTRAH         .... auto
   Auto Start mean grad. ratio tolernc. ....  1.125000
   Auto Start start iteration           ....    20
   Auto Start num. interpolation iter.  ....    10
   Max. Number of Micro iterations      ....    16
   Max. Number of Macro iterations      .... Maxiter - #DIIS iter
   Number of Davidson start vectors     ....     2
   Converg. threshold I  (grad. norm)   ....   1.000e-05
   Converg. threshold II (energy diff.) ....   1.000e-08
   Grad. Scal. Fac. for Micro threshold ....   0.100
   Minimum threshold for Micro iter.    ....   0.010
   NR start threshold (gradient norm)   ....   0.001
   Initial trust radius                 ....   0.400
   Minimum AH scaling param. (alpha)    ....   1.000
   Maximum AH scaling param. (alpha)    .... 1000.000
   Orbital update algorithm             .... Taylor
   White noise on init. David. guess    .... on
   Maximum white noise                  ....   0.010
   Quad. conv. algorithm                .... NR
 SOSCF                  CNVSOSCF        .... on
   Start iteration      SOSCFMaxIt      ....   150
   Startup grad/error   SOSCFStart      ....  0.003300
 Level Shifting         CNVShift        .... on
   Level shift para.    LevelShift      ....    0.2500
   Turn off err/grad.   ShiftErr        ....    0.0010
 Zerner damping         CNVZerner       .... off
 Static damping         CNVDamp         .... on
   Fraction old density DampFac         ....    0.7000
   Max. Damping (<1)    DampMax         ....    0.9800
   Min. Damping (>=0)   DampMin         ....    0.0000
   Turn off err/grad.   DampErr         ....    0.1000
 Fernandez-Rico         CNVRico         .... off

SCF Procedure:
 Maximum # iterations   MaxIter         ....   125
 SCF integral mode      SCFMode         .... Direct
   Integral package                     .... SHARK and LIBINT hybrid scheme
 Reset frequency        DirectResetFreq ....    20
 Integral Threshold     Thresh          ....  2.500e-11 Eh
 Primitive CutOff       TCut            ....  2.500e-12 Eh

Convergence Tolerance:
 Convergence Check Mode ConvCheckMode   .... Total+1el-Energy
 Convergence forced     ConvForced      .... 1
 Energy Change          TolE            ....  1.000e-08 Eh
 1-El. energy change                    ....  1.000e-05 Eh
 Orbital Gradient       TolG            ....  1.000e-05
 Orbital Rotation angle TolX            ....  1.000e-05
 DIIS Error             TolErr          ....  5.000e-07


Diagonalization of the overlap matrix:
Smallest eigenvalue                        ... 7.899e-03
Time for diagonalization                   ...    0.024 sec
Threshold for overlap eigenvalues          ... 1.000e-08
Number of eigenvalues below threshold      ... 0
Time for construction of square roots      ...    0.014 sec
Total time needed                          ...    0.038 sec

Time for model grid setup =    5.535 sec

------------------------------
INITIAL GUESS: MODEL POTENTIAL
------------------------------
Loading Hartree-Fock densities                     ... done
Calculating cut-offs                               ... done
Initializing the effective Hamiltonian             ... done
Setting up the integral package (SHARK)            ... done
Starting the Coulomb interaction                   ... done (   2.7 sec)
Reading the grid                                   ... done
Mapping shells                                     ... done
Starting the XC term evaluation                    ... done (   0.7 sec)
Transforming the Hamiltonian                       ... done (   0.0 sec)
Diagonalizing the Hamiltonian                      ... done (   0.0 sec)
Back transforming the eigenvectors                 ... done (   0.0 sec)
Now organizing SCF variables                       ... done
                      ------------------
                      INITIAL GUESS DONE (   9.0 sec)
                      ------------------
--------------
SCF ITERATIONS
--------------
ITER       Energy         Delta-E        Max-DP      RMS-DP      [F,P]     Damp
               ***  Starting incremental Fock matrix formation  ***
  0  -1678.2984574447   0.000000000000 0.04459808  0.00119981  0.2622908 0.7000
  1  -1678.6173003638  -0.318842919107 0.03143932  0.00091788  0.1619161 0.7000
                               ***Turning on DIIS***
  2  -1678.8079060349  -0.190605671110 0.06222215  0.00198695  0.0968919 0.0000
  3  -1677.4416828984   1.366223136462 0.02308344  0.00064728  0.0491455 0.0000
  4  -1679.3455158002  -1.903832901726 0.00649278  0.00017472  0.0090249 0.0000
                      *** Initiating the SOSCF procedure ***
                           *** Shutting down DIIS ***
                      *** Re-Reading the Fockian *** 
                      *** Removing any level shift *** 
ITER      Energy       Delta-E        Grad      Rot      Max-DP    RMS-DP
  5  -1679.20555444   0.1399613566  0.000675  0.000675  0.001997  0.000081
               *** Restarting incremental Fock matrix formation ***
  6  -1679.20282160   0.0027328442  0.000388  0.000655  0.001008  0.000040
  7  -1679.20286071  -0.0000391144  0.000177  0.000528  0.000928  0.000029
  8  -1679.20286755  -0.0000068399  0.000068  0.000035  0.000118  0.000005
  9  -1679.20286825  -0.0000006974  0.000011  0.000014  0.000068  0.000001
 10  -1679.20286828  -0.0000000335  0.000006  0.000017  0.000057  0.000001
                  ***Gradient check signals convergence***
              ***Rediagonalizing the Fockian in SOSCF/NRSCF***

               *****************************************************
               *                     SUCCESS                       *
               *           SCF CONVERGED AFTER  11 CYCLES          *
               *****************************************************


----------------
TOTAL SCF ENERGY
----------------

Total Energy       :        -1679.20286829 Eh          -45693.43306 eV

Components:
Nuclear Repulsion  :         3652.10353257 Eh           99378.78944 eV
Electronic Energy  :        -5331.30640085 Eh         -145072.22250 eV
One Electron Energy:        -9580.43696852 Eh         -260696.94349 eV
Two Electron Energy:         4249.13056766 Eh          115624.72099 eV

Virial components:
Potential Energy   :        -3351.11333492 Eh          -91188.42977 eV
Kinetic Energy     :         1671.91046663 Eh           45494.99672 eV
Virial Ratio       :            2.00436172


---------------
SCF CONVERGENCE
---------------

  Last Energy change         ...   -2.6721e-09  Tolerance :   1.0000e-08
  Last MAX-Density change    ...    1.0251e-05  Tolerance :   1.0000e-07
  Last RMS-Density change    ...    1.5844e-07  Tolerance :   5.0000e-09
  Last Orbital Gradient      ...    2.2465e-06  Tolerance :   1.0000e-05
  Last Orbital Rotation      ...    4.7438e-06  Tolerance :   1.0000e-05

             **** THE GBW FILE WAS UPDATED (opt.gbw) ****
             **** DENSITY opt.scfp WAS UPDATED ****
             **** ENERGY FILE WAS UPDATED (opt.en.tmp) ****
             **** THE GBW FILE WAS UPDATED (opt.gbw) ****
             **** DENSITY opt.scfp WAS UPDATED ****
----------------
ORBITAL ENERGIES
----------------

  NO   OCC          E(Eh)            E(eV) 
   0   2.0000     -20.462274      -556.8068 
   1   2.0000     -20.454513      -556.5956 
   2   2.0000     -20.449403      -556.4565 
   3   2.0000     -20.448989      -556.4453 
   4   2.0000     -20.448409      -556.4295 
   5   2.0000     -20.446107      -556.3669 
   6   2.0000     -20.443501      -556.2959 
   7   2.0000     -20.441615      -556.2446 
   8   2.0000     -20.437689      -556.1378 
   9   2.0000     -20.434893      -556.0617 
  10   2.0000     -20.424167      -555.7698 
  11   2.0000     -15.472285      -421.0223 
  12   2.0000     -15.448337      -420.3706 
  13   2.0000     -15.440608      -420.1603 
  14   2.0000     -11.301676      -307.5342 
  15   2.0000     -11.288699      -307.1811 
  16   2.0000     -11.266347      -306.5729 
  17   2.0000     -11.258069      -306.3476 
  18   2.0000     -11.252901      -306.2070 
  19   2.0000     -11.252354      -306.1921 
  20   2.0000     -11.245319      -306.0007 
  21   2.0000     -11.244182      -305.9697 
  22   2.0000     -11.243500      -305.9512 
  23   2.0000     -11.230326      -305.5927 
  24   2.0000     -11.229881      -305.5806 
  25   2.0000     -11.226646      -305.4926 
  26   2.0000     -11.224032      -305.4214 
  27   2.0000     -11.218689      -305.2760 
  28   2.0000     -11.207902      -304.9825 
  29   2.0000     -11.204042      -304.8775 
  30   2.0000     -11.199745      -304.7606 
  31   2.0000     -11.171955      -304.0044 
  32   2.0000      -1.379834       -37.5472 
  33   2.0000      -1.366470       -37.1835 
  34   2.0000      -1.359023       -36.9809 
  35   2.0000      -1.348983       -36.7077 
  36   2.0000      -1.343000       -36.5449 
  37   2.0000      -1.320826       -35.9415 
  38   2.0000      -1.315513       -35.7969 
  39   2.0000      -1.309548       -35.6346 
  40   2.0000      -1.304311       -35.4921 
  41   2.0000      -1.299915       -35.3725 
  42   2.0000      -1.273137       -34.6438 
  43   2.0000      -1.193702       -32.4823 
  44   2.0000      -1.174640       -31.9636 
  45   2.0000      -1.166597       -31.7447 
  46   2.0000      -1.064517       -28.9670 
  47   2.0000      -1.040722       -28.3195 
  48   2.0000      -1.032064       -28.0839 
  49   2.0000      -1.021174       -27.7876 
  50   2.0000      -1.003173       -27.2977 
  51   2.0000      -0.996678       -27.1210 
  52   2.0000      -0.927007       -25.2252 
  53   2.0000      -0.924107       -25.1462 
  54   2.0000      -0.909090       -24.7376 
  55   2.0000      -0.877570       -23.8799 
  56   2.0000      -0.864347       -23.5201 
  57   2.0000      -0.843620       -22.9561 
  58   2.0000      -0.822569       -22.3832 
  59   2.0000      -0.817251       -22.2385 
  60   2.0000      -0.810934       -22.0666 
  61   2.0000      -0.786724       -21.4078 
  62   2.0000      -0.773472       -21.0472 
  63   2.0000      -0.755232       -20.5509 
  64   2.0000      -0.697803       -18.9882 
  65   2.0000      -0.684131       -18.6162 
  66   2.0000      -0.682798       -18.5799 
  67   2.0000      -0.679623       -18.4935 
  68   2.0000      -0.677338       -18.4313 
  69   2.0000      -0.672733       -18.3060 
  70   2.0000      -0.670373       -18.2418 
  71   2.0000      -0.662047       -18.0152 
  72   2.0000      -0.654403       -17.8072 
  73   2.0000      -0.649403       -17.6712 
  74   2.0000      -0.642866       -17.4933 
  75   2.0000      -0.639616       -17.4048 
[...]
  22 H     1.0000    0     1.008    2.140608   -1.698901    0.930739
  23 C     6.0000    0    12.011    5.255321    3.540653   -3.268081
  24 C     6.0000    0    12.011    6.024604    3.194210   -6.014294
  25 C     6.0000    0    12.011    8.297308    1.488107   -6.148338
  26 O     8.0000    0    15.999    7.550415   -1.030623   -5.279943
  27 C     6.0000    0    12.011    6.903953   -0.956475   -2.567456
  28 C     6.0000    0    12.011    4.837156    0.993525   -1.921729
  29 C     6.0000    0    12.011    5.980863   -3.639036   -2.122057
  30 H     1.0000    0     1.008    8.584710   -0.563469   -1.410051
  31 H     1.0000    0     1.008    4.865023    1.296426    0.128780
  32 O     8.0000    0    15.999    5.529996   -3.851459    0.638320
  33 H     1.0000    0     1.008    7.456793   -4.946914   -2.757777
  34 H     1.0000    0     1.008    4.234441   -3.907230   -3.178152
  35 H     1.0000    0     1.008    5.235827   -5.661808    1.023207
  36 N     7.0000    0    14.007    6.750208    5.701526   -7.014665
  37 H     1.0000    0     1.008    4.446843    2.255458   -6.983579
  38 H     1.0000    0     1.008    5.287083    6.919056   -6.676020
  39 H     1.0000    0     1.008    7.103241    5.544171   -8.906715
  40 O     8.0000    0    15.999    9.040084    1.390378   -8.743292
  41 H     1.0000    0     1.008    9.807788    2.229002   -4.925487
  42 C     6.0000    0    12.011   11.585769    0.329801   -9.214690
  43 C     6.0000    0    12.011   12.002054   -2.269123   -8.060933
  44 C     6.0000    0    12.011   14.736544   -3.130197   -8.449237
  45 C     6.0000    0    12.011   13.591384    2.221602   -8.311689
  46 H     1.0000    0     1.008   11.650982    0.127153  -11.271085
  47 C     6.0000    0    12.011   13.355299    4.715359   -9.694001
  48 O     8.0000    0    15.999   16.133420    1.236040   -8.830968
  49 H     1.0000    0     1.008   13.358248    2.588573   -6.283406
  50 O     8.0000    0    15.999   15.171250    6.425243   -8.488361
  51 H     1.0000    0     1.008   11.401405    5.355878   -9.470535
  52 H     1.0000    0     1.008   13.767803    4.382876  -11.700561
  53 H     1.0000    0     1.008   15.086071    8.062400   -9.396241
  54 N     7.0000    0    14.007   15.296372   -5.608585   -7.263891
  55 H     1.0000    0     1.008   14.396947   -7.053100   -8.174318
  56 H     1.0000    0     1.008   14.840348   -5.605085   -5.382898
  57 O     8.0000    0    15.999    3.014724    5.144295   -3.429230
  58 H     1.0000    0     1.008    6.809585    4.534437   -2.306809
  59 H     1.0000    0     1.008    2.476458    5.780501   -1.718081
  60 C     6.0000    0    12.011   16.536641   -1.128138   -7.420692
  61 H     1.0000    0     1.008   15.058023   -3.297879  -10.483923
  62 H     1.0000    0     1.008   18.495128   -1.692878   -7.719690
  63 H     1.0000    0     1.008   16.188115   -0.840397   -5.386972
  64 O     8.0000    0    15.999   10.266254   -3.968455   -9.397527
  65 H     1.0000    0     1.008   11.586270   -2.198343   -6.034476
  66 H     1.0000    0     1.008   10.210421   -5.557592   -8.404539

--------------------------------
INTERNAL COORDINATES (ANGSTROEM)
--------------------------------
 C      0   0   0     0.000000000000     0.00000000     0.00000000
 C      1   0   0     1.528290930285     0.00000000     0.00000000
 C      2   1   0     1.540836839736   108.47806314     0.00000000
 H      2   1   3     1.098084185814   109.92026088   239.14269034
 H      2   1   3     1.095889863346   110.63186326   118.28442784
 C      3   2   1     1.519763347433   109.58155590    56.48300886
 C      6   3   2     1.518163043130   109.02135644   303.28384692
 O      7   6   3     1.451058988192   109.95824354    61.60294548
 C      1   2   3     1.513570436396   115.68591910   183.76455064
 H      1   2   3     1.086030947772   110.74154576    58.35152922
 O      9   1   2     1.483752413533   105.06195406   185.68820692
 H      9   1   2     1.094911225141   109.33303590    67.06989558
 H      9   1   2     1.097319693148   110.32245897   305.84686737
 H     11   9   1     0.989585306691   109.43439737   178.10989715
 O      3   2   1     1.473428351746   112.00814577   171.45078655
 H      3   2   1     1.094297472219   111.03056480   297.87391761
 H     15   3   2     0.992267842773   107.36822437    70.55393864
 N      6   3   2     1.480856677515   108.78687203   183.05528397
 H      6   3   2     1.101903457376   106.76712857    59.12303405
 H     18   6   3     1.023610991037   108.37568337   304.62437877
 H     18   6   3     1.024057866628   110.16206724   183.40487936
 O      7   6   3     1.459946893544   106.45456334   302.20473859
 H      7   6   3     1.088471275161   112.73929406   181.43809208
 C     22   7   6     2.464248328426   128.85662307   159.37977501
 C     24  22   7     1.520268774121   101.02312220   182.44715848
 C     25  24  22     1.505501047030   109.34551719   271.97995915
 O     26  25  24     1.464202181723   108.38913974    65.80054412
 C     27  26  25     1.476110051306   110.09322956   293.49395429
 C     22   7   6     1.471653321064   110.20246038   195.28317477
 C     28  27  26     1.519633481637   101.56535008   175.25372354
 H     28  27  26     1.099744934269   111.04826597   292.75778129
 H     29  22   7     1.096956731866   109.81983446   350.88848952
 O     30  28  27     1.484347980303   105.96450148   174.16662291
 H     30  28  27     1.096438698817   108.24549870    54.29713444
 H     30  28  27     1.089289738067   108.35184844   293.37083042
 H     33  30  28     0.991701205054   107.48741956   190.35827833
 N     25  24  22     1.479225332312   107.66399220   154.54772901
 H     25  24  22     1.098613100962   107.29695662    29.22617989
 H     37  25  24     1.023078278305   107.80264666   306.43404921
 H     37  25  24     1.021907879985   108.96537293   185.66468688
 O     26  25  24     1.429273717022   106.65773702   184.26231670
 H     26  25  24     1.100617092132   109.80556546   306.07675124
 C     41  26  25     1.480519348977   115.20276152   165.72482276
 C     43  41  26     1.520761194435   114.01498999    53.94316926
 C     44  43  41     1.530929554082   110.62168862   184.61642065
 C     43  41  26     1.535235272301   109.23165656   288.62046957
 H     43  41  26     1.094013281297   103.50050919   170.79114371
 C     46  43  41     1.513978420792   111.15843933   300.20426343
 O     46  43  41     1.468686278653   110.08345383   181.65097755
 H     46  43  41     1.097702252724   109.99893777    59.76894709
 O     48  46  43     1.466016816782   105.87995761   174.13878000
 H     48  46  43     1.094501872228   107.19847588    53.95397776
 H     48  46  43     1.098216473954   108.12561191   295.40870459
 H     51  48  46     0.991665202984   107.37211029   178.41631270
 N     45  44  43     1.483666171226   113.27127011   177.42502751
 H     55  45  44     1.021252445809   111.66265367    69.40980081
 H     55  45  44     1.024214494223   111.23716079   305.46375926
 O     24  22   7     1.460559110862    87.67434510   285.64222930
 H     24  22   7     1.100814119299   140.67783100    46.47953587
 H     58  24  22     1.007178441641   111.79608938    89.25632028
 C     49  46  43     1.472292727324   109.85551632   297.85757358
 H     45  44  43     1.093671227324   107.65658815   297.09231093
 H     61  49  46     1.090156797971   107.28665419   185.24337677
 H     61  49  46     1.102453105542   110.68364426   305.01385015
 O     44  43  41     1.467187298119   105.66730867    65.40939359
 H     44  43  41     1.095334881111   109.45258113   305.17927840
 H     65  44  43     0.992048460497   106.43010691   193.35772637

---------------------------
INTERNAL COORDINATES (A.U.)
---------------------------
 C      0   0   0     0.000000000000     0.00000000     0.00000000
 C      1   0   0     2.888051311195     0.00000000     0.00000000
 C      2   1   0     2.911759644158   108.47806314     0.00000000
 H      2   1   3     2.075078383179   109.92026088   239.14269034
 H      2   1   3     2.070931714665   110.63186326   118.28442784
 C      3   2   1     2.871936515020   109.58155590    56.48300886
 C      6   3   2     2.868912378156   109.02135644   303.28384692
 O      7   6   3     2.742104091847   109.95824354    61.60294548
 C      1   2   3     2.860233609188   115.68591910   183.76455064
 H      1   2   3     2.052301064252   110.74154576    58.35152922
 O      9   1   2     2.803885712122   105.06195406   185.68820692
 H      9   1   2     2.069082356472   109.33303590    67.06989558
 H      9   1   2     2.073633701408   110.32245897   305.84686737
 H     11   9   1     1.870045215798   109.43439737   178.10989715
 O      3   2   1     2.784376062754   112.00814577   171.45078655
 H      3   2   1     2.067922531536   111.03056480   297.87391761
 H     15   3   2     1.875114474338   107.36822437    70.55393864
 N      6   3   2     2.798413564092   108.78687203   183.05528397
 H      6   3   2     2.082295760462   106.76712857    59.12303405
 H     18   6   3     1.934344440732   108.37568337   304.62437877
 H     18   6   3     1.935188913215   110.16206724   183.40487936
 O      7   6   3     2.758899798867   106.45456334   302.20473859
 H      7   6   3     2.056912614695   112.73929406   181.43809208
 C     22   7   6     4.656754466698   128.85662307   159.37977501
 C     24  22   7     2.872891633041   101.02312220   182.44715848
 C     25  24  22     2.844984673218   109.34551719   271.97995915
 O     26  25  24     2.766941128147   108.38913974    65.80054412
 C     27  26  25     2.789443740497   110.09322956   293.49395429
 C     22   7   6     2.781021740887   110.20246038   195.28317477
 C     28  27  26     2.871691104232   101.56535008   175.25372354
 H     28  27  26     2.078216742936   111.04826597   292.75778129
 H     29  22   7     2.072947803987   109.81983446   350.88848952
 O     30  28  27     2.805011170211   105.96450148   174.16662291
 H     30  28  27     2.071968863397   108.24549870    54.29713444
 H     30  28  27     2.058459285437   108.35184844   293.37083042
 H     33  30  28     1.874043684231   107.48741956   190.35827833
 N     25  24  22     2.795330768429   107.66399220   154.54772901
 H     25  24  22     2.076077887956   107.29695662    29.22617989
 H     37  25  24     1.933337759560   107.80264666   306.43404921
 H     37  25  24     1.931126027268   108.96537293   185.66468688
 O     26  25  24     2.700935895584   106.65773702   184.26231670
 H     26  25  24     2.079864882441   109.80556546   306.07675124
 C     41  26  25     2.797776105537   115.20276152   165.72482276
 C     43  41  26     2.873822172576   114.01498999    53.94316926
 C     44  43  41     2.893037587541   110.62168862   184.61642065
 C     43  41  26     2.901174215785   109.23165656   288.62046957
 H     43  41  26     2.067385488524   103.50050919   170.79114371
 C     46  43  41     2.861004587963   111.15843933   300.20426343
 O     46  43  41     2.775414843301   110.08345383   181.65097755
 H     46  43  41     2.074356634237   109.99893777    59.76894709
 O     48  46  43     2.770370291440   105.87995761   174.13878000
 H     48  46  43     2.068308791576   107.19847588    53.95397776
 H     48  46  43     2.075328371534   108.12561191   295.40870459
 H     51  48  46     1.873975650179   107.37211029   178.41631270
 N     45  44  43     2.803722737781   113.27127011   177.42502751
 H     55  45  44     1.929887436176   111.66265367    69.40980081
 H     55  45  44     1.935484896474   111.23716079   305.46375926
 O     24  22   7     2.760056721933    87.67434510   285.64222930
 H     24  22   7     2.080237209829   140.67783100    46.47953587
 H     58  24  22     1.903291422692   111.79608938    89.25632028
 C     49  46  43     2.782230043607   109.85551632   297.85757358
 H     45  44  43     2.066739100191   107.65658815   297.09231093
 H     61  49  46     2.060097791197   107.28665419   185.24337677
 H     61  49  46     2.083334444966   110.68364426   305.01385015
 O     44  43  41     2.772582180613   105.66730867    65.40939359
 H     44  43  41     2.069882950230   109.45258113   305.17927840
 H     65  44  43     1.874699901917   106.43010691   193.35772637

------------------------------------------------------------------------------
                   ___                                                        
                  /   \      - P O W E R E D   B Y -                         
                 /     \                                                     
                 |  |  |   _    _      __       _____    __    __             
                 |  |  |  | |  | |    /  \     |  _  \  |  |  /  |          
                  \  \/   | |  | |   /    \    | | | |  |  | /  /          
                 / \  \   | |__| |  /  /\  \   | |_| |  |  |/  /          
                |  |  |   |  __  | /  /__\  \  |    /   |      \           
                |  |  |   | |  | | |   __   |  |    \   |  |\   \          
                \     /   | |  | | |  |  |  |  | |\  \  |  | \   \       
                 \___/    |_|  |_| |__|  |__|  |_| \__\ |__|  \__/        
                                                                              
                      - O R C A' S   B I G   F R I E N D -                    
                                      &                                       
                       - I N T E G R A L  F E E D E R -                       
                                                                              
 v1 FN, 2020, v2 2021                                                         
------------------------------------------------------------------------------


Reading SHARK input file opt.SHARKINP.tmp ... ok
----------------------
SHARK INTEGRAL PACKAGE
----------------------

Number of atoms                             ...     67
Number of basis functions                   ...    358
Number of shells                            ...    230
Maximum angular momentum                    ...      1
Integral batch strategy                     ... SHARK/LIBINT Hybrid
RI-J (if used) integral strategy            ... SPLIT-RIJ (Revised 2003 algorithm where possible)
Printlevel                                  ...      1
Contraction scheme used                     ... SEGMENTED contraction
Coulomb Range Separation                    ... NOT USED
Exchange Range Separation                   ... NOT USED
Finite Nucleus Model                        ... NOT USED
Auxiliary Coulomb fitting basis             ... NOT available
Auxiliary J/K fitting basis                 ... NOT available
Auxiliary Correlation fitting basis         ... NOT available
Auxiliary 'external' fitting basis          ... NOT available
Integral threshold                          ...     2.500000e-11
Primitive cut-off                           ...     2.500000e-12
Primitive pair pre-selection threshold      ...     2.500000e-12

Calculating pre-screening integrals         ... done (  0.1 sec) Dimension = 230
Organizing shell pair data                  ... done (  0.3 sec)
Shell pair information
Total number of shell pairs                 ...     26565
Shell pairs after pre-screening             ...     14573
Total number of primitive shell pairs       ...     77616
Primitive shell pairs kept                  ...     28606
          la=0 lb=0:   7126 shell pairs
          la=1 lb=0:   6107 shell pairs
          la=1 lb=1:   1340 shell pairs

Calculating one electron integrals          ... done (  0.3 sec)
Calculating Nuclear repulsion               ... done (  0.0 sec) ENN=   3886.858049482384 Eh

SHARK setup successfully completed in   1.3 seconds

Maximum memory used throughout the entire GTOINT-calculation: 33.0 MB

Diagonalization of the overlap matrix:
Smallest eigenvalue                        ... 6.164e-03
Time for diagonalization                   ...    0.054 sec
Threshold for overlap eigenvalues          ... 1.000e-08
Number of eigenvalues below threshold      ... 0
Time for construction of square roots      ...    0.022 sec
Total time needed                          ...    0.077 sec

--------------
SCF ITERATIONS
--------------
ITER       Energy         Delta-E        Max-DP      RMS-DP      [F,P]     Damp
               ***  Starting incremental Fock matrix formation  ***
  0  -1679.3489178409   0.000000000000 0.00346298  0.00011617  0.0339414 0.7000
                      *** Initiating the SOSCF procedure ***
                      *** Re-Reading the Fockian *** 
                      *** Removing any level shift *** 
ITER      Energy       Delta-E        Grad      Rot      Max-DP    RMS-DP
  1  -1679.35284259  -0.0039247481  0.001105  0.001105  0.010421  0.000375
               *** Restarting incremental Fock matrix formation ***
  2  -1679.36544932  -0.0126067309  0.001344  0.001726  0.004743  0.000166
  3  -1679.36680748  -0.0013581633  0.000676  0.001526  0.003908  0.000101
  4  -1679.36701688  -0.0002093979  0.000215  0.000362  0.000768  0.000014
  5  -1679.36702237  -0.0000054872  0.000099  0.000231  0.000442  0.000008
  6  -1679.36702400  -0.0000016367  0.000019  0.000044  0.000090  0.000002
  7  -1679.36702406  -0.0000000600  0.000004  0.000011  0.000025  0.000001
                  ***Gradient check signals convergence***
              ***Rediagonalizing the Fockian in SOSCF/NRSCF***

               *****************************************************
               *                     SUCCESS                       *
               *           SCF CONVERGED AFTER   8 CYCLES          *
               *****************************************************

Total Energy       :        -1679.36702407 Eh          -45697.89996 eV
  Last Energy change         ...   -8.0890e-09  Tolerance :   1.0000e-08
  Last MAX-Density change    ...    3.9636e-06  Tolerance :   1.0000e-07
             **** THE GBW FILE WAS UPDATED (opt.gbw) ****
             **** DENSITY opt.scfp WAS UPDATED ****
             **** ENERGY FILE WAS UPDATED (opt.en.tmp) ****
             **** THE GBW FILE WAS UPDATED (opt.gbw) ****
             **** DENSITY opt.scfp WAS UPDATED ****
Total SCF time: 0 days 0 hours 8 min 3 sec 

Maximum memory used throughout the entire SCF-calculation: 258.8 MB

------------------------------------------------------------------------------
                                ORCA  MP2 
------------------------------------------------------------------------------

MP2 will be done in the AO integral direct mode
The Q1-step will be done using symmetric double matrices
Dimension of the basis                    ...  358
Memory devoted for MP2                    ... 1000 MB   
Memory needed for all in one shot         ... 22116 MB
Number of MOs that can be treated together...    4      
MP2 density construction                  ... relaxed
The MP2 gradient is requested => amplitudes will be stored on disk
Total number of MOs              ...  126
Number of MOs treated per batch  ...    4 
Number of batches necessary      ...   32 
OPERATORS   0/  0 PASS   0
OPERATORS   0/  0 PASS   1
OPERATORS   0/  0 PASS   2
OPERATORS   0/  0 PASS   3
OPERATORS   0/  0 PASS   4
OPERATORS   0/  0 PASS   5
OPERATORS   0/  0 PASS   6
OPERATORS   0/  0 PASS   7
OPERATORS   0/  0 PASS   8
OPERATORS   0/  0 PASS   9
OPERATORS   0/  0 PASS  10
OPERATORS   0/  0 PASS  11
OPERATORS   0/  0 PASS  12
OPERATORS   0/  0 PASS  13
OPERATORS   0/  0 PASS  14
OPERATORS   0/  0 PASS  15
OPERATORS   0/  0 PASS  16
OPERATORS   0/  0 PASS  17
OPERATORS   0/  0 PASS  18
OPERATORS   0/  0 PASS  19
