
                                 *****************
                                 * O   R   C   A *
                                 *****************

           --- An Ab Initio, DFT and Semiempirical electronic structure package ---

                  #######################################################
                  #                        -***-                        #
                  #          Department of theory and spectroscopy      #
                  #               Directorship: Frank Neese             #
                  #        Max Planck Institute fuer Kohlenforschung    #
                  #                Kaiser Wilhelm Platz 1               #
                  #                 D-45470 Muelheim/Ruhr               #
                  #                      Germany                        #
                  #                                                     #
                  #                  All rights reserved                #
                  #                        -***-                        #
                  #######################################################


                         Program Version 4.2.1 -  RELEASE  -


 With contributions from (in alphabetic order):
   Daniel Aravena         : Magnetic Suceptibility
   Michael Atanasov       : Ab Initio Ligand Field Theory (pilot matlab implementation)
   Alexander A. Auer      : GIAO ZORA, VPT2
   Ute Becker             : Parallelization
   Giovanni Bistoni       : ED, misc. LED, open-shell LED, HFLD
   Martin Brehm           : Molecular dynamics
   Dmytro Bykov           : SCF Hessian
   Vijay G. Chilkuri      : MRCI spin determinant printing, contributions to CSF-ICE
   Dipayan Datta          : RHF DLPNO-CCSD density
   Achintya Kumar Dutta   : EOM-CC, STEOM-CC
   Dmitry Ganyushin       : Spin-Orbit,Spin-Spin,Magnetic field MRCI
   Miquel Garcia          : C-PCM Hessian, Gaussian charge scheme
   Yang Guo               : DLPNO-NEVPT2, CIM, IAO-localization
   Andreas Hansen         : Spin unrestricted coupled pair/coupled cluster methods
   Benjamin Helmich-Paris : CASSCF linear response (MC-RPA)
   Lee Huntington         : MR-EOM, pCC
   Robert Izsak           : Overlap fitted RIJCOSX, COSX-SCS-MP3, EOM
   Christian Kollmar      : KDIIS, OOCD, Brueckner-CCSD(T), CCSD density
   Simone Kossmann        : Meta GGA functionals, TD-DFT gradient, OOMP2, MP2 Hessian
   Martin Krupicka        : AUTO-CI
   Lucas Lang             : DCDCAS
   Dagmar Lenk            : GEPOL surface, SMD
   Dimitrios Liakos       : Extrapolation schemes; Compound Job, initial MDCI parallelization
   Dimitrios Manganas     : Further ROCIS development; embedding schemes
   Dimitrios Pantazis     : SARC Basis sets
   Taras Petrenko         : DFT Hessian,TD-DFT gradient, ASA, ECA, R-Raman, ABS, FL, XAS/XES, NRVS
   Peter Pinski           : DLPNO-MP2, DLPNO-MP2 Gradient
   Christoph Reimann      : Effective Core Potentials
   Marius Retegan         : Local ZFS, SOC
   Christoph Riplinger    : Optimizer, TS searches, QM/MM, DLPNO-CCSD(T), (RO)-DLPNO pert. Triples
   Tobias Risthaus        : Range-separated hybrids, TD-DFT gradient, RPA, STAB
   Michael Roemelt        : Original ROCIS implementation
   Masaaki Saitow         : Open-shell DLPNO-CCSD energy and density
   Barbara Sandhoefer     : DKH picture change effects
   Avijit Sen             : IP-ROCIS
   Kantharuban Sivalingam : CASSCF convergence, NEVPT2, FIC-MRCI
   Bernardo de Souza      : ESD, SOC TD-DFT
   Georgi Stoychev        : AutoAux, RI-MP2 NMR
   Willem Van den Heuvel  : Paramagnetic NMR
   Boris Wezisla          : Elementary symmetry handling
   Frank Wennmohs         : Technical directorship


 We gratefully acknowledge several colleagues who have allowed us to
 interface, adapt or use parts of their codes:
   Stefan Grimme, W. Hujo, H. Kruse,             : VdW corrections, initial TS optimization,
                  C. Bannwarth                     DFT functionals, gCP, sTDA/sTD-DF
   Ed Valeev, F. Pavosevic, A. Kumar             : LibInt (2-el integral package), F12 methods
   Garnet Chan, S. Sharma, J. Yang, R. Olivares  : DMRG
   Ulf Ekstrom                                   : XCFun DFT Library
   Mihaly Kallay                                 : mrcc  (arbitrary order and MRCC methods)
   Andreas Klamt, Michael Diedenhofen            : otool_cosmo (COSMO solvation model)
   Jiri Pittner, Ondrej Demel                    : Mk-CCSD
   Frank Weinhold                                : gennbo (NPA and NBO analysis)
   Christopher J. Cramer and Donald G. Truhlar   : smd solvation model
   Lars Goerigk                                  : TD-DFT with DH, B97 family of functionals
   V. Asgeirsson, H. Jonsson                     : NEB implementation
   FAccTs GmbH                                   : IRC, NEB, NEB-TS, Multilevel, MM, QM/MM, CI optimization
   S Lehtola, MJT Oliveira, MAL Marques          : LibXC Library


 Your calculation uses the libint2 library for the computation of 2-el integrals
 For citations please refer to: http://libint.valeyev.net

 Your ORCA version has been built with support for libXC version: 4.2.3
 For citations please refer to: https://tddft.org/programs/libxc/

 This ORCA versions uses:
   CBLAS   interface :  Fast vector & matrix operations
   LAPACKE interface :  Fast linear algebra routines


Your calculation utilizes the atom-pairwise dispersion correction
based on tight binding partial charges (D4)
Cite in your paper:
E.Caldeweyher, C.Bannwarth, S.Grimme, J.Chem.Phys., (2017), 147, 034112.
E.Caldeweyher, S.Ehlert, A.Hansen, H.Neugebauer, S.Grimme, J.Chem.Phys., (2018), in progress.
   

----- Orbital basis set information -----
Your calculation utilizes the basis: def2-SVP
   F. Weigend and R. Ahlrichs, Phys. Chem. Chem. Phys. 7, 3297 (2005).

================================================================================
                                        WARNINGS
                       Please study these warnings very carefully!
================================================================================


WARNING: Geometry Optimization
  ===> : Switching off AutoStart
         For restart on a previous wavefunction, please use MOREAD

INFO   : the flag for use of LIBINT has been found!

================================================================================
                                       INPUT FILE
================================================================================
NAME = meta_ts_optfreq.inp
|  1> !B3LYP DEF2-SVP D4 OPT FREQ
|  2> 
|  3> %geom
|  4> maxIter 150
|  5> end
|  6> 
|  7> * xyz 1 1
|  8>    C       -4.06800        2.51005       -0.52930
|  9>    C       -4.96526        1.90565       -1.42132
| 10>    C       -4.74172        0.58484       -1.89837
| 11>    C       -3.55432       -0.08351       -1.49964
| 12>    C       -2.66869        0.52094       -0.60637
| 13>    C       -2.92804        1.80432       -0.12222
| 14>    C       -4.31990        3.89173        0.00026
| 15>    H       -3.32882       -1.08297       -1.87121
| 16>    H       -5.85377        2.45245       -1.73936
| 17>    H       -4.51981        3.85059        1.07567
| 18>    H       -5.18155        4.35823       -0.48837
| 19>    H       -3.44965        4.53107       -0.18041
| 20>    H       -2.22462        2.26039        0.57269
| 21>    H       -1.77015       -0.00542       -0.29208
| 22>    N       -5.13551        0.35627       -3.35304
| 23>    O       -4.73714       -0.68551       -3.89289
| 24>    O       -5.87875        1.19289       -3.88452
| 25>    H       -5.59438       -0.03651       -1.50894
| 26> **                         ****END OF INPUT****
================================================================================

                       *****************************
                       * Geometry Optimization Run *
                       *****************************

Geometry optimization settings:
Update method            Update   .... BFGS
Choice of coordinates    CoordSys .... Z-matrix Internals
Initial Hessian          InHess   .... Almoef's Model

Convergence Tolerances:
Energy Change            TolE     ....  5.0000e-06 Eh
Max. Gradient            TolMAXG  ....  3.0000e-04 Eh/bohr
RMS Gradient             TolRMSG  ....  1.0000e-04 Eh/bohr
Max. Displacement        TolMAXD  ....  4.0000e-03 bohr
RMS Displacement         TolRMSD  ....  2.0000e-03 bohr
Strict Convergence                ....  False
------------------------------------------------------------------------------
                        ORCA OPTIMIZATION COORDINATE SETUP
------------------------------------------------------------------------------

The optimization will be done in new redundant internal coordinates
Making redundant internal coordinates   ...  (new redundants) done
Evaluating the initial hessian          ...  (Almloef) done
Evaluating the coordinates              ...  done
Calculating the B-matrix                .... done
Calculating the G-matrix                .... done
Diagonalizing the G-matrix              .... done
The first mode is                       ....   40
The number of degrees of freedom        ....   48

    -----------------------------------------------------------------
                    Redundant Internal Coordinates


    -----------------------------------------------------------------
         Definition                    Initial Value    Approx d2E/dq
    -----------------------------------------------------------------
      1. B(C   1,C   0)                  1.4022         0.597483   
      2. B(C   2,C   1)                  1.4220         0.555499   
      3. B(C   3,C   2)                  1.4197         0.560179   
      4. B(C   4,C   3)                  1.3956         0.612129   
      5. B(C   5,C   4)                  1.3960         0.611246   
      6. B(C   5,C   0)                  1.4012         0.599677   
      7. B(C   6,C   0)                  1.5010         0.415609   
      8. B(H   7,C   3)                  1.0899         0.360261   
      9. B(H   8,C   1)                  1.0907         0.359197   
     10. B(H   9,C   6)                  1.0946         0.354058   
     11. B(H  10,C   6)                  1.0949         0.353666   
     12. B(H  11,C   6)                  1.0949         0.353720   
     13. B(H  12,C   5)                  1.0889         0.361560   
     14. B(H  13,C   4)                  1.0878         0.363084   
     15. B(N  14,C   2)                  1.5243         0.341717   
     16. B(O  15,N  14)                  1.2391         0.872402   
     17. B(O  16,N  14)                  1.2389         0.873220   
     18. B(H  17,C   2)                  1.1246         0.317100   
     19. A(C   5,C   0,C   6)          119.8464         0.401831   
     20. A(C   1,C   0,C   5)          119.2312         0.428617   
     21. A(C   1,C   0,C   6)          120.9202         0.401571   
     22. A(C   0,C   1,C   2)          120.8773         0.422786   
     23. A(C   2,C   1,H   8)          119.7290         0.346282   
     24. A(C   0,C   1,H   8)          119.3866         0.350560   
     25. A(C   3,C   2,N  14)          114.4254         0.381268   
     26. A(C   3,C   2,H  17)          106.0672         0.339600   
     27. A(C   1,C   2,H  17)          106.1306         0.339124   
     28. A(N  14,C   2,H  17)           92.9661         0.311232   
     29. A(C   1,C   2,C   3)          118.3281         0.417951   
     30. A(C   1,C   2,N  14)          114.7609         0.380713   
     31. A(C   2,C   3,C   4)          120.4392         0.425258   
     32. A(C   4,C   3,H   7)          118.9538         0.352173   
     33. A(C   2,C   3,H   7)          120.5975         0.346943   
     34. A(C   5,C   4,H  13)          119.8763         0.352553   
     35. A(C   3,C   4,H  13)          119.9713         0.352639   
     36. A(C   3,C   4,C   5)          120.1508         0.431964   
     37. A(C   0,C   5,C   4)          120.8932         0.430372   
     38. A(C   4,C   5,H  12)          119.1025         0.352302   
     39. A(C   0,C   5,H  12)          120.0011         0.351166   
     40. A(H   9,C   6,H  10)          108.1037         0.289249   
     41. A(C   0,C   6,H  10)          111.5197         0.329085   
     42. A(C   0,C   6,H   9)          110.0400         0.329145   
     43. A(H  10,C   6,H  11)          107.6423         0.289206   
     44. A(H   9,C   6,H  11)          109.2222         0.289256   
     45. A(C   0,C   6,H  11)          110.2379         0.329093   
     46. A(O  15,N  14,O  16)          125.0103         0.478619   
     47. A(C   2,N  14,O  16)          117.5900         0.406811   
     48. A(C   2,N  14,O  15)          117.3092         0.406744   
     49. D(H   8,C   1,C   0,C   5)    179.9603         0.024599   
     50. D(C   2,C   1,C   0,C   6)   -178.5342         0.024599   
     51. D(C   2,C   1,C   0,C   5)      0.9356         0.024599   
     52. D(H   8,C   1,C   0,C   6)      0.4905         0.024599   
     53. D(C   3,C   2,C   1,H   8)    178.0072         0.022927   
     54. D(N  14,C   2,C   1,C   0)   -142.9647         0.022927   
     55. D(H  17,C   2,C   1,C   0)    115.9240         0.022927   
     56. D(H  17,C   2,C   1,H   8)    -63.0973         0.022927   
     57. D(N  14,C   2,C   1,H   8)     38.0139         0.022927   
     58. D(C   3,C   2,C   1,C   0)     -2.9714         0.022927   
     59. D(H   7,C   3,C   2,C   1)   -177.8460         0.023332   
     60. D(C   4,C   3,C   2,N  14)    143.4044         0.023332   
     61. D(C   4,C   3,C   2,C   1)      3.2826         0.023332   
     62. D(H   7,C   3,C   2,N  14)    -37.7241         0.023332   
     63. D(C   4,C   3,C   2,H  17)   -115.6460         0.023332   
     64. D(H   7,C   3,C   2,H  17)     63.2254         0.023332   
     65. D(H  13,C   4,C   3,H   7)      0.0058         0.025889   
     66. D(H  13,C   4,C   3,C   2)    178.8956         0.025889   
     67. D(C   5,C   4,C   3,H   7)    179.5361         0.025889   
     68. D(C   5,C   4,C   3,C   2)     -1.5741         0.025889   
     69. D(H  12,C   5,C   4,H  13)     -0.3624         0.025810   
     70. D(C   0,C   5,C   4,H  13)    178.9834         0.025810   
     71. D(C   0,C   5,C   4,C   3)     -0.5473         0.025810   
     72. D(H  12,C   5,C   0,C   6)     -0.3206         0.024789   
     73. D(H  12,C   5,C   0,C   1)   -179.7962         0.024789   
     74. D(H  12,C   5,C   4,C   3)   -179.8931         0.025810   
     75. D(C   4,C   5,C   0,C   6)   -179.6606         0.024789   
     76. D(C   4,C   5,C   0,C   1)      0.8638         0.024789   
     77. D(H  10,C   6,C   0,C   1)     -6.8848         0.012781   
     78. D(H   9,C   6,C   0,C   5)    -66.3925         0.012781   
     79. D(H   9,C   6,C   0,C   1)    113.0740         0.012781   
     80. D(H  11,C   6,C   0,C   5)     54.1375         0.012781   
     81. D(H  11,C   6,C   0,C   1)   -126.3959         0.012781   
     82. D(H  10,C   6,C   0,C   5)    173.6487         0.012781   
     83. D(O  16,N  14,C   2,H  17)     92.7743         0.010113   
     84. D(O  16,N  14,C   2,C   3)   -158.0838         0.010113   
     85. D(O  16,N  14,C   2,C   1)    -16.5106         0.010113   
     86. D(O  15,N  14,C   2,H  17)    -83.9428         0.010113   
     87. D(O  15,N  14,C   2,C   3)     25.1991         0.010113   
     88. D(O  15,N  14,C   2,C   1)    166.7723         0.010113   
    -----------------------------------------------------------------

Number of atoms                         .... 18
Number of degrees of freedom            .... 88

         *************************************************************
         *                GEOMETRY OPTIMIZATION CYCLE   1            *
         *************************************************************
---------------------------------
CARTESIAN COORDINATES (ANGSTROEM)
---------------------------------
  C     -4.068000    2.510050   -0.529300
  C     -4.965260    1.905650   -1.421320
  C     -4.741720    0.584840   -1.898370
  C     -3.554320   -0.083510   -1.499640
  C     -2.668690    0.520940   -0.606370
  C     -2.928040    1.804320   -0.122220
  C     -4.319900    3.891730    0.000260
  H     -3.328820   -1.082970   -1.871210
  H     -5.853770    2.452450   -1.739360
  H     -4.519810    3.850590    1.075670
  H     -5.181550    4.358230   -0.488370
  H     -3.449650    4.531070   -0.180410
  H     -2.224620    2.260390    0.572690
  H     -1.770150   -0.005420   -0.292080
  N     -5.135510    0.356270   -3.353040
  O     -4.737140   -0.685510   -3.892890
  O     -5.878750    1.192890   -3.884520
  H     -5.594380   -0.036510   -1.508940

----------------------------
CARTESIAN COORDINATES (A.U.)
----------------------------
  NO LB      ZA    FRAG     MASS         X           Y           Z
   0 C     6.0000    0    12.011   -7.687406    4.743307   -1.000232
   1 C     6.0000    0    12.011   -9.382982    3.601157   -2.685906
   2 C     6.0000    0    12.011   -8.960552    1.105187   -3.587399
   3 C     6.0000    0    12.011   -6.716691   -0.157811   -2.833909
   4 C     6.0000    0    12.011   -5.043093    0.984434   -1.145873
   5 C     6.0000    0    12.011   -5.533194    3.409671   -0.230962
   6 C     6.0000    0    12.011   -8.163428    7.354304    0.000491
   7 H     1.0000    0     1.008   -6.290558   -2.046517   -3.536074
   8 H     1.0000    0     1.008  -11.062022    4.634459   -3.286914
   9 H     1.0000    0     1.008   -8.541203    7.276561    2.032722
  10 H     1.0000    0     1.008   -9.791710    8.235861   -0.922886
  11 H     1.0000    0     1.008   -6.518894    8.562481   -0.340925
  12 H     1.0000    0     1.008   -4.203923    4.271518    1.082227
  13 H     1.0000    0     1.008   -3.345099   -0.010242   -0.551951
  14 N     7.0000    0    14.007   -9.704707    0.673253   -6.336327
  15 O     8.0000    0    15.999   -8.951897   -1.295426   -7.356496
  16 O     8.0000    0    15.999  -11.109228    2.254235   -7.340679
  17 H     1.0000    0     1.008  -10.571846   -0.068994   -2.851483

--------------------------------
INTERNAL COORDINATES (ANGSTROEM)
--------------------------------
 C      0   0   0     0.000000000000     0.00000000     0.00000000
 C      1   0   0     1.402167803082     0.00000000     0.00000000
 C      2   1   0     1.422000664627   120.87725530     0.00000000
 C      3   2   1     1.419716906781   118.32814774   357.02858545
 C      4   3   2     1.395575720733   120.43924839     3.28255046
 C      5   4   3     1.395968434242   120.15081894   358.42592312
 C      1   2   3     1.500975358225   120.92020805   181.46582984
 H      4   3   2     1.089878344817   120.59752109   182.15400601
 H      2   1   3     1.090683135333   119.38655358   179.02465880
 H      7   1   2     1.094606402229   110.04000443   113.07403296
 H      7   1   2     1.094907415903   111.51969936   353.11522226
 H      7   1   2     1.094866360338   110.23789366   233.60409055
 H      6   5   4     1.088898273210   119.10246551   180.10691524
 H      5   4   3     1.087753274093   119.97126075   178.89563916
 N      3   2   1     1.524263631364   114.76087035   217.03527740
 O     15   3   2     1.239129633170   117.30922063   166.77233695
 O     15   3   2     1.238874373131   117.58998226   343.48940092
 H      3   2   1     1.124615766829   106.13062849   115.92400724

---------------------------
INTERNAL COORDINATES (A.U.)
---------------------------
 C      0   0   0     0.000000000000     0.00000000     0.00000000
 C      1   0   0     2.649713141627     0.00000000     0.00000000
 C      2   1   0     2.687191818399   120.87725530     0.00000000
 C      3   2   1     2.682876141514   118.32814774   357.02858545
 C      4   3   2     2.637255911336   120.43924839     3.28255046
 C      5   4   3     2.637998032316   120.15081894   358.42592312
 C      1   2   3     2.836432360810   120.92020805   181.46582984
 H      4   3   2     2.059571590995   120.59752109   182.15400601
 H      2   1   3     2.061092424666   119.38655358   179.02465880
 H      7   1   2     2.068506324649   110.04000443   113.07403296
 H      7   1   2     2.069075158057   111.51969936   353.11522226
 H      7   1   2     2.068997574282   110.23789366   233.60409055
 H      6   5   4     2.057719524067   119.10246551   180.10691524
 H      5   4   3     2.055555789312   119.97126075   178.89563916
 N      3   2   1     2.880440819175   114.76087035   217.03527740
 O     15   3   2     2.341615651118   117.30922063   166.77233695
 O     15   3   2     2.341133279550   117.58998226   343.48940092
 H      3   2   1     2.125215805196   106.13062849   115.92400724

---------------------
BASIS SET INFORMATION
---------------------
There are 4 groups of distinct atoms

 Group   1 Type C   : 7s4p1d contracted to 3s2p1d pattern {511/31/1}
 Group   2 Type H   : 4s1p contracted to 2s1p pattern {31/1}
 Group   3 Type N   : 7s4p1d contracted to 3s2p1d pattern {511/31/1}
 Group   4 Type O   : 7s4p1d contracted to 3s2p1d pattern {511/31/1}

Atom   0C    basis set group =>   1
Atom   1C    basis set group =>   1
Atom   2C    basis set group =>   1
Atom   3C    basis set group =>   1
Atom   4C    basis set group =>   1
Atom   5C    basis set group =>   1
Atom   6C    basis set group =>   1
Atom   7H    basis set group =>   2
Atom   8H    basis set group =>   2
Atom   9H    basis set group =>   2
Atom  10H    basis set group =>   2
Atom  11H    basis set group =>   2
Atom  12H    basis set group =>   2
Atom  13H    basis set group =>   2
Atom  14N    basis set group =>   3
Atom  15O    basis set group =>   4
Atom  16O    basis set group =>   4
Atom  17H    basis set group =>   2
------------------------------------------------------------------------------
                           ORCA GTO INTEGRAL CALCULATION
------------------------------------------------------------------------------

                         BASIS SET STATISTICS AND STARTUP INFO

 # of primitive gaussian shells          ...  160
 # of primitive gaussian functions       ...  296
 # of contracted shells                  ...   84
 # of contracted basis functions         ...  180
 Highest angular momentum                ...    2
 Maximum contraction depth               ...    5
 Integral package used                   ... LIBINT
 Integral threshhold            Thresh   ...  2.500e-11
 Primitive cut-off              TCut     ...  2.500e-12


------------------------------ INTEGRAL EVALUATION ----------------------------


 * One electron integrals 
 Pre-screening matrix                    ... done
 Shell pair data                         ... done (   0.002 sec)

Timings:
 Total evaluation time               ...     0.004 sec (   0.000 min)
 One electron matrix time            ...     0.056 sec (   0.001 min) =1400.0%
 Schwartz matrix evaluation time     ...     0.228 sec (   0.004 min) =5700.0%

-------------------------------------------------------------------------------
                                 ORCA SCF
-------------------------------------------------------------------------------

------------
SCF SETTINGS
------------
Hamiltonian:
 Density Functional     Method          .... DFT(GTOs)
 Exchange Functional    Exchange        .... B88
   X-Alpha parameter    XAlpha          ....  0.666667
   Becke's b parameter  XBeta           ....  0.004200
 Correlation Functional Correlation     .... LYP
 LDA part of GGA corr.  LDAOpt          .... VWN-5
 Gradients option       PostSCFGGA      .... off
 Hybrid DFT is turned on
   Fraction HF Exchange ScalHFX         ....  0.200000
   Scaling of DF-GGA-X  ScalDFX         ....  0.720000
   Scaling of DF-GGA-C  ScalDFC         ....  0.810000
   Scaling of DF-LDA-C  ScalLDAC        ....  1.000000
   Perturbative correction              ....  0.000000
   Density functional embedding theory  .... OFF
   NL short-range parameter             ....  4.800000


General Settings:
 Integral files         IntName         .... meta_ts_optfreq
 Hartree-Fock type      HFTyp           .... RHF
 Total Charge           Charge          ....    1
 Multiplicity           Mult            ....    1
 Number of Electrons    NEL             ....   72
 Basis Dimension        Dim             ....  180
 Nuclear Repulsion      ENuc            ....    507.9011868564 Eh

Convergence Acceleration:
 DIIS                   CNVDIIS         .... on
   Start iteration      DIISMaxIt       ....    12
   Startup error        DIISStart       ....  0.200000
   # of expansion vecs  DIISMaxEq       ....     5
   Bias factor          DIISBfac        ....   1.050
   Max. coefficient     DIISMaxC        ....  10.000
 Newton-Raphson         CNVNR           .... off
 SOSCF                  CNVSOSCF        .... on
   Start iteration      SOSCFMaxIt      ....   150
   Startup grad/error   SOSCFStart      ....  0.003300
 Level Shifting         CNVShift        .... on
   Level shift para.    LevelShift      ....    0.2500
   Turn off err/grad.   ShiftErr        ....    0.0010
 Zerner damping         CNVZerner       .... off
 Static damping         CNVDamp         .... on
   Fraction old density DampFac         ....    0.7000
   Max. Damping (<1)    DampMax         ....    0.9800
   Min. Damping (>=0)   DampMin         ....    0.0000
   Turn off err/grad.   DampErr         ....    0.1000
 Fernandez-Rico         CNVRico         .... off

SCF Procedure:
 Maximum # iterations   MaxIter         ....   125
 SCF integral mode      SCFMode         .... Direct
   Integral package                     .... LIBINT
 Reset frequency        DirectResetFreq ....    20
 Integral Threshold     Thresh          ....  2.500e-11 Eh
 Primitive CutOff       TCut            ....  2.500e-12 Eh

Convergence Tolerance:
 Convergence Check Mode ConvCheckMode   .... Total+1el-Energy
 Convergence forced     ConvForced      .... 0
 Energy Change          TolE            ....  1.000e-08 Eh
 1-El. energy change                    ....  1.000e-05 Eh
 Orbital Gradient       TolG            ....  1.000e-05
 Orbital Rotation angle TolX            ....  1.000e-05
 DIIS Error             TolErr          ....  5.000e-07


Diagonalization of the overlap matrix:
Smallest eigenvalue                        ... 2.747e-04
Time for diagonalization                   ...    0.014 sec
Threshold for overlap eigenvalues          ... 1.000e-08
Number of eigenvalues below threshold      ... 0
Time for construction of square roots      ...    0.013 sec
Total time needed                          ...    0.028 sec

-------------------
DFT GRID GENERATION
-------------------

General Integration Accuracy     IntAcc      ...  4.340
Radial Grid Type                 RadialGrid  ... Gauss-Chebyshev
Angular Grid (max. acc.)         AngularGrid ... Lebedev-110
Angular grid pruning method      GridPruning ... 3 (G Style)
Weight generation scheme         WeightScheme... Becke
Basis function cutoff            BFCut       ...    1.0000e-11
Integration weight cutoff        WCut        ...    1.0000e-14
Grids for H and He will be reduced by one unit

# of grid points (after initial pruning)     ...  23078 (   0.0 sec)
# of grid points (after weights+screening)   ...  21357 (   0.3 sec)
nearest neighbour list constructed           ...    0.0 sec
Grid point re-assignment to atoms done       ...    0.0 sec
Grid point division into batches done        ...    0.0 sec
Reduced shell lists constructed in    1.1 sec

Total number of grid points                  ...    21357
Total number of batches                      ...      343
Average number of points per batch           ...       62
Average number of grid points per atom       ...     1187
Average number of shells per batch           ...    56.96 (67.81%)
Average number of basis functions per batch  ...   119.74 (66.52%)
Average number of large shells per batch     ...    43.89 (77.05%)
Average number of large basis fcns per batch ...    91.01 (76.01%)
Maximum spatial batch extension              ...  20.71, 21.98, 21.27 au
Average spatial batch extension              ...   3.66,  3.74,  3.78 au

Time for grid setup =    1.386 sec

------------------------------
INITIAL GUESS: MODEL POTENTIAL
------------------------------
Loading Hartree-Fock densities                     ... done
Calculating cut-offs                               ... done
Setting up the integral package                    ... done
Initializing the effective Hamiltonian             ... done
Starting the Coulomb interaction                   ... done (   0.7 sec)
Reading the grid                                   ... done
Mapping shells                                     ... done
Starting the XC term evaluation                    ... done (   1.2 sec)
  promolecular density results
     # of electrons  =     72.983643296
     EX              =    -61.317702449
     EC              =     -2.493572034
     EX+EC           =    -63.811274483
Transforming the Hamiltonian                       ... done (   0.0 sec)
Diagonalizing the Hamiltonian                      ... done (   0.0 sec)
Back transforming the eigenvectors                 ... done (   0.0 sec)
Now organizing SCF variables                       ... done
                      ------------------
                      INITIAL GUESS DONE (   3.8 sec)
                      ------------------
--------------
SCF ITERATIONS
--------------
ITER       Energy         Delta-E        Max-DP      RMS-DP      [F,P]     Damp
               ***  Starting incremental Fock matrix formation  ***
  0   -475.4624428646   0.000000000000 0.10564668  0.00296103  0.2242719 0.7000
  1   -475.5861171499  -0.123674285395 0.04794822  0.00176865  0.0803368 0.7000
                               ***Turning on DIIS***
  2   -475.6236595953  -0.037542445341 0.07002518  0.00269633  0.0303004 0.0000
  3   -475.7017963212  -0.078136725876 0.04643471  0.00114923  0.0437307 0.0000
  4   -475.7102569582  -0.008460637057 0.01974199  0.00033903  0.0209932 0.0000
                      *** Initiating the SOSCF procedure ***
                           *** Shutting down DIIS ***
                      *** Re-Reading the Fockian *** 
                      *** Removing any level shift *** 
ITER      Energy       Delta-E        Grad      Rot      Max-DP    RMS-DP
  5   -475.71202997  -0.0017730129  0.000668  0.000668  0.004530  0.000112
               *** Restarting incremental Fock matrix formation ***
  6   -475.71207386  -0.0000438880  0.000590  0.001931  0.002618  0.000073
  7   -475.71205838   0.0000154777  0.001171  0.001246  0.001707  0.000044
  8   -475.71208505  -0.0000266648  0.000055  0.000200  0.000374  0.000011
  9   -475.71208497   0.0000000765  0.000077  0.000154  0.000188  0.000005
 10   -475.71208523  -0.0000002623  0.000042  0.000146  0.000152  0.000004
 11   -475.71208516   0.0000000716  0.000112  0.000114  0.000110  0.000003
 12   -475.71208524  -0.0000000837  0.000010  0.000077  0.000047  0.000002
 13   -475.71208523   0.0000000093  0.000022  0.000057  0.000034  0.000001
                  ***Gradient check signals convergence***
              ***Rediagonalizing the Fockian in SOSCF/NRSCF***

               *****************************************************
               *                     SUCCESS                       *
               *           SCF CONVERGED AFTER  14 CYCLES          *
               *****************************************************

Setting up the final grid:

General Integration Accuracy     IntAcc      ...  4.670
Radial Grid Type                 RadialGrid  ... Gauss-Chebyshev
Angular Grid (max. acc.)         AngularGrid ... Lebedev-302
Angular grid pruning method      GridPruning ... 3 (G Style)
Weight generation scheme         WeightScheme... Becke
Basis function cutoff            BFCut       ...    1.0000e-11
Integration weight cutoff        WCut        ...    1.0000e-14
Grids for H and He will be reduced by one unit

# of grid points (after initial pruning)     ...  89272 (   0.1 sec)
# of grid points (after weights+screening)   ...  81284 (   1.0 sec)
nearest neighbour list constructed           ...    0.0 sec
Grid point re-assignment to atoms done       ...    0.0 sec
Grid point division into batches done        ...    0.8 sec
Reduced shell lists constructed in    3.1 sec

Total number of grid points                  ...    81284
Total number of batches                      ...     1279
Average number of points per batch           ...       63
Average number of grid points per atom       ...     4516
Average number of shells per batch           ...    52.10 (62.02%)
Average number of basis functions per batch  ...   108.67 (60.37%)
Average number of large shells per batch     ...    39.47 (75.76%)
Average number of large basis fcns per batch ...    80.87 (74.42%)
Maximum spatial batch extension              ...  19.88, 20.09, 20.15 au
Average spatial batch extension              ...   2.48,  2.47,  2.46 au

Final grid set up in    4.2 sec
Final integration                            ... done (   3.3 sec)
Change in XC energy                          ...    -0.000319650
Integrated number of electrons               ...    71.999911628
Previous integrated no of electrons          ...    71.996746039

----------------
TOTAL SCF ENERGY
----------------

Total Energy       :         -475.71240490 Eh          -12944.79264 eV

Components:
Nuclear Repulsion  :          507.90118686 Eh           13820.69392 eV
Electronic Energy  :         -983.61359175 Eh          -26765.48656 eV
One Electron Energy:        -1638.53188340 Eh          -44586.71929 eV
Two Electron Energy:          654.91829165 Eh           17821.23273 eV

Virial components:
Potential Energy   :         -947.38302336 Eh          -25779.60268 eV
Kinetic Energy     :          471.67061846 Eh           12834.81004 eV
Virial Ratio       :            2.00856909


DFT components:
N(Alpha)           :       35.999955813850 electrons
N(Beta)            :       35.999955813850 electrons
N(Total)           :       71.999911627700 electrons
E(X)               :      -49.086275229422 Eh       
E(C)               :       -2.902082361045 Eh       
E(XC)              :      -51.988357590468 Eh       
DFET-embed. en.    :        0.000000000000 Eh       

---------------
SCF CONVERGENCE
---------------

  Last Energy change         ...   -1.2887e-08  Tolerance :   1.0000e-08
  Last MAX-Density change    ...    8.5862e-06  Tolerance :   1.0000e-07
  Last RMS-Density change    ...    2.5506e-07  Tolerance :   5.0000e-09
  Last Orbital Gradient      ...    1.3548e-06  Tolerance :   1.0000e-05
  Last Orbital Rotation      ...    5.6491e-06  Tolerance :   1.0000e-05

             **** THE GBW FILE WAS UPDATED (meta_ts_optfreq.gbw) ****
             **** DENSITY FILE WAS UPDATED (meta_ts_optfreq.scfp) ****
             **** ENERGY FILE WAS UPDATED (meta_ts_optfreq.en.tmp) ****
             **** THE GBW FILE WAS UPDATED (meta_ts_optfreq.gbw) ****
             **** DENSITY FILE WAS UPDATED (meta_ts_optfreq.scfp) ****
----------------
ORBITAL ENERGIES
----------------

  NO   OCC          E(Eh)            E(eV) 
   0   2.0000     -19.350119      -526.5435 
   1   2.0000     -19.349212      -526.5188 
   2   2.0000     -14.744566      -401.2200 
   3   2.0000     -10.461828      -284.6808 
   4   2.0000     -10.439494      -284.0731 
   5   2.0000     -10.439079      -284.0618 
   6   2.0000     -10.433101      -283.8991 
   7   2.0000     -10.416817      -283.4560 
   8   2.0000     -10.413107      -283.3550 
   9   2.0000     -10.352864      -281.7158 
  10   2.0000      -1.388636       -37.7867 
  11   2.0000      -1.219122       -33.1740 
  12   2.0000      -1.100684       -29.9511 
  13   2.0000      -1.017725       -27.6937 
  14   2.0000      -0.978526       -26.6271 
  15   2.0000      -0.893192       -24.3050 
  16   2.0000      -0.880256       -23.9530 
  17   2.0000      -0.815435       -22.1891 
  18   2.0000      -0.785359       -21.3707 
  19   2.0000      -0.741058       -20.1652 
  20   2.0000      -0.732664       -19.9368 
  21   2.0000      -0.705705       -19.2032 
  22   2.0000      -0.703425       -19.1412 
  23   2.0000      -0.669645       -18.2220 
  24   2.0000      -0.658982       -17.9318 
  25   2.0000      -0.640799       -17.4370 
  26   2.0000      -0.621374       -16.9084 
  27   2.0000      -0.600417       -16.3382 
  28   2.0000      -0.583966       -15.8905 
  29   2.0000      -0.559072       -15.2131 
  30   2.0000      -0.549440       -14.9510 
  31   2.0000      -0.536405       -14.5963 
  32   2.0000      -0.489148       -13.3104 
  33   2.0000      -0.487196       -13.2573 
  34   2.0000      -0.478153       -13.0112 
  35   2.0000      -0.462898       -12.5961 
  36   0.0000      -0.338923        -9.2226 
  37   0.0000      -0.251744        -6.8503 
  38   0.0000      -0.226209        -6.1555 
  39   0.0000      -0.144034        -3.9194 
  40   0.0000      -0.116678        -3.1750 
  41   0.0000      -0.087395        -2.3781 
  42   0.0000      -0.070021        -1.9054 
  43   0.0000      -0.062188        -1.6922 
  44   0.0000      -0.043883        -1.1941 
  45   0.0000      -0.018865        -0.5133 
  46   0.0000      -0.013683        -0.3723 
  47   0.0000      -0.002834        -0.0771 
  48   0.0000       0.005682         0.1546 
  49   0.0000       0.031035         0.8445 
  50   0.0000       0.057202         1.5565 
  51   0.0000       0.067820         1.8455 
  52   0.0000       0.093989         2.5576 
  53   0.0000       0.104825         2.8524 
  54   0.0000       0.122140         3.3236 
  55   0.0000       0.163893         4.4598 
  56   0.0000       0.179927         4.8961 
  57   0.0000       0.198885         5.4119 
  58   0.0000       0.226610         6.1664 
  59   0.0000       0.228374         6.2144 
  60   0.0000       0.235238         6.4012 
  61   0.0000       0.255766         6.9597 
  62   0.0000       0.265882         7.2350 
  63   0.0000       0.274326         7.4648 
  64   0.0000       0.299403         8.1472 
  65   0.0000       0.322920         8.7871 
  66   0.0000       0.328059         8.9269 
  67   0.0000       0.346790         9.4366 
  68   0.0000       0.374271        10.1844 
  69   0.0000       0.391457        10.6521 
  70   0.0000       0.393306        10.7024 
  71   0.0000       0.414916        11.2904 
  72   0.0000       0.428109        11.6494 
  73   0.0000       0.436453        11.8765 
  74   0.0000       0.453754        12.3473 
  75   0.0000       0.457521        12.4498 
  76   0.0000       0.465535        12.6678 
  77   0.0000       0.492115        13.3911 
  78   0.0000       0.503397        13.6981 
  79   0.0000       0.508995        13.8505 
  80   0.0000       0.516099        14.0438 
  81   0.0000       0.516717        14.0606 
  82   0.0000       0.526582        14.3290 
  83   0.0000       0.538052        14.6411 
  84   0.0000       0.542262        14.7557 
  85   0.0000       0.574965        15.6456 
  86   0.0000       0.589158        16.0318 
  87   0.0000       0.634677        17.2704 
  88   0.0000       0.661298        17.9948 
  89   0.0000       0.687195        18.6995 
  90   0.0000       0.724186        19.7061 
  91   0.0000       0.742209        20.1965 
  92   0.0000       0.771106        20.9829 
  93   0.0000       0.777922        21.1683 
  94   0.0000       0.794096        21.6084 
  95   0.0000       0.830504        22.5992 
  96   0.0000       0.858677        23.3658 
  97   0.0000       0.900254        24.4971 
  98   0.0000       0.912943        24.8424 
  99   0.0000       0.920060        25.0361 
 100   0.0000       0.946985        25.7688 
 101   0.0000       0.978835        26.6355 
 102   0.0000       1.019920        27.7534 
 103   0.0000       1.033624        28.1264 
 104   0.0000       1.044681        28.4272 
 105   0.0000       1.080891        29.4125 
 106   0.0000       1.100760        29.9532 
 107   0.0000       1.141129        31.0517 
 108   0.0000       1.172713        31.9111 
 109   0.0000       1.233544        33.5664 
 110   0.0000       1.291435        35.1417 
 111   0.0000       1.305003        35.5109 
 112   0.0000       1.353106        36.8199 
 113   0.0000       1.379028        37.5253 
 114   0.0000       1.417063        38.5602 
 115   0.0000       1.457399        39.6578 
 116   0.0000       1.466497        39.9054 
 117   0.0000       1.492223        40.6055 
 118   0.0000       1.502684        40.8901 
 119   0.0000       1.521774        41.4096 
 120   0.0000       1.527981        41.5785 
 121   0.0000       1.543119        41.9904 
 122   0.0000       1.568739        42.6876 
 123   0.0000       1.583052        43.0770 
 124   0.0000       1.606663        43.7195 
 125   0.0000       1.624078        44.1934 
 126   0.0000       1.630747        44.3749 
 127   0.0000       1.633462        44.4488 
 128   0.0000       1.696106        46.1534 
 129   0.0000       1.710471        46.5443 
 130   0.0000       1.720666        46.8217 
 131   0.0000       1.734259        47.1916 
 132   0.0000       1.764413        48.0121 
 133   0.0000       1.767493        48.0959 
 134   0.0000       1.792904        48.7874 
 135   0.0000       1.848987        50.3135 
 136   0.0000       1.856600        50.5207 
 137   0.0000       1.867323        50.8124 
 138   0.0000       1.892896        51.5083 
 139   0.0000       1.926938        52.4347 
 140   0.0000       1.973249        53.6948 
 141   0.0000       1.988828        54.1188 
 142   0.0000       2.045422        55.6588 
 143   0.0000       2.062093        56.1124 
 144   0.0000       2.086684        56.7816 
 145   0.0000       2.088844        56.8403 
 146   0.0000       2.135624        58.1133 
 147   0.0000       2.145929        58.3937 
 148   0.0000       2.178493        59.2798 
 149   0.0000       2.193786        59.6959 
 150   0.0000       2.202926        59.9447 
 151   0.0000       2.246990        61.1437 
 152   0.0000       2.275993        61.9329 
 153   0.0000       2.291433        62.3531 
 154   0.0000       2.386916        64.9513 
 155   0.0000       2.395122        65.1746 
 156   0.0000       2.432189        66.1832 
 157   0.0000       2.443745        66.4977 
 158   0.0000       2.462722        67.0141 
 159   0.0000       2.474585        67.3369 
 160   0.0000       2.487017        67.6752 
 161   0.0000       2.501981        68.0824 
 162   0.0000       2.522552        68.6421 
 163   0.0000       2.541987        69.1710 
 164   0.0000       2.575441        70.0813 
 165   0.0000       2.631196        71.5985 
 166   0.0000       2.676711        72.8370 
 167   0.0000       2.748386        74.7874 
 168   0.0000       2.763766        75.2059 
 169   0.0000       2.775700        75.5306 
 170   0.0000       2.799154        76.1689 
 171   0.0000       2.854481        77.6744 
 172   0.0000       2.867967        78.0414 
 173   0.0000       2.918556        79.4179 
 174   0.0000       3.024682        82.3058 
 175   0.0000       3.083937        83.9182 
 176   0.0000       3.185989        86.6952 
 177   0.0000       3.334412        90.7340 
 178   0.0000       3.538550        96.2888 
 179   0.0000       3.558810        96.8401 

                    ********************************
                    * MULLIKEN POPULATION ANALYSIS *
                    ********************************

-----------------------
MULLIKEN ATOMIC CHARGES
-----------------------
   0 C :   -0.072286
   1 C :   -0.001264
   2 C :    0.229127
   3 C :    0.024632
   4 C :    0.045952
   5 C :    0.109274
   6 C :    0.077050
   7 H :    0.097971
   8 H :    0.080011
   9 H :    0.079647
  10 H :    0.054693
  11 H :    0.075836
  12 H :    0.073125
  13 H :    0.071100
  14 N :    0.185447
  15 O :   -0.153612
  16 O :   -0.151811
  17 H :    0.175107
Sum of atomic charges:    1.0000000

--------------------------------
MULLIKEN REDUCED ORBITAL CHARGES
--------------------------------
  0 C s       :     3.087874  s :     3.087874
      pz      :     0.958894  p :     2.940989
      px      :     0.946687
      py      :     1.035408
      dz2     :     0.006112  d :     0.043423
      dxz     :     0.006308
      dyz     :     0.008601
      dx2y2   :     0.009636
      dxy     :     0.012764
  1 C s       :     3.306867  s :     3.306867
      pz      :     0.879722  p :     2.660952
      px      :     0.872573
      py      :     0.908656
      dz2     :     0.005350  d :     0.033445
      dxz     :     0.004789
      dyz     :     0.005960
      dx2y2   :     0.008850
      dxy     :     0.008496
  2 C s       :     2.827914  s :     2.827914
      pz      :     0.860546  p :     2.890505
      px      :     1.023908
      py      :     1.006051
      dz2     :     0.012617  d :     0.052454
      dxz     :     0.008857
      dyz     :     0.009486
      dx2y2   :     0.009772
      dxy     :     0.011722
  3 C s       :     3.258561  s :     3.258561
      pz      :     0.866342  p :     2.682442
      px      :     0.920141
      py      :     0.895959
      dz2     :     0.005711  d :     0.034365
      dxz     :     0.005323
      dyz     :     0.005460
      dx2y2   :     0.009541
      dxy     :     0.008331
  4 C s       :     3.176891  s :     3.176891
      pz      :     0.932289  p :     2.743958
      px      :     0.901572
      py      :     0.910098
      dz2     :     0.003968  d :     0.033198
      dxz     :     0.005361
      dyz     :     0.006705
      dx2y2   :     0.008707
      dxy     :     0.008457
  5 C s       :     3.254317  s :     3.254317
      pz      :     0.803884  p :     2.600374
      px      :     0.890794
      py      :     0.905697
      dz2     :     0.004382  d :     0.036035
      dxz     :     0.005784
      dyz     :     0.006911
      dx2y2   :     0.009291
      dxy     :     0.009667
  6 C s       :     2.955829  s :     2.955829
      pz      :     1.020097  p :     2.940340
      px      :     1.025036
      py      :     0.895206
      dz2     :     0.007240  d :     0.026781
      dxz     :     0.003228
      dyz     :     0.004197
      dx2y2   :     0.005553
      dxy     :     0.006564
  7 H s       :     0.878394  s :     0.878394
      pz      :     0.005198  p :     0.023635
      px      :     0.003575
      py      :     0.014863
  8 H s       :     0.896374  s :     0.896374
      pz      :     0.004876  p :     0.023615
      px      :     0.012214
      py      :     0.006525
  9 H s       :     0.895859  s :     0.895859
      pz      :     0.014675  p :     0.024494
      px      :     0.005597
      py      :     0.004223
 10 H s       :     0.921664  s :     0.921664
      pz      :     0.006416  p :     0.023643
      px      :     0.010860
      py      :     0.006367
 11 H s       :     0.899868  s :     0.899868
      pz      :     0.005183  p :     0.024296
      px      :     0.010732
      py      :     0.008381
 12 H s       :     0.903919  s :     0.903919
      pz      :     0.008554  p :     0.022956
      px      :     0.008890
      py      :     0.005512
 13 H s       :     0.905560  s :     0.905560
      pz      :     0.004571  p :     0.023340
      px      :     0.012452
      py      :     0.006317
 14 N s       :     3.338838  s :     3.338838
      pz      :     1.142836  p :     3.366987
      px      :     1.152269
      py      :     1.071882
      dz2     :     0.023688  d :     0.108729
      dxz     :     0.013377
      dyz     :     0.024814
      dx2y2   :     0.025557
      dxy     :     0.021293
 15 O s       :     3.886930  s :     3.886930
      pz      :     1.606259  p :     4.244611
      px      :     1.458526
      py      :     1.179826
      dz2     :     0.002923  d :     0.022071
      dxz     :     0.002283
      dyz     :     0.006039
      dx2y2   :     0.005750
      dxy     :     0.005076
 16 O s       :     3.884694  s :     3.884694
      pz      :     1.605924  p :     4.245032
      px      :     1.257067
      py      :     1.382041
      dz2     :     0.002915  d :     0.022085
      dxz     :     0.003580
      dyz     :     0.004670
      dx2y2   :     0.004930
      dxy     :     0.005990
 17 H s       :     0.799072  s :     0.799072
      pz      :     0.005522  p :     0.025822
      px      :     0.011651
      py      :     0.008649


                     *******************************
                     * LOEWDIN POPULATION ANALYSIS *
                     *******************************

----------------------
LOEWDIN ATOMIC CHARGES
----------------------
   0 C :   -0.000499
   1 C :    0.107245
   2 C :   -0.007212
   3 C :    0.119853
   4 C :    0.017619
   5 C :    0.157153
   6 C :   -0.028742
   7 H :    0.073739
   8 H :    0.068592
   9 H :    0.061417
  10 H :    0.050459
  11 H :    0.059455
  12 H :    0.070607
  13 H :    0.067723
  14 N :    0.295447
  15 O :   -0.136098
  16 O :   -0.134725
  17 H :    0.157967

-------------------------------
LOEWDIN REDUCED ORBITAL CHARGES
-------------------------------
  0 C s       :     2.861318  s :     2.861318
      pz      :     0.971906  p :     3.032291
      px      :     1.016918
      py      :     1.043467
      dz2     :     0.012827  d :     0.106889
      dxz     :     0.017751
      dyz     :     0.019781
      dx2y2   :     0.024893
      dxy     :     0.031637
  1 C s       :     2.881686  s :     2.881686
      pz      :     0.928779  p :     2.925012
      px      :     1.003067
      py      :     0.993166
      dz2     :     0.011265  d :     0.086057
      dxz     :     0.012307
      dyz     :     0.017270
      dx2y2   :     0.022985
      dxy     :     0.022231
  2 C s       :     2.828955  s :     2.828955
      pz      :     0.912800  p :     3.047907
      px      :     1.057112
      py      :     1.077994
      dz2     :     0.033069  d :     0.130349
      dxz     :     0.020295
      dyz     :     0.022460
      dx2y2   :     0.025858
      dxy     :     0.028669
  3 C s       :     2.880961  s :     2.880961
      pz      :     0.919277  p :     2.912390
      px      :     0.966562
      py      :     1.026551
      dz2     :     0.011772  d :     0.086796
      dxz     :     0.015679
      dyz     :     0.013631
      dx2y2   :     0.023621
      dxy     :     0.022094
  4 C s       :     2.862984  s :     2.862984
      pz      :     0.978942  p :     3.032164
      px      :     1.021960
      py      :     1.031262
      dz2     :     0.009160  d :     0.087233
      dxz     :     0.013911
      dyz     :     0.018261
      dx2y2   :     0.023098
      dxy     :     0.022802
  5 C s       :     2.880751  s :     2.880751
      pz      :     0.865284  p :     2.871181
      px      :     0.983414
      py      :     1.022483
      dz2     :     0.009740  d :     0.090915
      dxz     :     0.013939
      dyz     :     0.016872
      dx2y2   :     0.024150
      dxy     :     0.026214
  6 C s       :     2.827732  s :     2.827732
      pz      :     1.066804  p :     3.130967
      px      :     1.076543
      py      :     0.987620
      dz2     :     0.018747  d :     0.070042
      dxz     :     0.007985
      dyz     :     0.010954
      dx2y2   :     0.014816
      dxy     :     0.017540
  7 H s       :     0.852518  s :     0.852518
      pz      :     0.016143  p :     0.073743
      px      :     0.012535
      py      :     0.045065
  8 H s       :     0.857724  s :     0.857724
      pz      :     0.015198  p :     0.073684
      px      :     0.037591
      py      :     0.020895
  9 H s       :     0.871427  s :     0.871427
      pz      :     0.041699  p :     0.067156
      px      :     0.013847
      py      :     0.011610
 10 H s       :     0.883489  s :     0.883489
      pz      :     0.017617  p :     0.066052
      px      :     0.030925
      py      :     0.017509
 11 H s       :     0.873597  s :     0.873597
      pz      :     0.013352  p :     0.066948
      px      :     0.030724
      py      :     0.022872
 12 H s       :     0.860379  s :     0.860379
      pz      :     0.025283  p :     0.069014
      px      :     0.026658
      py      :     0.017073
 13 H s       :     0.862312  s :     0.862312
      pz      :     0.014315  p :     0.069965
      px      :     0.036328
      py      :     0.019321
 14 N s       :     3.072923  s :     3.072923
      pz      :     1.134250  p :     3.408168
      px      :     1.141717
      py      :     1.132201
      dz2     :     0.048915  d :     0.223462
      dxz     :     0.026986
      dyz     :     0.052495
      dx2y2   :     0.048190
      dxy     :     0.046875
 15 O s       :     3.642423  s :     3.642423
      pz      :     1.645906  p :     4.451485
      px      :     1.485095
      py      :     1.320484
      dz2     :     0.004479  d :     0.042190
      dxz     :     0.003679
      dyz     :     0.013438
      dx2y2   :     0.011105
      dxy     :     0.009489
 16 O s       :     3.642304  s :     3.642304
      pz      :     1.646642  p :     4.450257
      px      :     1.341150
      py      :     1.462465
      dz2     :     0.004500  d :     0.042163
      dxz     :     0.007458
      dyz     :     0.009428
      dx2y2   :     0.007082
      dxy     :     0.013694
 17 H s       :     0.770076  s :     0.770076
      pz      :     0.017428  p :     0.071957
      px      :     0.031458
      py      :     0.023071


                      *****************************
                      * MAYER POPULATION ANALYSIS *
                      *****************************

  NA   - Mulliken gross atomic population
  ZA   - Total nuclear charge
  QA   - Mulliken gross atomic charge
  VA   - Mayer's total valence
  BVA  - Mayer's bonded valence
  FA   - Mayer's free valence

  ATOM       NA         ZA         QA         VA         BVA        FA
  0 C      6.0723     6.0000    -0.0723     3.9712     3.9712    -0.0000
  1 C      6.0013     6.0000    -0.0013     3.8992     3.8992    -0.0000
  2 C      5.7709     6.0000     0.2291     3.6921     3.6921    -0.0000
  3 C      5.9754     6.0000     0.0246     3.8870     3.8870     0.0000
  4 C      5.9540     6.0000     0.0460     3.8588     3.8588    -0.0000
  5 C      5.8907     6.0000     0.1093     3.7556     3.7556     0.0000
  6 C      5.9229     6.0000     0.0771     3.9022     3.9022    -0.0000
  7 H      0.9020     1.0000     0.0980     1.0034     1.0034     0.0000
  8 H      0.9200     1.0000     0.0800     1.0178     1.0178     0.0000
  9 H      0.9204     1.0000     0.0796     0.9912     0.9912    -0.0000
 10 H      0.9453     1.0000     0.0547     1.0001     1.0001    -0.0000
 11 H      0.9242     1.0000     0.0758     0.9914     0.9914    -0.0000
 12 H      0.9269     1.0000     0.0731     0.9882     0.9882    -0.0000
 13 H      0.9289     1.0000     0.0711     0.9825     0.9825    -0.0000
 14 N      6.8146     7.0000     0.1854     3.9404     3.9404     0.0000
 15 O      8.1536     8.0000    -0.1536     2.0366     2.0366     0.0000
 16 O      8.1518     8.0000    -0.1518     2.0453     2.0453    -0.0000
 17 H      0.8249     1.0000     0.1751     0.9741     0.9741     0.0000

  Mayer bond orders larger than 0.100000
B(  0-C ,  1-C ) :   1.4999 B(  0-C ,  5-C ) :   1.2726 B(  0-C ,  6-C ) :   1.0555 
B(  1-C ,  2-C ) :   1.0308 B(  1-C ,  8-H ) :   0.9680 B(  2-C ,  3-C ) :   1.0480 
B(  2-C , 14-N ) :   0.7292 B(  2-C , 17-H ) :   0.7661 B(  3-C ,  4-C ) :   1.5149 
B(  3-C ,  7-H ) :   0.9663 B(  4-C ,  5-C ) :   1.2817 B(  4-C , 13-H ) :   0.9876 
B(  5-C , 12-H ) :   0.9895 B(  6-C ,  9-H ) :   0.9449 B(  6-C , 10-H ) :   0.9573 
B(  6-C , 11-H ) :   0.9481 B( 14-N , 15-O ) :   1.5596 B( 14-N , 16-O ) :   1.5678 
B( 15-O , 16-O ) :   0.3140 

-------
TIMINGS
-------

Total SCF time: 0 days 0 hours 3 min 4 sec 

Total time                  ....     184.993 sec
Sum of individual times     ....     183.807 sec  ( 99.4%)

Fock matrix formation       ....     175.441 sec  ( 94.8%)
  XC integration            ....      13.702 sec  (  7.8% of F)
    Basis function eval.    ....       4.208 sec  ( 30.7% of XC)
    Density eval.           ....       3.502 sec  ( 25.6% of XC)
    XC-Functional eval.     ....       0.700 sec  (  5.1% of XC)
    XC-Potential eval.      ....       4.507 sec  ( 32.9% of XC)
Diagonalization             ....       0.088 sec  (  0.0%)
Density matrix formation    ....       0.036 sec  (  0.0%)
Population analysis         ....       0.070 sec  (  0.0%)
Initial guess               ....       2.378 sec  (  1.3%)
Orbital Transformation      ....       0.000 sec  (  0.0%)
Orbital Orthonormalization  ....       0.000 sec  (  0.0%)
DIIS solution               ....       0.108 sec  (  0.1%)
SOSCF solution              ....       0.101 sec  (  0.1%)
Grid generation             ....       5.585 sec  (  3.0%)


-------------------------------------------------------------------------------
                          DFT DISPERSION CORRECTION                            
                                                                               
                                 DFTD4 V2.0                                    
-------------------------------------------------------------------------------
The B3LYP functional is recognized
Active option DFTDOPT                   ...         5   

-------------------------   ----------------
Dispersion correction           -0.027177385
-------------------------   ----------------


-------------------------   --------------------
FINAL SINGLE POINT ENERGY      -475.739582282337
-------------------------   --------------------

------------------------------------------------------------------------------
                         ORCA SCF GRADIENT CALCULATION
------------------------------------------------------------------------------

Gradient of the Kohn-Sham DFT energy:
Kohn-Sham wavefunction type      ... RKS
Hartree-Fock exchange scaling    ...    0.200
Number of operators              ...    1
Number of atoms                  ...   18
Basis set dimensions             ...  180
Integral neglect threshold       ... 2.5e-11
Integral primitive cutoff        ... 2.5e-12

Nuclear repulsion gradient       ... done
One Electron Gradient            ... done
Pre-screening matrix             ... done
Starting the two electron gradient:
Two electron gradient done
Exchange-correlation gradient    ... done
Dispersion correction            ... 

------------------- 
Dispersion Gradient 
------------------- 
   1  :    0.000049135    0.000442929    0.000325655
   2  :   -0.000302803    0.000199748    0.000036276
   3  :   -0.000190310   -0.000253886   -0.000168164
   4  :    0.000277192   -0.000456254    0.000091444
   5  :    0.000566251   -0.000302838    0.000292375
   6  :    0.000421841    0.000045202    0.000328372
   7  :   -0.000093263    0.000586888    0.000245777
   8  :    0.000085363   -0.000192018   -0.000029252
   9  :   -0.000197125    0.000118559   -0.000059013
  10  :   -0.000038689    0.000132959    0.000104791
  11  :   -0.000049448    0.000156106    0.000037883
  12  :    0.000015104    0.000163652    0.000035006
  13  :    0.000155993    0.000034880    0.000117487
  14  :    0.000149239   -0.000084159    0.000054097
  15  :   -0.000285180   -0.000203841   -0.000539348
  16  :   -0.000074448   -0.000303425   -0.000415270
  17  :   -0.000311848    0.000054448   -0.000443374
  18  :   -0.000175217   -0.000144432   -0.000015253

  |G| =    0.010653511

done

------------------
CARTESIAN GRADIENT
------------------

   1   C   :    0.029147241   -0.009268830    0.008682489
   2   C   :   -0.010892547   -0.040719633   -0.021786406
   3   C   :    0.026397234    0.016142531    0.004843021
   4   C   :   -0.047925536    0.011401303   -0.020658152
   5   C   :    0.009714111    0.020525440    0.011909596
   6   C   :   -0.001675564    0.005413530    0.003322263
   7   C   :    0.003003294    0.002090757    0.005252564
   8   H   :    0.002145323    0.000775975    0.004572630
   9   H   :    0.000432583    0.000756156    0.003297637
  10   H   :   -0.000782718   -0.001559007   -0.005385452
  11   H   :    0.002155073   -0.000717503    0.000603448
  12   H   :   -0.003952100   -0.002868968   -0.001859520
  13   H   :   -0.002713472   -0.003262326   -0.001676518
  14   H   :   -0.001861965    0.002678572   -0.000442821
  15   N   :    0.018596214    0.011483548    0.081189420
  16   O   :    0.009174849   -0.036781133   -0.030026871
  17   O   :   -0.028048661    0.025107382   -0.029888565
  18   H   :   -0.002911572   -0.001203273   -0.011949276

Difference to translation invariance:
           :    0.0000017873   -0.0000054822   -0.0000005118

Norm of the cartesian gradient     ...    0.1408680400
RMS gradient                       ...    0.0191697122
MAX gradient                       ...    0.0811894196

-------
TIMINGS
-------

Total SCF gradient time            ...       91.539 sec

One electron gradient       ....       0.776 sec  (  0.8%)
Prescreening matrices       ....       0.437 sec  (  0.5%)
Two electron gradient       ....      72.817 sec  ( 79.5%)
XC gradient                 ....      16.761 sec  ( 18.3%)
------------------------------------------------------------------------------
                         ORCA GEOMETRY RELAXATION STEP
------------------------------------------------------------------------------

Reading the OPT-File                    .... done
Getting information on internals        .... done
Copying old internal coords+grads       .... done
Making the new internal coordinates     .... (new redundants).... done
Validating the new internal coordinates .... (new redundants).... done
Calculating the B-matrix                .... done
Calculating the G,G- and P matrices     .... done
Transforming gradient to internals      .... done
Projecting the internal gradient        .... done
Number of atoms                         ....  18
Number of internal coordinates          ....  88
Current Energy                          ....  -475.739582282 Eh
Current gradient norm                   ....     0.140868040 Eh/bohr
Maximum allowed component of the step   ....  0.300
Current trust radius                    ....  0.300
Evaluating the initial hessian          ....  (Almloef) done
Projecting the Hessian                  .... done
Forming the augmented Hessian           .... done
Diagonalizing the augmented Hessian     .... done
Last element of RFO vector              ....  0.977042464
Lowest eigenvalues of augmented Hessian:
 -0.016774416  0.010115523  0.010395821  0.012781334  0.019948066
Length of the computed step             ....  0.218050557
The final length of the internal step   ....  0.218050557
Converting the step to cartesian space:
 Initial RMS(Int)=    0.0232442674
Transforming coordinates:
 Iter   0:  RMS(Cart)=    0.0304319099 RMS(Int)=    0.9445508050
 Iter   1:  RMS(Cart)=    0.0003649702 RMS(Int)=    0.0003207435
 Iter   2:  RMS(Cart)=    0.0000119986 RMS(Int)=    0.0000107280
 Iter   3:  RMS(Cart)=    0.0000004832 RMS(Int)=    0.0000003654
 Iter   4:  RMS(Cart)=    0.0000000173 RMS(Int)=    0.0000000147
done
Storing new coordinates                 .... done

                                .--------------------.
          ----------------------|Geometry convergence|-------------------------
          Item                value                   Tolerance       Converged
          ---------------------------------------------------------------------
          RMS gradient        0.0106298844            0.0001000000      NO
          MAX gradient        0.0469509365            0.0003000000      NO
          RMS step            0.0232442674            0.0020000000      NO
          MAX step            0.0608525682            0.0040000000      NO
          ........................................................
          Max(Bonds)      0.0322      Max(Angles)    2.75
          Max(Dihed)        3.11      Max(Improp)    0.00
          ---------------------------------------------------------------------

The optimization has not yet converged - more geometry cycles are needed


    ---------------------------------------------------------------------------
                         Redundant Internal Coordinates
                            (Angstroem and degrees)

        Definition                    Value    dE/dq     Step     New-Value
    ----------------------------------------------------------------------------
     1. B(C   1,C   0)                1.4022  0.019060 -0.0164    1.3858   
     2. B(C   2,C   1)                1.4220 -0.034103  0.0322    1.4542   
     3. B(C   3,C   2)                1.4197 -0.033396  0.0313    1.4510   
     4. B(C   4,C   3)                1.3956  0.020645 -0.0174    1.3782   
     5. B(C   5,C   4)                1.3960 -0.018110  0.0146    1.4106   
     6. B(C   5,C   0)                1.4012 -0.020799  0.0172    1.4184   
     7. B(C   6,C   0)                1.5010 -0.003374  0.0041    1.5051   
     8. B(H   7,C   3)                1.0899 -0.001826  0.0026    1.0924   
     9. B(H   8,C   1)                1.0907 -0.000935  0.0013    1.0920   
    10. B(H   9,C   6)                1.0946 -0.005088  0.0073    1.1019   
    11. B(H  10,C   6)                1.0949 -0.002274  0.0032    1.0982   
    12. B(H  11,C   6)                1.0949 -0.004509  0.0064    1.1013   
    13. B(H  12,C   5)                1.0889 -0.004190  0.0059    1.0948   
    14. B(H  13,C   4)                1.0878 -0.002962  0.0041    1.0919   
    15. B(N  14,C   2)                1.5243 -0.020203  0.0298    1.5541   
    16. B(O  15,N  14)                1.2391  0.046951 -0.0279    1.2112   
    17. B(O  16,N  14)                1.2389  0.046608 -0.0277    1.2112   
    18. B(H  17,C   2)                1.1246 -0.001265  0.0020    1.1266   
    19. A(C   5,C   0,C   6)          119.85 -0.003701    0.50    120.35   
    20. A(C   1,C   0,C   5)          119.23  0.007852   -1.06    118.17   
    21. A(C   1,C   0,C   6)          120.92 -0.004155    0.57    121.49   
    22. A(C   0,C   1,C   2)          120.88  0.001669   -0.07    120.81   
    23. A(C   2,C   1,H   8)          119.73  0.001794   -0.38    119.35   
    24. A(C   0,C   1,H   8)          119.39 -0.003458    0.44    119.83   
    25. A(C   3,C   2,N  14)          114.43  0.003312   -0.79    113.64   
    26. A(C   3,C   2,H  17)          106.07  0.002854   -0.63    105.44   
    27. A(C   1,C   2,H  17)          106.13  0.002504   -0.47    105.66   
    28. A(N  14,C   2,H  17)           92.97 -0.007680    2.75     95.72   
    29. A(C   1,C   2,C   3)          118.33 -0.004008    0.33    118.66   
    30. A(C   1,C   2,N  14)          114.76  0.002308   -0.60    114.17   
    31. A(C   2,C   3,C   4)          120.44  0.006937   -0.80    119.64   
    32. A(C   4,C   3,H   7)          118.95 -0.007829    1.08    120.03   
    33. A(C   2,C   3,H   7)          120.60  0.000898   -0.28    120.31   
    34. A(C   5,C   4,H  13)          119.88 -0.002018    0.32    120.20   
    35. A(C   3,C   4,H  13)          119.97  0.000766   -0.11    119.86   
    36. A(C   3,C   4,C   5)          120.15  0.001256   -0.22    119.93   
    37. A(C   0,C   5,C   4)          120.89 -0.013647    1.72    122.61   
    38. A(C   4,C   5,H  12)          119.10  0.005590   -0.67    118.43   
    39. A(C   0,C   5,H  12)          120.00  0.008058   -1.05    118.95   
    40. A(H   9,C   6,H  10)          108.10  0.000347    0.02    108.12   
    41. A(C   0,C   6,H  10)          111.52  0.000018    0.11    111.63   
    42. A(C   0,C   6,H   9)          110.04 -0.001554    0.20    110.24   
    43. A(H  10,C   6,H  11)          107.64 -0.000424    0.25    107.89   
    44. A(H   9,C   6,H  11)          109.22  0.002864   -0.76    108.47   
    45. A(C   0,C   6,H  11)          110.24 -0.001118    0.16    110.40   
    46. A(O  15,N  14,O  16)          125.01 -0.018202    2.22    127.23   
    47. A(C   2,N  14,O  16)          117.59  0.009350   -1.13    116.46   
    48. A(C   2,N  14,O  15)          117.31  0.008877   -1.07    116.24   
    49. D(H   8,C   1,C   0,C   5)    179.96 -0.000677    1.03    180.99   
    50. D(C   2,C   1,C   0,C   6)   -178.53 -0.000477    0.66   -177.88   
    51. D(C   2,C   1,C   0,C   5)      0.94 -0.001045    1.54      2.48   
    52. D(H   8,C   1,C   0,C   6)      0.49 -0.000109    0.14      0.63   
    53. D(C   3,C   2,C   1,H   8)    178.01  0.001128   -1.63    176.37   
    54. D(N  14,C   2,C   1,C   0)   -142.96 -0.002175   -0.38   -143.34   
    55. D(H  17,C   2,C   1,C   0)    115.92  0.004577   -3.11    112.81   
    56. D(H  17,C   2,C   1,H   8)    -63.10  0.004258   -2.60    -65.70   
    57. D(N  14,C   2,C   1,H   8)     38.01 -0.002494    0.13     38.14   
    58. D(C   3,C   2,C   1,C   0)     -2.97  0.001447   -2.14     -5.11   
    59. D(H   7,C   3,C   2,C   1)   -177.85 -0.001115    1.65   -176.19   
    60. D(C   4,C   3,C   2,N  14)    143.40  0.001856    0.42    143.82   
    61. D(C   4,C   3,C   2,C   1)      3.28 -0.001383    2.11      5.39   
    62. D(H   7,C   3,C   2,N  14)    -37.72  0.002123   -0.04    -37.76   
    63. D(C   4,C   3,C   2,H  17)   -115.65 -0.004332    2.99   -112.65   
    64. D(H   7,C   3,C   2,H  17)     63.23 -0.004064    2.54     65.77   
    65. D(H  13,C   4,C   3,H   7)      0.01  0.000050   -0.16     -0.15   
    66. D(H  13,C   4,C   3,C   2)    178.90  0.000408   -0.62    178.28   
    67. D(C   5,C   4,C   3,H   7)    179.54  0.000680   -1.05    178.49   
    68. D(C   5,C   4,C   3,C   2)     -1.57  0.001037   -1.51     -3.08   
    69. D(H  12,C   5,C   4,H  13)     -0.36 -0.000299    0.36     -0.01   
    70. D(C   0,C   5,C   4,H  13)    178.98 -0.000081   -0.01    178.98   
    71. D(C   0,C   5,C   4,C   3)     -0.55 -0.000724    0.88      0.33   
    72. D(H  12,C   5,C   0,C   6)     -0.32  0.000273   -0.37     -0.69   
    73. D(H  12,C   5,C   0,C   1)   -179.80  0.000838   -1.25   -181.04   
    74. D(H  12,C   5,C   4,C   3)   -179.89 -0.000941    1.25   -178.65   
    75. D(C   4,C   5,C   0,C   6)   -179.66  0.000071   -0.01   -179.67   
    76. D(C   4,C   5,C   0,C   1)      0.86  0.000637   -0.88     -0.02   
    77. D(H  10,C   6,C   0,C   1)     -6.88 -0.000528    0.62     -6.26   
    78. D(H   9,C   6,C   0,C   5)    -66.39 -0.000603   -0.04    -66.43   
    79. D(H   9,C   6,C   0,C   1)    113.07 -0.001114    0.85    113.92   
    80. D(H  11,C   6,C   0,C   5)     54.14  0.001243   -0.75     53.39   
    81. D(H  11,C   6,C   0,C   1)   -126.40  0.000732    0.14   -126.26   
    82. D(H  10,C   6,C   0,C   5)    173.65 -0.000017   -0.26    173.39   
    83. D(O  16,N  14,C   2,H  17)     92.77 -0.000186   -0.03     92.75   
    84. D(O  16,N  14,C   2,C   3)   -158.08 -0.000120    0.48   -157.60   
    85. D(O  16,N  14,C   2,C   1)    -16.51  0.000397   -0.76    -17.27   
    86. D(O  15,N  14,C   2,H  17)    -83.94 -0.000007   -0.33    -84.27   
    87. D(O  15,N  14,C   2,C   3)     25.20  0.000059    0.17     25.37   
    88. D(O  15,N  14,C   2,C   1)    166.77  0.000576   -1.07    165.71   
    ----------------------------------------------------------------------------

         *************************************************************
         *                GEOMETRY OPTIMIZATION CYCLE   2            *
         *************************************************************
---------------------------------
CARTESIAN COORDINATES (ANGSTROEM)
---------------------------------
  C     -4.090251    2.524097   -0.529515
  C     -4.969971    1.930726   -1.420788
  C     -4.748515    0.573526   -1.893665
  C     -3.528986   -0.108791   -1.503156
  C     -2.667442    0.492469   -0.611191
  C     -2.942006    1.791239   -0.134018
  C     -4.329554    3.910149    0.006148
  H     -3.305350   -1.104632   -1.892662
  H     -5.854389    2.476624   -1.755844
  H     -4.524726    3.871455    1.089900
  H     -5.190705    4.388567   -0.479117
  H     -3.447306    4.546204   -0.166910
  H     -2.229621    2.254397    0.556263
  H     -1.762710   -0.029587   -0.293197
  N     -5.141340    0.345672   -3.379919
  O     -4.733230   -0.673520   -3.891456
  O     -5.866077    1.177252   -3.880063
  H     -5.587901   -0.040347   -1.460231

----------------------------
CARTESIAN COORDINATES (A.U.)
----------------------------
  NO LB      ZA    FRAG     MASS         X           Y           Z
   0 C     6.0000    0    12.011   -7.729455    4.769853   -1.000639
   1 C     6.0000    0    12.011   -9.391884    3.648543   -2.684900
   2 C     6.0000    0    12.011   -8.973393    1.083807   -3.578508
   3 C     6.0000    0    12.011   -6.668818   -0.205585   -2.840553
   4 C     6.0000    0    12.011   -5.040735    0.930631   -1.154984
   5 C     6.0000    0    12.011   -5.559586    3.384951   -0.253256
   6 C     6.0000    0    12.011   -8.181671    7.389111    0.011617
   7 H     1.0000    0     1.008   -6.246207   -2.087453   -3.576614
   8 H     1.0000    0     1.008  -11.063191    4.680141   -3.318064
   9 H     1.0000    0     1.008   -8.550494    7.315990    2.059613
  10 H     1.0000    0     1.008   -9.809011    8.293190   -0.905399
  11 H     1.0000    0     1.008   -6.514465    8.591081   -0.315413
  12 H     1.0000    0     1.008   -4.213372    4.260192    1.051185
  13 H     1.0000    0     1.008   -3.331040   -0.055912   -0.554062
  14 N     7.0000    0    14.007   -9.715724    0.653225   -6.387122
  15 O     8.0000    0    15.999   -8.944508   -1.272768   -7.353787
  16 O     8.0000    0    15.999  -11.085278    2.224684   -7.332256
  17 H     1.0000    0     1.008  -10.559602   -0.076246   -2.759437

--------------------------------
INTERNAL COORDINATES (ANGSTROEM)
--------------------------------
 C      0   0   0     0.000000000000     0.00000000     0.00000000
 C      1   0   0     1.385772015690     0.00000000     0.00000000
 C      2   1   0     1.454182624759   120.80382672     0.00000000
 C      3   2   1     1.450966364187   118.64405145   354.87434811
 C      4   3   2     1.378177273509   119.63358615     5.38615242
 C      5   4   3     1.410632798113   119.92922159   356.92861636
 C      1   2   3     1.505104681535   121.48565142   182.11780703
 H      4   3   2     1.092441770343   120.31588285   183.81229799
 H      2   1   3     1.091998806196   119.83027194   178.50594931
 H      7   1   2     1.101866455829   110.23491350   113.92283466
 H      7   1   2     1.098156091796   111.62977537   353.74007262
 H      7   1   2     1.101306061707   110.39981370   233.74055985
 H      6   5   4     1.094758192085   118.43441516   181.35567278
 H      5   4   3     1.091880011112   119.85998875   178.28386152
 N      3   2   1     1.554085467885   114.16304832   216.65315914
 O     15   3   2     1.211187620768   116.23880914   165.70760825
 O     15   3   2     1.211161702137   116.45580507   342.73008791
 H      3   2   1     1.126620222538   105.66270482   112.80801861

---------------------------
INTERNAL COORDINATES (A.U.)
---------------------------
 C      0   0   0     0.000000000000     0.00000000     0.00000000
 C      1   0   0     2.618729593705     0.00000000     0.00000000
 C      2   1   0     2.748006909501   120.80382672     0.00000000
 C      3   2   1     2.741929057846   118.64405145   354.87434811
 C      4   3   2     2.604377610926   119.63358615     5.38615242
 C      5   4   3     2.665709663960   119.92922159   356.92861636
 C      1   2   3     2.844235650984   121.48565142   182.11780703
 H      4   3   2     2.064415763203   120.31588285   183.81229799
 H      2   1   3     2.063578682280   119.83027194   178.50594931
 H      7   1   2     2.082225837672   110.23491350   113.92283466
 H      7   1   2     2.075214265792   111.62977537   353.74007262
 H      7   1   2     2.081166846253   110.39981370   233.74055985
 H      6   5   4     2.068793165908   118.43441516   181.35567278
 H      5   4   3     2.063354192105   119.85998875   178.28386152
 N      3   2   1     2.936795923010   114.16304832   216.65315914
 O     15   3   2     2.288812900046   116.23880914   165.70760825
 O     15   3   2     2.288763920934   116.45580507   342.73008791
 H      3   2   1     2.129003677535   105.66270482   112.80801861


Diagonalization of the overlap matrix:
Smallest eigenvalue                        ... 3.010e-04
Time for diagonalization                   ...    0.015 sec
Threshold for overlap eigenvalues          ... 1.000e-08
Number of eigenvalues below threshold      ... 0
Time for construction of square roots      ...    0.011 sec
Total time needed                          ...    0.026 sec

-------------------
DFT GRID GENERATION
-------------------

General Integration Accuracy     IntAcc      ...  4.340
Radial Grid Type                 RadialGrid  ... Gauss-Chebyshev
Angular Grid (max. acc.)         AngularGrid ... Lebedev-110
Angular grid pruning method      GridPruning ... 3 (G Style)
Weight generation scheme         WeightScheme... Becke
Basis function cutoff            BFCut       ...    1.0000e-11
Integration weight cutoff        WCut        ...    1.0000e-14
Grids for H and He will be reduced by one unit

# of grid points (after initial pruning)     ...  23078 (   0.0 sec)
# of grid points (after weights+screening)   ...  21367 (   0.2 sec)
nearest neighbour list constructed           ...    0.0 sec
Grid point re-assignment to atoms done       ...    0.0 sec
Grid point division into batches done        ...    0.0 sec
Reduced shell lists constructed in    0.6 sec

Total number of grid points                  ...    21367
Total number of batches                      ...      343
Average number of points per batch           ...       62
Average number of grid points per atom       ...     1187
Average number of shells per batch           ...    56.76 (67.57%)
Average number of basis functions per batch  ...   119.23 (66.24%)
Average number of large shells per batch     ...    43.65 (76.92%)
Average number of large basis fcns per batch ...    90.43 (75.84%)
Maximum spatial batch extension              ...  20.71, 22.05, 21.29 au
Average spatial batch extension              ...   3.65,  3.80,  3.73 au

Time for grid setup =    0.823 sec

--------------
SCF ITERATIONS
[...]
      5      -0.138590  -0.071977   0.218625  -0.013134  -0.000098   0.000176
      6       0.012791  -0.063237  -0.037444   0.036592   0.058785  -0.000069
      7       0.015193   0.063326  -0.054454  -0.052771   0.042720  -0.000129
      8       0.014049  -0.013506  -0.061302  -0.001793  -0.032710  -0.000088
      9       0.053103   0.199054   0.182627  -0.010366   0.002630   0.000146
     10       0.098103   0.025438   0.087446   0.019614   0.000539   0.000008
     11       0.100077   0.145499   0.176876   0.017104  -0.000207   0.000086
     12      -0.047484  -0.164513  -0.139321   0.002299  -0.000184   0.000019
     13      -0.277510   0.003032  -0.209452  -0.025957  -0.001237  -0.000304
     14      -0.180052  -0.110408  -0.204130  -0.013763  -0.001083  -0.000154
     15      -0.123922   0.182449   0.028139  -0.012788   0.000019  -0.000213
     16       0.218584  -0.219202   0.124258   0.021068   0.000159   0.000813
     17       0.028313   0.010571   0.081776   0.002151   0.000449   0.000270
     18       0.005728   0.009462   0.007329  -0.002336   0.000195  -0.002912
     19      -0.029564  -0.041268   0.042642   0.001758   0.000066  -0.042554
     20      -0.010357  -0.013832   0.024680   0.000042  -0.000006  -0.031405
     21       0.115860  -0.281223  -0.248193   0.053942  -0.002572  -0.000301
     22       0.140025   0.075265   0.142309   0.041353   0.007025   0.001136
     23       0.114232  -0.151672  -0.081117   0.045545   0.008332   0.000590
     24      -0.082422   0.056243  -0.002187  -0.056308   0.005614   0.005419
     25       0.147570   0.178077  -0.392303  -0.039491  -0.004737  -0.004212
     26       0.040965   0.133781  -0.187340  -0.048070   0.007729   0.002092
     27      -0.288886   0.006003   0.102811  -0.000728  -0.000219  -0.112335
     28      -0.147932  -0.029354   0.114105  -0.005408  -0.000229  -0.030726
     29      -0.068518  -0.011591   0.040371  -0.000256   0.000200   0.659025
     30       0.053433   0.015695  -0.034459  -0.000990  -0.000522  -0.340343
     31       0.301182  -0.045119  -0.151038   0.005247  -0.000107   0.185148
     32       0.227676  -0.023349  -0.098731   0.000046  -0.000371  -0.193245
     33      -0.051067  -0.006684   0.013630   0.002525   0.000146   0.489288
     34      -0.042200  -0.014145   0.067894  -0.007495   0.000500   0.335759
     35      -0.327331  -0.011602   0.159456  -0.006290   0.000071  -0.098149
     36       0.113413  -0.375675   0.194235   0.017608  -0.001921  -0.002858
     37      -0.110077   0.592339  -0.059366  -0.022183  -0.001278  -0.003555
     38       0.021141   0.047460   0.074701   0.001522  -0.001940  -0.003541
     39       0.128060  -0.136837  -0.011260   0.020747  -0.000149   0.000906
     40       0.340607   0.234898   0.309110   0.028798   0.001538  -0.000797
     41       0.277393   0.040524   0.161689   0.022002  -0.000978   0.000110
     42       0.013986  -0.011874  -0.014406  -0.461403  -0.000292  -0.000019
     43      -0.013801   0.006716  -0.019392   0.683955  -0.000150  -0.000023
     44       0.014996  -0.012299  -0.046645   0.016244  -0.001731  -0.000029
     45      -0.001026  -0.000707  -0.010225   0.148543  -0.000081   0.000000
     46      -0.001279   0.000889   0.027166  -0.315641   0.000350   0.000016
     47      -0.002670  -0.001099   0.018852  -0.155329   0.000344   0.000015
     48      -0.012968   0.010574   0.015512   0.240450   0.000328   0.000002
     49       0.014950  -0.009193  -0.013954  -0.261363  -0.000219  -0.000001
     50      -0.009901   0.010216   0.012344   0.141339   0.000331   0.000001
     51       0.041868  -0.020687   0.020162  -0.028863  -0.733919   0.000290
     52      -0.046001   0.036643  -0.006031   0.045265  -0.533246   0.000644
     53      -0.013756   0.012345   0.033561   0.007271   0.412779  -0.000184
                 48         49         50         51         52         53    
      0      -0.000051   0.000143   0.002683   0.003074  -0.000435  -0.000452
      1       0.000328   0.000982  -0.001458   0.001671   0.000457   0.000387
      2       0.000186   0.000617   0.001000   0.003407  -0.000033  -0.000062
      3      -0.000226  -0.001450   0.000521  -0.070402   0.002842  -0.004179
      4      -0.000063   0.000743  -0.000425   0.041049  -0.002262   0.002933
      5       0.000187  -0.000821   0.000285  -0.032345   0.001178  -0.001809
      6      -0.000066  -0.000113   0.000428  -0.000124   0.001066  -0.002011
      7      -0.000080  -0.000006   0.000366  -0.002078  -0.000201   0.000377
      8       0.000098  -0.000059   0.000063   0.000231  -0.000395   0.000081
      9      -0.000031  -0.000097  -0.000861  -0.000236  -0.012133   0.009189
     10       0.000014   0.000092   0.002192   0.005028   0.051408  -0.060572
     11      -0.000010  -0.000013   0.000743   0.002532   0.021517  -0.028929
     12       0.000008   0.000063   0.009733  -0.000741   0.053255   0.051291
     13       0.000055   0.000170  -0.002122  -0.000331  -0.031894  -0.024649
     14      -0.000012   0.000168   0.005104  -0.000670   0.017811   0.021049
     15       0.000420  -0.001252  -0.056696   0.000010   0.005714   0.003207
     16       0.000300  -0.000764  -0.037219   0.000017   0.006677   0.004853
     17       0.000093  -0.001081  -0.054558  -0.000076   0.006962   0.004383
     18      -0.050634   0.078649  -0.002041  -0.001445   0.000116   0.000072
     19      -0.038457  -0.017819  -0.000082   0.000743  -0.000089   0.000028
     20       0.067587   0.047676  -0.000952  -0.000648  -0.000063   0.000114
     21       0.000023   0.000271   0.005569   0.013237   0.126642  -0.139610
     22      -0.000428  -0.001602  -0.025313  -0.062360  -0.594440   0.668655
     23      -0.000066  -0.000783  -0.010623  -0.026067  -0.257487   0.292275
     24       0.000793   0.014374  -0.003863   0.792506  -0.031879   0.043738
     25      -0.000034  -0.010875   0.002664  -0.484273   0.019460  -0.026533
     26      -0.000549   0.005859  -0.001562   0.352681  -0.015030   0.020180
     27       0.104862   0.053191  -0.001768  -0.000186  -0.000019   0.000125
     28       0.020645   0.008976   0.001064  -0.000648  -0.000301   0.000018
     29      -0.682769  -0.241242   0.005769   0.000181   0.000914  -0.000925
     30      -0.079142  -0.704580   0.013127   0.015734  -0.001054  -0.000070
     31       0.034031   0.392800  -0.006139  -0.010222   0.000501  -0.000156
     32      -0.029266  -0.393087   0.007793   0.007980  -0.000612  -0.000132
     33       0.579577  -0.281214   0.011080   0.001903   0.000075  -0.000611
     34       0.400134  -0.202559   0.009625   0.000606  -0.000266  -0.000476
     35      -0.097323   0.062464  -0.001894  -0.000691   0.000016  -0.000002
     36      -0.003641   0.013860   0.642388   0.002990  -0.075172  -0.041868
     37      -0.002707   0.010469   0.422543   0.001895  -0.052303  -0.029973
     38      -0.002239   0.013623   0.617881   0.001992  -0.073192  -0.042140
     39       0.000223  -0.001478  -0.112499   0.004771  -0.614100  -0.549403
     40      -0.000195   0.000847   0.059229  -0.002664   0.339436   0.300576
     41       0.000114  -0.000528  -0.042239   0.001943  -0.221376  -0.199800
     42      -0.000003   0.000024  -0.000084  -0.000623  -0.000416   0.000435
     43       0.000021  -0.000004  -0.000028   0.000979   0.000526  -0.000508
     44       0.000020   0.000047  -0.000076  -0.000457   0.000365  -0.000306
     45       0.000003  -0.000005   0.000017   0.000100   0.000309  -0.000322
     46       0.000011  -0.000015   0.000013  -0.000079  -0.000245   0.000239
     47       0.000004  -0.000025   0.000026   0.000156   0.000139  -0.000162
     48      -0.000005  -0.000008   0.000019   0.000196  -0.000000  -0.000021
     49       0.000000   0.000009  -0.000006  -0.000583  -0.000023   0.000023
     50      -0.000002  -0.000016   0.000011  -0.000245  -0.000099   0.000057
     51       0.000044   0.000523  -0.002535   0.005474  -0.004439   0.006514
     52      -0.000276  -0.000069  -0.001684   0.005270  -0.002253   0.004056
     53      -0.000006  -0.000243   0.001049  -0.001732   0.001309  -0.001893


-----------
IR SPECTRUM
-----------

 Mode    freq (cm**-1)   T**2         TX         TY         TZ
-------------------------------------------------------------------
   6:        48.59    0.176425  (  0.158907   0.381885  -0.073059)
   7:        84.49    2.255222  ( -0.441845  -0.815923  -1.180790)
   8:       105.41    5.167348  ( -1.616890  -1.184212  -1.072687)
   9:       164.55    2.762048  (  1.198072  -1.138268   0.176122)
  10:       227.51    0.911730  (  0.445150  -0.637141   0.554637)
  11:       311.26    9.649301  ( -0.558618  -0.932400  -2.909962)
  12:       353.63    4.943222  (  0.918825  -0.164538   2.017897)
  13:       375.26    4.273655  (  1.061534   0.030055   1.773668)
  14:       457.51   10.255728  ( -1.999177  -2.500407   0.083562)
  15:       470.35    2.493911  (  1.016012  -1.090046  -0.522907)
  16:       523.70    1.398115  (  0.642385  -0.529059  -0.839972)
  17:       590.47    8.281215  ( -1.013534  -1.013154  -2.495493)
  18:       644.34    2.507340  (  0.803834  -0.612919   1.218820)
  19:       691.07   59.119520  ( -2.028993  -1.373135   7.288155)
  20:       796.98    7.288393  ( -0.069108   2.467441   1.093321)
  21:       816.34   28.715054  ( -0.969539  -0.694706  -5.224216)
  22:       840.88  259.952201  ( -6.909203  -4.069411 -13.987674)
  23:       884.59    7.718977  (  0.935937  -0.030601  -2.615734)
  24:       934.81   26.187371  ( -2.314386  -2.382764  -3.892740)
  25:       988.28    1.357092  (  1.155207   0.036114  -0.145894)
  26:      1008.06    9.286811  ( -1.787207   2.240815   1.035110)
  27:      1026.66   27.007129  ( -1.545984  -1.708576  -4.658093)
  28:      1040.65    8.529448  (  2.882395   0.401141   0.245625)
  29:      1062.48    9.158105  ( -0.175789  -2.869199  -0.945991)
  30:      1065.79   44.256386  ( -2.570763  -1.130851  -6.030650)
  31:      1077.97   49.707122  (  3.518128   2.050437   5.755485)
  32:      1119.32    7.347494  ( -1.943000   1.886136  -0.121400)
  33:      1187.45   13.785517  (  1.468703   2.158094   2.640276)
  34:      1216.46   16.467143  (  2.587451   0.151313   3.122394)
  35:      1305.25    4.972544  ( -0.023137   1.971003   1.042667)
  36:      1367.25   15.479463  (  1.966794  -2.711794  -2.063337)
  37:      1400.72    6.837207  (  1.030573  -1.404953   1.949676)
  38:      1402.98  176.390187  (  4.552583   3.534151  11.965532)
  39:      1434.04   44.190499  (  3.570821   0.104729   5.606137)
  40:      1450.53   15.080528  (  3.138757   1.602136  -1.631532)
  41:      1461.82   86.073960  (  4.861202   2.341365   7.547230)
  42:      1502.06  130.367988  ( -5.745587   9.749120   1.520155)
  43:      1588.90   46.272105  ( -0.833584   6.306500   2.409419)
  44:      1645.03   46.374984  (  5.765657   1.217310   3.413260)
  45:      1790.59  245.395832  ( -8.640736  13.058208   0.465544)
  46:      2918.35   69.510953  ( -6.480730  -4.729286   2.268248)
  47:      3042.16    0.765522  (  0.400752   0.483042   0.609582)
  48:      3117.24    0.142321  (  0.165757  -0.239488  -0.239772)
  49:      3157.41    0.907857  (  0.203896  -0.851025  -0.376881)
  50:      3181.29    2.597644  (  1.103772   0.529772   1.048176)
  51:      3209.20   19.956265  (  3.646245  -1.721722   1.922716)
  52:      3212.79   13.905073  ( -1.369089  -2.552128  -2.348895)
  53:      3223.55   21.900876  ( -2.104080   4.073474   0.938366)

The first frequency considered to be a vibration is 6
The total number of vibrations considered is 48


--------------------------
THERMOCHEMISTRY AT 298.15K
--------------------------

Temperature         ... 298.15 K
Pressure            ... 1.00 atm
Total Mass          ... 138.15 AMU

Throughout the following assumptions are being made:
  (1) The electronic state is orbitally nondegenerate
  (2) There are no thermally accessible electronically excited states
  (3) Hindered rotations indicated by low frequency modes are not
      treated as such but are treated as vibrations and this may
      cause some error
  (4) All equations used are the standard statistical mechanics
      equations for an ideal gas
  (5) All vibrations are strictly harmonic

freq.      48.59  E(vib)   ...       0.53 
freq.      84.49  E(vib)   ...       0.48 
freq.     105.41  E(vib)   ...       0.45 
freq.     164.55  E(vib)   ...       0.39 
freq.     227.51  E(vib)   ...       0.33 
freq.     311.26  E(vib)   ...       0.25 
freq.     353.63  E(vib)   ...       0.22 
freq.     375.26  E(vib)   ...       0.21 
freq.     457.51  E(vib)   ...       0.16 
freq.     470.35  E(vib)   ...       0.15 
freq.     523.70  E(vib)   ...       0.13 
freq.     590.47  E(vib)   ...       0.10 
freq.     644.34  E(vib)   ...       0.09 
freq.     691.07  E(vib)   ...       0.07 
freq.     796.98  E(vib)   ...       0.05 
freq.     816.34  E(vib)   ...       0.05 
freq.     840.88  E(vib)   ...       0.04 
freq.     884.59  E(vib)   ...       0.04 
freq.     934.81  E(vib)   ...       0.03 
freq.     988.28  E(vib)   ...       0.02 
freq.    1008.06  E(vib)   ...       0.02 
freq.    1026.66  E(vib)   ...       0.02 
freq.    1040.65  E(vib)   ...       0.02 
freq.    1062.48  E(vib)   ...       0.02 
freq.    1065.79  E(vib)   ...       0.02 
freq.    1077.97  E(vib)   ...       0.02 
freq.    1119.32  E(vib)   ...       0.01 
freq.    1187.45  E(vib)   ...       0.01 
freq.    1216.46  E(vib)   ...       0.01 
freq.    1305.25  E(vib)   ...       0.01 
freq.    1367.25  E(vib)   ...       0.01 
freq.    1400.72  E(vib)   ...       0.00 
freq.    1402.98  E(vib)   ...       0.00 
freq.    1434.04  E(vib)   ...       0.00 
freq.    1450.53  E(vib)   ...       0.00 
freq.    1461.82  E(vib)   ...       0.00 
freq.    1502.06  E(vib)   ...       0.00 
freq.    1588.90  E(vib)   ...       0.00 
freq.    1645.03  E(vib)   ...       0.00 
freq.    1790.59  E(vib)   ...       0.00 
freq.    2918.35  E(vib)   ...       0.00 
freq.    3042.16  E(vib)   ...       0.00 
freq.    3117.24  E(vib)   ...       0.00 
freq.    3157.41  E(vib)   ...       0.00 
freq.    3181.29  E(vib)   ...       0.00 
freq.    3209.20  E(vib)   ...       0.00 
freq.    3212.79  E(vib)   ...       0.00 
freq.    3223.55  E(vib)   ...       0.00 

------------
INNER ENERGY
------------

The inner energy is: U= E(el) + E(ZPE) + E(vib) + E(rot) + E(trans)
    E(el)   - is the total energy from the electronic structure calculation
              = E(kin-el) + E(nuc-el) + E(el-el) + E(nuc-nuc)
    E(ZPE)  - the the zero temperature vibrational energy from the frequency calculation
    E(vib)  - the the finite temperature correction to E(ZPE) due to population
              of excited vibrational states
    E(rot)  - is the rotational thermal energy
    E(trans)- is the translational thermal energy

Summary of contributions to the inner energy U:
Electronic energy                ...   -475.75341699 Eh
Zero point energy                ...      0.14016650 Eh      87.96 kcal/mol
Thermal vibrational correction   ...      0.00636251 Eh       3.99 kcal/mol
Thermal rotational correction    ...      0.00141627 Eh       0.89 kcal/mol
Thermal translational correction ...      0.00141627 Eh       0.89 kcal/mol
-----------------------------------------------------------------------
Total thermal energy                   -475.60405543 Eh


Summary of corrections to the electronic energy:
(perhaps to be used in another calculation)
Total thermal correction                  0.00919506 Eh       5.77 kcal/mol
Non-thermal (ZPE) correction              0.14016650 Eh      87.96 kcal/mol
-----------------------------------------------------------------------
Total correction                          0.14936155 Eh      93.73 kcal/mol


--------
ENTHALPY
--------

The enthalpy is H = U + kB*T
                kB is Boltzmann's constant
Total free energy                 ...   -475.60405543 Eh 
Thermal Enthalpy correction       ...      0.00094421 Eh       0.59 kcal/mol
-----------------------------------------------------------------------
Total Enthalpy                    ...   -475.60311122 Eh


Note: Only C1 symmetry has been detected, increase convergence thresholds 
      if your molecule has a higher symmetry. Symmetry factor of 1.0 is   
      used for the rotational entropy correction. 
 

Note: Rotational entropy computed according to Herzberg 
Infrared and Raman Spectra, Chapter V,1, Van Nostrand Reinhold, 1945 
Point Group:  C1, Symmetry Number:   1  
Rotational constants in cm-1:     0.082848     0.032652     0.024181 

Vibrational entropy computed according to the QRRHO of S. Grimme
Chem.Eur.J. 2012 18 9955


-------
ENTROPY
-------

The entropy contributions are T*S = T*(S(el)+S(vib)+S(rot)+S(trans))
     S(el)   - electronic entropy
     S(vib)  - vibrational entropy
     S(rot)  - rotational entropy
     S(trans)- translational entropy
The entropies will be listed as mutliplied by the temperature to get
units of energy

Electronic entropy                ...      0.00000000 Eh      0.00 kcal/mol
Vibrational entropy               ...      0.01091620 Eh      6.85 kcal/mol
Rotational entropy                ...      0.01405930 Eh      8.82 kcal/mol
Translational entropy             ...      0.01932890 Eh     12.13 kcal/mol
-----------------------------------------------------------------------
Final entropy term                ...      0.04430440 Eh     27.80 kcal/mol

In case the symmetry of your molecule has not been determined correctly
or in case you have a reason to use a different symmetry number we print 
out the resulting rotational entropy values for sn=1,12 :
 --------------------------------------------------------
|  sn= 1 | S(rot)=       0.01405930 Eh      8.82 kcal/mol|
|  sn= 2 | S(rot)=       0.01340485 Eh      8.41 kcal/mol|
|  sn= 3 | S(rot)=       0.01302201 Eh      8.17 kcal/mol|
|  sn= 4 | S(rot)=       0.01275039 Eh      8.00 kcal/mol|
|  sn= 5 | S(rot)=       0.01253970 Eh      7.87 kcal/mol|
|  sn= 6 | S(rot)=       0.01236756 Eh      7.76 kcal/mol|
|  sn= 7 | S(rot)=       0.01222201 Eh      7.67 kcal/mol|
|  sn= 8 | S(rot)=       0.01209593 Eh      7.59 kcal/mol|
|  sn= 9 | S(rot)=       0.01198473 Eh      7.52 kcal/mol|
|  sn=10 | S(rot)=       0.01188525 Eh      7.46 kcal/mol|
|  sn=11 | S(rot)=       0.01179526 Eh      7.40 kcal/mol|
|  sn=12 | S(rot)=       0.01171310 Eh      7.35 kcal/mol|
 --------------------------------------------------------


-------------------
GIBBS FREE ENERGY
-------------------

The Gibbs free energy is G = H - T*S

Total enthalpy                    ...   -475.60311122 Eh 
Total entropy correction          ...     -0.04430440 Eh    -27.80 kcal/mol
-----------------------------------------------------------------------
Final Gibbs free energy         ...   -475.64741562 Eh

For completeness - the Gibbs free energy minus the electronic energy
G-E(el)                           ...      0.10600136 Eh     66.52 kcal/mol


Timings for individual modules:

Sum of individual times         ...    10268.773 sec (= 171.146 min)
GTO integral calculation        ...        6.288 sec (=   0.105 min)   0.1 %
SCF iterations                  ...     1313.140 sec (=  21.886 min)  12.8 %
SCF Gradient evaluation         ...      520.902 sec (=   8.682 min)   5.1 %
Geometry relaxation             ...        2.447 sec (=   0.041 min)   0.0 %
Analytical frequency calculation...     8425.996 sec (= 140.433 min)  82.1 %
                             ****ORCA TERMINATED NORMALLY****
TOTAL RUN TIME: 0 days 2 hours 51 minutes 15 seconds 148 msec
