
                                 *****************
                                 * O   R   C   A *
                                 *****************

                                            #,                                       
                                            ###                                      
                                            ####                                     
                                            #####                                    
                                            ######                                   
                                           ########,                                 
                                     ,,################,,,,,                         
                               ,,#################################,,                 
                          ,,##########################################,,             
                       ,#########################################, ''#####,          
                    ,#############################################,,   '####,        
                  ,##################################################,,,,####,       
                ,###########''''           ''''###############################       
              ,#####''   ,,,,##########,,,,          '''####'''          '####       
            ,##' ,,,,###########################,,,                        '##       
           ' ,,###''''                  '''############,,,                           
         ,,##''                                '''############,,,,        ,,,,,,###''
      ,#''                                            '''#######################'''  
     '                                                          ''''####''''         
             ,#######,   #######,   ,#######,      ##                                
            ,#'     '#,  ##    ##  ,#'     '#,    #''#        ######   ,####,        
            ##       ##  ##   ,#'  ##            #'  '#       #        #'  '#        
            ##       ##  #######   ##           ,######,      #####,   #    #        
            '#,     ,#'  ##    ##  '#,     ,#' ,#      #,         ##   #,  ,#        
             '#######'   ##     ##  '#######'  #'      '#     #####' # '####'        



                  #######################################################
                  #                        -***-                        #
                  #          Department of theory and spectroscopy      #
                  #    Directorship and core code : Frank Neese         #
                  #        Max Planck Institute fuer Kohlenforschung    #
                  #                Kaiser Wilhelm Platz 1               #
                  #                 D-45470 Muelheim/Ruhr               #
                  #                      Germany                        #
                  #                                                     #
                  #                  All rights reserved                #
                  #                        -***-                        #
                  #######################################################



                         Program Version 5.0.4 -  RELEASE  -

 With contributions from (in alphabetic order):
   Daniel Aravena         : Magnetic Suceptibility
   Michael Atanasov       : Ab Initio Ligand Field Theory (pilot matlab implementation)
   Alexander A. Auer      : GIAO ZORA, VPT2 properties, NMR spectrum
   Ute Becker             : Parallelization
   Giovanni Bistoni       : ED, misc. LED, open-shell LED, HFLD
   Martin Brehm           : Molecular dynamics
   Dmytro Bykov           : SCF Hessian
   Vijay G. Chilkuri      : MRCI spin determinant printing, contributions to CSF-ICE
   Dipayan Datta          : RHF DLPNO-CCSD density
   Achintya Kumar Dutta   : EOM-CC, STEOM-CC
   Dmitry Ganyushin       : Spin-Orbit,Spin-Spin,Magnetic field MRCI
   Miquel Garcia          : C-PCM and meta-GGA Hessian, CC/C-PCM, Gaussian charge scheme
   Yang Guo               : DLPNO-NEVPT2, F12-NEVPT2, CIM, IAO-localization
   Andreas Hansen         : Spin unrestricted coupled pair/coupled cluster methods
   Benjamin Helmich-Paris : MC-RPA, TRAH-SCF, COSX integrals
   Lee Huntington         : MR-EOM, pCC
   Robert Izsak           : Overlap fitted RIJCOSX, COSX-SCS-MP3, EOM
   Marcus Kettner         : VPT2
   Christian Kollmar      : KDIIS, OOCD, Brueckner-CCSD(T), CCSD density, CASPT2, CASPT2-K
   Simone Kossmann        : Meta GGA functionals, TD-DFT gradient, OOMP2, MP2 Hessian
   Martin Krupicka        : Initial AUTO-CI
   Lucas Lang             : DCDCAS
   Marvin Lechner         : AUTO-CI (C++ implementation), FIC-MRCC
   Dagmar Lenk            : GEPOL surface, SMD
   Dimitrios Liakos       : Extrapolation schemes; Compound Job, initial MDCI parallelization
   Dimitrios Manganas     : Further ROCIS development; embedding schemes
   Dimitrios Pantazis     : SARC Basis sets
   Anastasios Papadopoulos: AUTO-CI, single reference methods and gradients
   Taras Petrenko         : DFT Hessian,TD-DFT gradient, ASA, ECA, R-Raman, ABS, FL, XAS/XES, NRVS
   Peter Pinski           : DLPNO-MP2, DLPNO-MP2 Gradient
   Christoph Reimann      : Effective Core Potentials
   Marius Retegan         : Local ZFS, SOC
   Christoph Riplinger    : Optimizer, TS searches, QM/MM, DLPNO-CCSD(T), (RO)-DLPNO pert. Triples
   Tobias Risthaus        : Range-separated hybrids, TD-DFT gradient, RPA, STAB
   Michael Roemelt        : Original ROCIS implementation
   Masaaki Saitow         : Open-shell DLPNO-CCSD energy and density
   Barbara Sandhoefer     : DKH picture change effects
   Avijit Sen             : IP-ROCIS
   Kantharuban Sivalingam : CASSCF convergence, NEVPT2, FIC-MRCI
   Bernardo de Souza      : ESD, SOC TD-DFT
   Georgi Stoychev        : AutoAux, RI-MP2 NMR, DLPNO-MP2 response
   Willem Van den Heuvel  : Paramagnetic NMR
   Boris Wezisla          : Elementary symmetry handling
   Frank Wennmohs         : Technical directorship


 We gratefully acknowledge several colleagues who have allowed us to
 interface, adapt or use parts of their codes:
   Stefan Grimme, W. Hujo, H. Kruse, P. Pracht,  : VdW corrections, initial TS optimization,
                  C. Bannwarth, S. Ehlert          DFT functionals, gCP, sTDA/sTD-DF
   Ed Valeev, F. Pavosevic, A. Kumar             : LibInt (2-el integral package), F12 methods
   Garnet Chan, S. Sharma, J. Yang, R. Olivares  : DMRG
   Ulf Ekstrom                                   : XCFun DFT Library
   Mihaly Kallay                                 : mrcc  (arbitrary order and MRCC methods)
   Jiri Pittner, Ondrej Demel                    : Mk-CCSD
   Frank Weinhold                                : gennbo (NPA and NBO analysis)
   Christopher J. Cramer and Donald G. Truhlar   : smd solvation model
   Lars Goerigk                                  : TD-DFT with DH, B97 family of functionals
   V. Asgeirsson, H. Jonsson                     : NEB implementation
   FAccTs GmbH                                   : IRC, NEB, NEB-TS, DLPNO-Multilevel, CI-OPT
                                                   MM, QMMM, 2- and 3-layer-ONIOM, Crystal-QMMM,
                                                   LR-CPCM, SF, NACMEs, symmetry and pop. for TD-DFT,
                                                   nearIR, NL-DFT gradient (VV10), updates on ESD,
                                                   ML-optimized integration grids
   S Lehtola, MJT Oliveira, MAL Marques          : LibXC Library
   Liviu Ungur et al                             : ANISO software


 Your calculation uses the libint2 library for the computation of 2-el integrals
 For citations please refer to: http://libint.valeyev.net

 Your ORCA version has been built with support for libXC version: 5.1.0
 For citations please refer to: https://tddft.org/programs/libxc/

 This ORCA versions uses:
   CBLAS   interface :  Fast vector & matrix operations
   LAPACKE interface :  Fast linear algebra routines
   Shared memory     :  Shared parallel matrices


Your calculation utilizes the atom-pairwise dispersion correction
based on tight binding partial charges (D4)
Cite in your paper:
E.Caldeweyher, C.Bannwarth, S.Grimme, J.Chem.Phys., (2017), 147, 034112.
E.Caldeweyher, S.Ehlert, A.Hansen, H.Neugebauer, S.Grimme, J.Chem.Phys., (2018), in progress.
   

================================================================================

----- Orbital basis set information -----
Your calculation utilizes the basis: def2-SVP
   F. Weigend and R. Ahlrichs, Phys. Chem. Chem. Phys. 7, 3297 (2005).

----- AuxJ basis set information -----
Your calculation utilizes the auxiliary basis: def2/J
   F. Weigend, Phys. Chem. Chem. Phys. 8, 1057 (2006).

================================================================================
                                        WARNINGS
                       Please study these warnings very carefully!
================================================================================


WARNING: Geometry Optimization
  ===> : Switching off AutoStart
         For restart on a previous wavefunction, please use MOREAD

INFO   : the flag for use of the SHARK integral package has been found!

================================================================================
                                       INPUT FILE
================================================================================
NAME = benzen_nitrodioxid_opt.inp
|  1> !B3LYP DEF2-SVP OPT D4
|  2> 
|  3> * xyz 1 1
|  4>    H        0.93448       -2.33974        0.00192
|  5>    C        0.51939       -1.33490       -0.01023
|  6>    C       -0.80195       -1.12171        0.37987
|  7>    H       -1.41746       -1.96034        0.69623
|  8>    C       -1.33415        0.16675        0.36384
|  9>    H       -2.36493        0.33286        0.66746
| 10>    C       -0.54464        1.24208       -0.04139
| 11>    H       -0.95997        2.24687       -0.05361
| 12>    C        0.77696        1.02892       -0.43123
| 13>    H        1.39277        1.86746       -0.74725
| 14>    C        1.30846       -0.25984       -0.41646
| 15>    H        2.33795       -0.42732       -0.72230
| 16>    N        5.25622        1.09520       -1.10837
| 17>    O        6.42862        1.38835       -1.08164
| 18>    O        4.74995        0.88664       -0.03026
| 19> **                         ****END OF INPUT****
================================================================================

                       *****************************
                       * Geometry Optimization Run *
                       *****************************

Geometry optimization settings:
Update method            Update   .... BFGS
Choice of coordinates    CoordSys .... Z-matrix Internals
Initial Hessian          InHess   .... Almoef's Model

Convergence Tolerances:
Energy Change            TolE     ....  5.0000e-06 Eh
Max. Gradient            TolMAXG  ....  3.0000e-04 Eh/bohr
RMS Gradient             TolRMSG  ....  1.0000e-04 Eh/bohr
Max. Displacement        TolMAXD  ....  4.0000e-03 bohr
RMS Displacement         TolRMSD  ....  2.0000e-03 bohr
Strict Convergence                ....  False
------------------------------------------------------------------------------
                        ORCA OPTIMIZATION COORDINATE SETUP
------------------------------------------------------------------------------

The optimization will be done in new redundant internal coordinates
Making redundant internal coordinates   ...  (new redundants) done
Evaluating the initial hessian          ...  (Almloef) done
Evaluating the coordinates              ...  done
Calculating the B-matrix                .... done
Calculating the G-matrix                .... done
Diagonalizing the G-matrix              .... done
The first mode is                       ....   34
The number of degrees of freedom        ....   39

    -----------------------------------------------------------------
                    Redundant Internal Coordinates


    -----------------------------------------------------------------
         Definition                    Initial Value    Approx d2E/dq
    -----------------------------------------------------------------
      1. B(C   1,H   0)                  1.0873         0.363733   
      2. B(C   2,C   1)                  1.3941         0.615414   
      3. B(H   3,C   2)                  1.0873         0.363680   
      4. B(C   4,C   2)                  1.3941         0.615369   
      5. B(H   5,C   4)                  1.0873         0.363650   
      6. B(C   6,C   4)                  1.3942         0.615167   
      7. B(H   7,C   6)                  1.0873         0.363671   
      8. B(C   8,C   6)                  1.3943         0.615031   
      9. B(H   9,C   8)                  1.0873         0.363678   
     10. B(C  10,C   8)                  1.3941         0.615377   
     11. B(C  10,C   1)                  1.3941         0.615543   
     12. B(H  11,C  10)                  1.0869         0.364172   
     13. B(N  12,H  11)                  3.3141         0.000091   
     14. B(O  13,N  12)                  1.2088         0.975262   
     15. B(O  14,H   9)                  3.5703         0.000036   
     16. B(O  14,N  12)                  1.2092         0.973849   
     17. B(O  14,H  11)                  2.8325         0.000535   
     18. B(O  14,C  10)                  3.6479         0.000140   
     19. A(C   2,C   1,C  10)          120.0056         0.432925   
     20. A(H   0,C   1,C   2)          120.0029         0.353065   
     21. A(H   0,C   1,C  10)          119.9915         0.353078   
     22. A(C   1,C   2,C   4)          119.9950         0.432903   
     23. A(H   3,C   2,C   4)          120.0048         0.353052   
     24. A(C   1,C   2,H   3)          120.0002         0.353056   
     25. A(H   5,C   4,C   6)          120.0101         0.353028   
     26. A(C   2,C   4,C   6)          119.9988         0.432871   
     27. A(C   2,C   4,H   5)          119.9911         0.353047   
     28. A(H   7,C   6,C   8)          120.0132         0.353018   
     29. A(C   4,C   6,C   8)          120.0067         0.432829   
     30. A(C   4,C   6,H   7)          119.9801         0.353031   
     31. A(H   9,C   8,C  10)          120.0050         0.353052   
     32. A(C   6,C   8,C  10)          119.9820         0.432855   
     33. A(C   6,C   8,H   9)          120.0130         0.353019   
     34. A(H  11,C  10,O  14)           35.3800         0.128223   
     35. A(C   8,C  10,O  14)           94.0289         0.140068   
     36. A(C   1,C  10,O  14)          138.2025         0.140071   
     37. A(C   8,C  10,H  11)          120.0362         0.353134   
     38. A(C   1,C  10,H  11)          119.9520         0.353150   
     39. A(C   1,C  10,C   8)          120.0119         0.432920   
     40. A(O  13,N  12,O  14)          115.3531         0.498559   
     41. A(C  10,O  14,N  12)          110.7817         0.144721   
     42. D(C   4,C   2,C   1,H   0)   -179.9805         0.026184   
     43. D(C   4,C   2,C   1,C  10)     -0.0068         0.026184   
     44. D(H   3,C   2,C   1,C  10)    179.9700         0.026184   
     45. D(H   3,C   2,C   1,H   0)     -0.0037         0.026184   
     46. D(H   5,C   4,C   2,H   3)     -0.0185         0.026180   
     47. D(H   5,C   4,C   2,C   1)    179.9583         0.026180   
     48. D(C   6,C   4,C   2,C   1)     -0.0460         0.026180   
     49. D(C   6,C   4,C   2,H   3)    179.9772         0.026180   
     50. D(C   8,C   6,C   4,H   5)   -179.9738         0.026162   
     51. D(C   8,C   6,C   4,C   2)      0.0304         0.026162   
     52. D(H   7,C   6,C   4,H   5)      0.0064         0.026162   
     53. D(H   7,C   6,C   4,C   2)   -179.9893         0.026162   
     54. D(C  10,C   8,C   6,C   4)      0.0379         0.026150   
     55. D(H   9,C   8,C   6,H   7)      0.0213         0.026150   
     56. D(H   9,C   8,C   6,C   4)   -179.9985         0.026150   
     57. D(C  10,C   8,C   6,H   7)   -179.9423         0.026150   
     58. D(O  14,C  10,C   8,H   9)     25.2896         0.028447   
     59. D(H  11,C  10,C   8,H   9)     -0.0998         0.028447   
     60. D(H  11,C  10,C   8,C   6)    179.8637         0.028447   
     61. D(C   1,C  10,C   8,H   9)    179.9457         0.028447   
     62. D(C   1,C  10,C   8,C   6)     -0.0907         0.028447   
     63. D(O  14,C  10,C   1,C   2)    140.2350         0.028464   
     64. D(O  14,C  10,C   1,H   0)    -39.7913         0.028464   
     65. D(H  11,C  10,C   1,C   2)   -179.8793         0.028464   
     66. D(H  11,C  10,C   1,H   0)      0.0944         0.028464   
     67. D(O  14,C  10,C   8,C   6)   -154.7469         0.028447   
     68. D(C   8,C  10,C   1,C   2)      0.0752         0.028464   
     69. D(C   8,C  10,C   1,H   0)   -179.9511         0.028464   
     70. D(N  12,O  14,C  10,H  11)     52.2283         0.001500   
     71. D(N  12,O  14,C  10,C   8)    -87.8986         0.001500   
     72. D(N  12,O  14,C  10,C   1)    125.8897         0.001500   
     73. D(C  10,O  14,N  12,O  13)   -174.9712         0.110911   
    -----------------------------------------------------------------

Number of atoms                         .... 15
Number of degrees of freedom            .... 73

         *************************************************************
         *                GEOMETRY OPTIMIZATION CYCLE   1            *
         *************************************************************
---------------------------------
CARTESIAN COORDINATES (ANGSTROEM)
---------------------------------
  H      0.934480   -2.339740    0.001920
  C      0.519390   -1.334900   -0.010230
  C     -0.801950   -1.121710    0.379870
  H     -1.417460   -1.960340    0.696230
  C     -1.334150    0.166750    0.363840
  H     -2.364930    0.332860    0.667460
  C     -0.544640    1.242080   -0.041390
  H     -0.959970    2.246870   -0.053610
  C      0.776960    1.028920   -0.431230
  H      1.392770    1.867460   -0.747250
  C      1.308460   -0.259840   -0.416460
  H      2.337950   -0.427320   -0.722300
  N      5.256220    1.095200   -1.108370
  O      6.428620    1.388350   -1.081640
  O      4.749950    0.886640   -0.030260

----------------------------
CARTESIAN COORDINATES (A.U.)
----------------------------
  NO LB      ZA    FRAG     MASS         X           Y           Z
   0 H     1.0000    0     1.008    1.765911   -4.421468    0.003628
   1 C     6.0000    0    12.011    0.981505   -2.522595   -0.019332
   2 C     6.0000    0    12.011   -1.515466   -2.119725    0.717850
   3 H     1.0000    0     1.008   -2.678611   -3.704506    1.315684
   4 C     6.0000    0    12.011   -2.521178    0.315112    0.687558
   5 H     1.0000    0     1.008   -4.469070    0.629014    1.261317
   6 C     6.0000    0    12.011   -1.029220    2.347191   -0.078216
   7 H     1.0000    0     1.008   -1.814080    4.245969   -0.101308
   8 C     6.0000    0    12.011    1.468242    1.944377   -0.814907
   9 H     1.0000    0     1.008    2.631954    3.528988   -1.412098
  10 C     6.0000    0    12.011    2.472631   -0.491026   -0.786995
  11 H     1.0000    0     1.008    4.418085   -0.807518   -1.364949
  12 N     7.0000    0    14.007    9.932816    2.069628   -2.094516
  13 O     8.0000    0    15.999   12.148331    2.623601   -2.044003
  14 O     8.0000    0    15.999    8.976105    1.675507   -0.057183

--------------------------------
INTERNAL COORDINATES (ANGSTROEM)
--------------------------------
 H      0   0   0     0.000000000000     0.00000000     0.00000000
 C      1   0   0     1.087267564218     0.00000000     0.00000000
 C      2   1   0     1.394118854940   120.00292612     0.00000000
 H      3   2   1     1.087306988205   120.00021400     0.00000000
 C      3   2   1     1.394138792409   119.99499778   180.01946286
 H      5   3   2     1.087329317594   119.99110518   179.95826946
 C      5   3   2     1.394228102536   119.99879391   359.95401948
 H      7   5   3     1.087313791598   119.98009392   180.01065221
 C      7   5   3     1.394287980010   120.00667738     0.03043644
 H      9   7   5     1.087308570784   120.01300175   180.00148044
 C      2   1   3     1.394061792533   119.99148157   180.02629289
 H     11   2   1     1.086939426141   119.95196786     0.09440563
 N     12  11   2     3.314123864342   142.75036953   201.12213485
 O     13  12  11     1.208789963310   164.34059020   131.65185132
 O     13  12  11     1.209184749573    56.51080829    68.91102242

---------------------------
INTERNAL COORDINATES (A.U.)
---------------------------
 H      0   0   0     0.000000000000     0.00000000     0.00000000
 C      1   0   0     2.054637930667     0.00000000     0.00000000
 C      2   1   0     2.634502833973   120.00292612     0.00000000
 H      3   2   1     2.054712431207   120.00021400     0.00000000
 C      3   2   1     2.634540510329   119.99499778   180.01946286
 H      5   3   2     2.054754627637   119.99110518   179.95826946
 C      5   3   2     2.634709282009   119.99879391   359.95401948
 H      7   5   3     2.054725287756   119.98009392   180.01065221
 C      7   5   3     2.634822434037   120.00667738     0.03043644
 H      9   7   5     2.054715421847   120.01300175   180.00148044
 C      2   1   3     2.634395001650   119.99148157   180.02629289
 H     11   2   1     2.054017839568   119.95196786     0.09440563
 N     12  11   2     6.262786477499   142.75036953   201.12213485
 O     13  12  11     2.284281984089   164.34059020   131.65185132
 O     13  12  11     2.285028022007    56.51080829    68.91102242

---------------------
BASIS SET INFORMATION
---------------------
There are 4 groups of distinct atoms

 Group   1 Type H   : 4s1p contracted to 2s1p pattern {31/1}
 Group   2 Type C   : 7s4p1d contracted to 3s2p1d pattern {511/31/1}
 Group   3 Type N   : 7s4p1d contracted to 3s2p1d pattern {511/31/1}
 Group   4 Type O   : 7s4p1d contracted to 3s2p1d pattern {511/31/1}

Atom   0H    basis set group =>   1
Atom   1C    basis set group =>   2
Atom   2C    basis set group =>   2
Atom   3H    basis set group =>   1
Atom   4C    basis set group =>   2
Atom   5H    basis set group =>   1
Atom   6C    basis set group =>   2
Atom   7H    basis set group =>   1
Atom   8C    basis set group =>   2
Atom   9H    basis set group =>   1
Atom  10C    basis set group =>   2
Atom  11H    basis set group =>   1
Atom  12N    basis set group =>   3
Atom  13O    basis set group =>   4
Atom  14O    basis set group =>   4
---------------------------------
AUXILIARY/J BASIS SET INFORMATION
---------------------------------
There are 4 groups of distinct atoms

 Group   1 Type H   : 5s2p1d contracted to 3s1p1d pattern {311/2/1}
 Group   2 Type C   : 12s5p4d2f1g contracted to 6s4p3d1f1g pattern {711111/2111/211/2/1}
 Group   3 Type N   : 12s5p4d2f1g contracted to 6s4p3d1f1g pattern {711111/2111/211/2/1}
 Group   4 Type O   : 12s5p4d2f1g contracted to 6s4p3d1f1g pattern {711111/2111/211/2/1}

Atom   0H    basis set group =>   1
Atom   1C    basis set group =>   2
Atom   2C    basis set group =>   2
Atom   3H    basis set group =>   1
Atom   4C    basis set group =>   2
Atom   5H    basis set group =>   1
Atom   6C    basis set group =>   2
Atom   7H    basis set group =>   1
Atom   8C    basis set group =>   2
Atom   9H    basis set group =>   1
Atom  10C    basis set group =>   2
Atom  11H    basis set group =>   1
Atom  12N    basis set group =>   3
Atom  13O    basis set group =>   4
Atom  14O    basis set group =>   4
------------------------------------------------------------------------------
                           ORCA GTO INTEGRAL CALCULATION
                           -- RI-GTO INTEGRALS CHOSEN --
------------------------------------------------------------------------------
------------------------------------------------------------------------------
                   ___                                                        
                  /   \      - P O W E R E D   B Y -                         
                 /     \                                                     
                 |  |  |   _    _      __       _____    __    __             
                 |  |  |  | |  | |    /  \     |  _  \  |  |  /  |          
                  \  \/   | |  | |   /    \    | | | |  |  | /  /          
                 / \  \   | |__| |  /  /\  \   | |_| |  |  |/  /          
                |  |  |   |  __  | /  /__\  \  |    /   |      \           
                |  |  |   | |  | | |   __   |  |    \   |  |\   \          
                \     /   | |  | | |  |  |  |  | |\  \  |  | \   \       
                 \___/    |_|  |_| |__|  |__|  |_| \__\ |__|  \__/        
                                                                              
                      - O R C A' S   B I G   F R I E N D -                    
                                      &                                       
                       - I N T E G R A L  F E E D E R -                       
                                                                              
 v1 FN, 2020, v2 2021                                                         
------------------------------------------------------------------------------


Reading SHARK input file benzen_nitrodioxid_opt.SHARKINP.tmp ... ok
----------------------
SHARK INTEGRAL PACKAGE
----------------------

Number of atoms                             ...     15
Number of basis functions                   ...    156
Number of shells                            ...     72
Maximum angular momentum                    ...      2
Integral batch strategy                     ... SHARK/LIBINT Hybrid
RI-J (if used) integral strategy            ... SPLIT-RIJ (Revised 2003 algorithm where possible)
Printlevel                                  ...      1
Contraction scheme used                     ... SEGMENTED contraction
Coulomb Range Separation                    ... NOT USED
Exchange Range Separation                   ... NOT USED
Finite Nucleus Model                        ... NOT USED
Auxiliary Coulomb fitting basis             ... AVAILABLE
   # of basis functions in Aux-J            ...    507
   # of shells in Aux-J                     ...    165
   Maximum angular momentum in Aux-J        ...      4
Auxiliary J/K fitting basis                 ... NOT available
Auxiliary Correlation fitting basis         ... NOT available
Auxiliary 'external' fitting basis          ... NOT available
Integral threshold                          ...     2.500000e-11
Primitive cut-off                           ...     2.500000e-12
Primitive pair pre-selection threshold      ...     2.500000e-12

Calculating pre-screening integrals         ... done (  0.0 sec) Dimension = 72
Organizing shell pair data                  ... done (  0.0 sec)
Shell pair information
Total number of shell pairs                 ...      2628
Shell pairs after pre-screening             ...      2176
Total number of primitive shell pairs       ...      9726
Primitive shell pairs kept                  ...      5769
          la=0 lb=0:    656 shell pairs
          la=1 lb=0:    791 shell pairs
          la=1 lb=1:    258 shell pairs
          la=2 lb=0:    270 shell pairs
          la=2 lb=1:    170 shell pairs
          la=2 lb=2:     31 shell pairs

Calculating one electron integrals          ... done (  0.0 sec)
Calculating RI/J V-Matrix + Cholesky decomp.... done (  0.0 sec)
Calculating Nuclear repulsion               ... done (  0.0 sec) ENN=    362.236004775984 Eh

SHARK setup successfully completed in   0.2 seconds

Maximum memory used throughout the entire GTOINT-calculation: 18.2 MB
-------------------------------------------------------------------------------
                                 ORCA SCF
-------------------------------------------------------------------------------

------------
SCF SETTINGS
------------
Hamiltonian:
 Density Functional     Method          .... DFT(GTOs)
 Exchange Functional    Exchange        .... B88
   X-Alpha parameter    XAlpha          ....  0.666667
   Becke's b parameter  XBeta           ....  0.004200
 Correlation Functional Correlation     .... LYP
 LDA part of GGA corr.  LDAOpt          .... VWN-5
 Gradients option       PostSCFGGA      .... off
 Hybrid DFT is turned on
   Fraction HF Exchange ScalHFX         ....  0.200000
   Scaling of DF-GGA-X  ScalDFX         ....  0.720000
   Scaling of DF-GGA-C  ScalDFC         ....  0.810000
   Scaling of DF-LDA-C  ScalLDAC        ....  1.000000
   Perturbative correction              ....  0.000000
   Density functional embedding theory  .... OFF
   NL short-range parameter             ....  4.800000
 RI-approximation to the Coulomb term is turned on
   Number of AuxJ basis functions       .... 507
   RIJ-COSX (HFX calculated with COS-X)).... on


General Settings:
 Integral files         IntName         .... benzen_nitrodioxid_opt
 Hartree-Fock type      HFTyp           .... RHF
 Total Charge           Charge          ....    1
 Multiplicity           Mult            ....    1
 Number of Electrons    NEL             ....   64
 Basis Dimension        Dim             ....  156
 Nuclear Repulsion      ENuc            ....    362.2360047760 Eh

Convergence Acceleration:
 DIIS                   CNVDIIS         .... on
   Start iteration      DIISMaxIt       ....    12
   Startup error        DIISStart       ....  0.200000
   # of expansion vecs  DIISMaxEq       ....     5
   Bias factor          DIISBfac        ....   1.050
   Max. coefficient     DIISMaxC        ....  10.000
 Trust-Rad. Augm. Hess. CNVTRAH         .... auto
   Auto Start mean grad. ratio tolernc. ....  1.125000
   Auto Start start iteration           ....    20
   Auto Start num. interpolation iter.  ....    10
   Max. Number of Micro iterations      ....    16
   Max. Number of Macro iterations      .... Maxiter - #DIIS iter
   Number of Davidson start vectors     ....     2
   Converg. threshold I  (grad. norm)   ....   1.000e-05
   Converg. threshold II (energy diff.) ....   1.000e-08
   Grad. Scal. Fac. for Micro threshold ....   0.100
   Minimum threshold for Micro iter.    ....   0.010
   NR start threshold (gradient norm)   ....   0.001
   Initial trust radius                 ....   0.400
   Minimum AH scaling param. (alpha)    ....   1.000
   Maximum AH scaling param. (alpha)    .... 1000.000
   Orbital update algorithm             .... Taylor
   White noise on init. David. guess    .... on
   Maximum white noise                  ....   0.010
   Quad. conv. algorithm                .... NR
 SOSCF                  CNVSOSCF        .... on
   Start iteration      SOSCFMaxIt      ....   150
   Startup grad/error   SOSCFStart      ....  0.003300
 Level Shifting         CNVShift        .... on
   Level shift para.    LevelShift      ....    0.2500
   Turn off err/grad.   ShiftErr        ....    0.0010
 Zerner damping         CNVZerner       .... off
 Static damping         CNVDamp         .... on
   Fraction old density DampFac         ....    0.7000
   Max. Damping (<1)    DampMax         ....    0.9800
   Min. Damping (>=0)   DampMin         ....    0.0000
   Turn off err/grad.   DampErr         ....    0.1000
 Fernandez-Rico         CNVRico         .... off

SCF Procedure:
 Maximum # iterations   MaxIter         ....   125
 SCF integral mode      SCFMode         .... Direct
   Integral package                     .... SHARK and LIBINT hybrid scheme
 Reset frequency        DirectResetFreq ....    20
 Integral Threshold     Thresh          ....  2.500e-11 Eh
 Primitive CutOff       TCut            ....  2.500e-12 Eh

Convergence Tolerance:
 Convergence Check Mode ConvCheckMode   .... Total+1el-Energy
 Convergence forced     ConvForced      .... 0
 Energy Change          TolE            ....  1.000e-08 Eh
 1-El. energy change                    ....  1.000e-05 Eh
 Orbital Gradient       TolG            ....  1.000e-05
 Orbital Rotation angle TolX            ....  1.000e-05
 DIIS Error             TolErr          ....  5.000e-07


Diagonalization of the overlap matrix:
Smallest eigenvalue                        ... 3.132e-04
Time for diagonalization                   ...    0.006 sec
Threshold for overlap eigenvalues          ... 1.000e-08
Number of eigenvalues below threshold      ... 0
Time for construction of square roots      ...    0.004 sec
Total time needed                          ...    0.010 sec

Time for model grid setup =    0.247 sec

------------------------------
INITIAL GUESS: MODEL POTENTIAL
------------------------------
Loading Hartree-Fock densities                     ... done
Calculating cut-offs                               ... done
Initializing the effective Hamiltonian             ... done
Setting up the integral package (SHARK)            ... done
Starting the Coulomb interaction                   ... done (   0.2 sec)
Reading the grid                                   ... done
Mapping shells                                     ... done
Starting the XC term evaluation                    ... done (   0.2 sec)
  promolecular density results
     # of electrons  =     64.994019096
     EX              =    -55.514252134
     EC              =     -2.212934690
     EX+EC           =    -57.727186824
Transforming the Hamiltonian                       ... done (   0.0 sec)
Diagonalizing the Hamiltonian                      ... done (   0.0 sec)
Back transforming the eigenvectors                 ... done (   0.0 sec)
Now organizing SCF variables                       ... done
                      ------------------
                      INITIAL GUESS DONE (   0.6 sec)
                      ------------------
-------------------
DFT GRID GENERATION
-------------------

General Integration Accuracy     IntAcc      ... 4.388
Radial Grid Type                 RadialGrid  ... OptM3 with GC (2021)
Angular Grid (max. ang.)         AngularGrid ... 4 (Lebedev-302)
Angular grid pruning method      GridPruning ... 4 (adaptive)
Weight generation scheme         WeightScheme... Becke
Basis function cutoff            BFCut       ... 1.0000e-11
Integration weight cutoff        WCut        ... 1.0000e-14
Angular grids for H and He will be reduced by one unit
Partially contracted basis set               ... off
Rotationally invariant grid construction     ... off

Total number of grid points                  ...    73889
Total number of batches                      ...     1161
Average number of points per batch           ...       63
Average number of grid points per atom       ...     4926
Time for grid setup =    0.932 sec

--------------------
COSX GRID GENERATION
--------------------

GRIDX 1
-------
General Integration Accuracy     IntAcc      ... 3.816
Radial Grid Type                 RadialGrid  ... OptM3 with GC (2021)
Angular Grid (max. ang.)         AngularGrid ... 1 (Lebedev-50)
Angular grid pruning method      GridPruning ... 4 (adaptive)
Weight generation scheme         WeightScheme... Becke
Basis function cutoff            BFCut       ... 1.0000e-11
Integration weight cutoff        WCut        ... 1.0000e-14
Angular grids for H and He will be reduced by one unit
Partially contracted basis set               ... on
Rotationally invariant grid construction     ... off

Total number of grid points                  ...     9425
Total number of batches                      ...      152
Average number of points per batch           ...       62
Average number of grid points per atom       ...      628
UseSFitting                                  ... on

GRIDX 2
-------
General Integration Accuracy     IntAcc      ... 4.020
Radial Grid Type                 RadialGrid  ... OptM3 with GC (2021)
Angular Grid (max. ang.)         AngularGrid ... 2 (Lebedev-110)
Angular grid pruning method      GridPruning ... 4 (adaptive)
Weight generation scheme         WeightScheme... Becke
Basis function cutoff            BFCut       ... 1.0000e-11
Integration weight cutoff        WCut        ... 1.0000e-14
Angular grids for H and He will be reduced by one unit
Partially contracted basis set               ... on
Rotationally invariant grid construction     ... off

Total number of grid points                  ...    21030
Total number of batches                      ...      334
Average number of points per batch           ...       62
Average number of grid points per atom       ...     1402
UseSFitting                                  ... on

GRIDX 3
-------
General Integration Accuracy     IntAcc      ... 4.338
Radial Grid Type                 RadialGrid  ... OptM3 with GC (2021)
Angular Grid (max. ang.)         AngularGrid ... 3 (Lebedev-194)
Angular grid pruning method      GridPruning ... 4 (adaptive)
Weight generation scheme         WeightScheme... Becke
Basis function cutoff            BFCut       ... 1.0000e-11
Integration weight cutoff        WCut        ... 1.0000e-14
Angular grids for H and He will be reduced by one unit
Partially contracted basis set               ... on
Rotationally invariant grid construction     ... off

Total number of grid points                  ...    46358
Total number of batches                      ...      731
Average number of points per batch           ...       63
Average number of grid points per atom       ...     3091
UseSFitting                                  ... on

Time for X-Grid setup             =    1.051 sec

--------------
SCF ITERATIONS
--------------
ITER       Energy         Delta-E        Max-DP      RMS-DP      [F,P]     Damp
               ***  Starting incremental Fock matrix formation  ***
  0   -435.9768003812   0.000000000000 0.31741837  0.00556439  0.2274223 0.7000
  1   -436.0827312802  -0.105930899005 0.10484705  0.00208741  0.1162284 0.7000
                               ***Turning on DIIS***
  2   -436.2031664570  -0.120435176799 0.16812843  0.00415829  0.0542306 0.0000
  3   -436.2085509345  -0.005384477515 0.02228338  0.00038799  0.1354484 0.7000
  4   -436.2176920836  -0.009141149090 0.02076557  0.00040930  0.1298882 0.7000
  5   -436.2261454901  -0.008453406557 0.01310600  0.00034629  0.1219261 0.7000
  6   -436.2343350214  -0.008189531217 0.00818746  0.00030990  0.1114843 0.7000
  7   -436.2430188009  -0.008683779580 0.06925911  0.00247371  0.1002440 0.7000
  8   -436.3396121758  -0.096593374861 0.20417608  0.00651062  0.0151071 0.0000
  9   -436.0791457508   0.260466425008 0.01265664  0.00031727  0.1700166 0.7000
 10   -436.0649616256   0.014184125188 0.01487654  0.00042205  0.1694544 0.7000
 11   -436.0429179215   0.022043704142 0.01372250  0.00043754  0.1705648 0.7000
 12   -436.0188751986   0.024042722844 0.01269993  0.00041476  0.1725512 0.7000
 13   -435.9985839052   0.020291293419 0.23406018  0.00653073  0.1708628 0.7000
 14   -435.7875343580   0.211049547226 0.06730430  0.00261311  0.1164970 0.7000
 15   -435.8882054882  -0.100671130205 0.16708703  0.00582988  0.0844051 0.0000
 16   -436.1780900495  -0.289884561333 0.00899230  0.00031434  0.1537637 0.7000
 17   -436.1961498592  -0.018059809728 0.01012099  0.00038354  0.1415855 0.7000
 18   -436.2168352248  -0.020685365580 0.07300830  0.00254677  0.1269856 0.7000
 19   -436.3291828983  -0.112347673509 0.23016720  0.00626082  0.0825364 0.0000
               *** Restarting incremental Fock matrix formation ***
                                   *** Resetting DIIS ***

 WARNING: the maximum gradient error descreased on average only by a factor   1.0
          during the last 20 iterations

                      *** Initiating the TRAH-SCF procedure ***


TRAH GRIDX
----------

General Integration Accuracy     IntAcc      ... 3.067
Radial Grid Type                 RadialGrid  ... OptM3 with GC (2021)
Angular Grid (max. ang.)         AngularGrid ... 1 (Lebedev-50)
Angular grid pruning method      GridPruning ... 4 (adaptive)
Weight generation scheme         WeightScheme... Becke
Basis function cutoff            BFCut       ... 1.0000e-11
Integration weight cutoff        WCut        ... 1.0000e-14
Angular grids for H and He will be reduced by one unit
Partially contracted basis set               ... on
Rotationally invariant grid construction     ... off

Total number of grid points                  ...     5000
Total number of batches                      ...       87
Average number of points per batch           ...       57
Average number of grid points per atom       ...      333


TRAH GRID
---------

General Integration Accuracy     IntAcc      ... 3.467
Radial Grid Type                 RadialGrid  ... OptM3 with GC (2021)
Angular Grid (max. ang.)         AngularGrid ... 1 (Lebedev-50)
Angular grid pruning method      GridPruning ... 4 (adaptive)
Weight generation scheme         WeightScheme... Becke
Basis function cutoff            BFCut       ... 1.0000e-11
Integration weight cutoff        WCut        ... 1.0000e-14
Angular grids for H and He will be reduced by one unit
Partially contracted basis set               ... off
Rotationally invariant grid construction     ... off

Total number of grid points                  ...    11005
Total number of batches                      ...      179
Average number of points per batch           ...       61
Average number of grid points per atom       ...      734

 --------------------------------------------------------------------------------------------
   Iter.        energy            ||Error||_2        Shift      TRadius  Mac/Mic        Rej.
 --------------------------------------------------------------------------------------------
WARNING: 22 diagonal Hessian elements are negative!
    0       -436.101351647876     1.477064e+00                     0.400 (TRAH MAcro)   No
WARNING : negative HOMO - LUMO gap : -0.376512
    0     dE    -1.475655e-01     1.194868e+00    -2.8361e-01      0.202 (TRAH MIcro)
    0     dE    -3.495596e-01     2.557215e-01    -1.8861e+00      0.400 (TRAH MIcro)
    0     dE    -3.549577e-01     1.112501e-01    -1.9922e+00      0.400 (TRAH MIcro)
    0     dE    -3.559541e-01     4.774650e-02    -2.0097e+00      0.400 (TRAH MIcro)
    0     dE    -3.560743e-01     2.116631e-02    -2.0055e+00      0.400 (TRAH MIcro)
    0     dE    -3.561074e-01     8.272614e-03    -2.0032e+00      0.400 (TRAH MIcro)
    1       -436.360634401242     1.882020e-01                     0.400 (TRAH MAcro)   No
    1     dE    -6.591440e-03     3.121805e-01    -1.3117e-02      0.071 (TRAH MIcro)
    1     dE    -8.102551e-03     1.945032e-01    -1.6073e-02      0.091 (TRAH MIcro)
    1     dE    -1.011310e-02     4.357669e-02    -1.9949e-02      0.118 (TRAH MIcro)
    1     dE    -1.019338e-02     2.285240e-02    -2.0100e-02      0.119 (TRAH MIcro)
    1     dE    -1.024069e-02     1.009195e-02    -2.0188e-02      0.121 (TRAH MIcro)
    1     dE    -1.024825e-02     4.381024e-03    -2.0201e-02      0.121 (TRAH MIcro)
    2       -436.370786772890     1.779558e-02                     0.480 (TRAH MAcro)   No
    2     dE    -2.298683e-05     2.283907e-02    -4.5973e-05      0.003 (TRAH MIcro)
    2     dE    -3.492923e-05     1.784707e-02    -6.9857e-05      0.005 (TRAH MIcro)
    2     dE    -5.277831e-05     8.122312e-03    -1.0555e-04      0.009 (TRAH MIcro)
    2     dE    -5.800670e-05     5.658317e-03    -1.1600e-04      0.010 (TRAH MIcro)
    2     dE    -5.889664e-05     2.701197e-03    -1.1778e-04      0.011 (TRAH MIcro)
    2     dE    -5.936085e-05     1.278246e-03    -1.1871e-04      0.012 (TRAH MIcro)
    3       -436.370846351195     1.308740e-03                     0.576 (TRAH MAcro)   No
    3     dE    -3.658922e-08     1.636809e-03    -7.3185e-08      0.000 (TRAH MIcro)
    3     dE    -1.102957e-07     1.701758e-03    -2.2059e-07      0.001 (TRAH MIcro)
    3     dE    -6.742327e-07     3.034087e-03    -1.3484e-06      0.004 (TRAH MIcro)
    3     dE    -1.913911e-06     3.594297e-03    -3.8271e-06      0.014 (TRAH MIcro)
    3     dE    -3.087551e-06     3.389029e-03    -6.1715e-06      0.024 (TRAH MIcro)
    3     dE    -4.736574e-06     2.289467e-03    -9.4583e-06      0.040 (TRAH MIcro)
    3     dE    -5.214323e-06     8.351268e-04    -1.0408e-05      0.044 (TRAH MIcro)
    3     dE    -5.259573e-06     3.108397e-04    -1.0498e-05      0.044 (TRAH MIcro)
    3     dE    -5.267106e-06     1.048870e-04    -1.0513e-05      0.045 (TRAH MIcro)
    4       -436.370849544193     3.824067e-03                     0.576 (TRAH MAcro)   No
    4     dE    -1.141497e-06     4.015210e-03    -2.2830e-06      0.001 (TRAH MIcro)
    4     dE    -1.595629e-06     1.653074e-03    -3.1913e-06      0.001 (TRAH MIcro)
    4     dE    -1.773901e-06     3.316002e-04    -3.5478e-06      0.001 (TRAH MIcro)
    5       -436.370851321818     3.317340e-04                           (NR   MAcro)
    5     dE    -5.083121e-09     1.476732e-04                           (NR   MIcro)
    5     dE    -6.139417e-09     1.292425e-04                           (NR   MIcro)
    5     dE    -1.076335e-08     1.026174e-04                           (NR   MIcro)
    5     dE    -1.403724e-08     1.867306e-04                           (NR   MIcro)
    5     dE    -2.370775e-08     2.111098e-04                           (NR   MIcro)
    5     dE    -2.943872e-08     1.420820e-04                           (NR   MIcro)
    5     dE    -3.140362e-08     5.996933e-05                           (NR   MIcro)
    5     dE    -3.179471e-08     3.423810e-05                           (NR   MIcro)
    5     dE    -3.195410e-08     1.271696e-05                           (NR   MIcro)
    5     dE    -3.196446e-08     6.522828e-06                           (NR   MIcro)
    5     dE    -3.196753e-08     1.692805e-06                           (NR   MIcro)
    5     dE    -3.196772e-08     5.547153e-07                           (NR   MIcro)
    6       -436.370851360650     1.520204e-05                           (NR   MAcro)
    6     dE    -2.287207e-11     8.656463e-06                           (NR   MIcro)
    6     dE    -2.761608e-11     2.079995e-06                           (NR   MIcro)
    6     dE    -2.783526e-11     1.442779e-06                           (NR   MIcro)
    6     dE    -2.818236e-11     7.798587e-07                           (NR   MIcro)
    7       -436.370851360701     7.799463e-07                           (NR   MAcro)

               *****************************************************
               *                     SUCCESS                       *
               *           SCF CONVERGED AFTER  74 CYCLES          *
               *****************************************************

Old exchange energy                            =    -11.104322632 Eh
New exchange energy                            =    -11.104327673 Eh
Exchange energy change after final integration =     -0.000005040 Eh
Total energy after final integration           =   -436.370856401 Eh
Final COS-X integration done in                =    10.066 sec

----------------
TOTAL SCF ENERGY
----------------

Total Energy       :         -436.37085640 Eh          -11874.25468 eV

Components:
Nuclear Repulsion  :          362.23600478 Eh            9856.94281 eV
Electronic Energy  :         -798.60686118 Eh          -21731.19749 eV
One Electron Energy:        -1297.70380676 Eh          -35312.31583 eV
Two Electron Energy:          499.09694558 Eh           13581.11834 eV
Max COSX asymmetry :            0.00000147 Eh               0.00004 eV

Virial components:
Potential Energy   :         -869.38190664 Eh          -23657.08438 eV
Kinetic Energy     :          433.01105024 Eh           11782.82970 eV
Virial Ratio       :            2.00775917


DFT components:
N(Alpha)           :       32.000007859051 electrons
N(Beta)            :       32.000007859051 electrons
N(Total)           :       64.000015718102 electrons
E(X)               :      -44.355135105143 Eh       
E(C)               :       -2.577649627933 Eh       
E(XC)              :      -46.932784733076 Eh       
DFET-embed. en.    :        0.000000000000 Eh       

---------------
SCF CONVERGENCE
---------------

  Last Energy change         ...   -5.1386e-11  Tolerance :   1.0000e-08
  Last Orbital Gradient      ...    7.7995e-07  Tolerance :   1.0000e-05
  Last Orbital Rotation      ...    6.0870e-06

             **** THE GBW FILE WAS UPDATED (benzen_nitrodioxid_opt.gbw) ****
             **** DENSITY benzen_nitrodioxid_opt.scfp WAS UPDATED ****
             **** ENERGY FILE WAS UPDATED (benzen_nitrodioxid_opt.en.tmp) ****
             **** THE GBW FILE WAS UPDATED (benzen_nitrodioxid_opt.gbw) ****
             **** DENSITY benzen_nitrodioxid_opt.scfp WAS UPDATED ****
----------------
ORBITAL ENERGIES
----------------

  NO   OCC          E(Eh)            E(eV) 
   0   2.0000     -19.419334      -528.4269 
   1   2.0000     -19.417519      -528.3776 
   2   2.0000     -14.749142      -401.3446 
   3   2.0000     -10.403427      -283.0916 
   4   2.0000     -10.399994      -282.9982 
   5   2.0000     -10.393069      -282.8098 
   6   2.0000     -10.389513      -282.7130 
   7   2.0000     -10.374684      -282.3095 
   8   2.0000     -10.374226      -282.2970 
   9   2.0000      -1.453163       -39.5426 
  10   2.0000      -1.262786       -34.3621 
  11   2.0000      -1.047431       -28.5020 
  12   2.0000      -0.939724       -25.5712 
  13   2.0000      -0.928045       -25.2534 
  14   2.0000      -0.824708       -22.4414 
  15   2.0000      -0.789448       -21.4820 
  16   2.0000      -0.788224       -21.4487 
  17   2.0000      -0.735350       -20.0099 
  18   2.0000      -0.730414       -19.8756 
  19   2.0000      -0.721069       -19.6213 
  20   2.0000      -0.709829       -19.3154 
  21   2.0000      -0.646583       -17.5944 
  22   2.0000      -0.638514       -17.3749 
  23   2.0000      -0.615908       -16.7597 
  24   2.0000      -0.604150       -16.4398 
  25   2.0000      -0.559752       -15.2316 
  26   2.0000      -0.537054       -14.6140 
  27   2.0000      -0.534441       -14.5429 
  28   2.0000      -0.532553       -14.4915 
  29   2.0000      -0.509897       -13.8750 
  30   2.0000      -0.442815       -12.0496 
  31   2.0000      -0.442583       -12.0433 
  32   0.0000      -0.421766       -11.4768 
  33   0.0000      -0.266489        -7.2515 
  34   0.0000      -0.199220        -5.4211 
  35   0.0000      -0.191196        -5.2027 
  36   0.0000      -0.095482        -2.5982 
  37   0.0000      -0.054201        -1.4749 
  38   0.0000      -0.045905        -1.2491 
  39   0.0000      -0.036395        -0.9904 
  40   0.0000      -0.014299        -0.3891 
  41   0.0000      -0.008030        -0.2185 
  42   0.0000       0.015094         0.4107 
  43   0.0000       0.109186         2.9711 
  44   0.0000       0.110031         2.9941 
  45   0.0000       0.119608         3.2547 
  46   0.0000       0.121065         3.2944 
  47   0.0000       0.126094         3.4312 
  48   0.0000       0.142784         3.8854 
  49   0.0000       0.182647         4.9701 
  50   0.0000       0.231232         6.2921 
  51   0.0000       0.240225         6.5368 
  52   0.0000       0.246923         6.7191 
  53   0.0000       0.259635         7.0650 
  54   0.0000       0.286780         7.8037 
  55   0.0000       0.290865         7.9148 
  56   0.0000       0.321585         8.7508 
  57   0.0000       0.328059         8.9269 
  58   0.0000       0.335044         9.1170 
  59   0.0000       0.353643         9.6231 
  60   0.0000       0.363213         9.8835 
  61   0.0000       0.365294         9.9402 
  62   0.0000       0.420694        11.4477 
  63   0.0000       0.427346        11.6287 
  64   0.0000       0.442688        12.0462 
  65   0.0000       0.462899        12.5961 
  66   0.0000       0.482638        13.1332 
  67   0.0000       0.495167        13.4742 
  68   0.0000       0.498039        13.5523 
  69   0.0000       0.500843        13.6286 
  70   0.0000       0.515086        14.0162 
  71   0.0000       0.536292        14.5932 
  72   0.0000       0.543061        14.7775 
  73   0.0000       0.554288        15.0830 
  74   0.0000       0.566557        15.4168 
  75   0.0000       0.590260        16.0618 
  76   0.0000       0.597521        16.2594 
  77   0.0000       0.611282        16.6338 
  78   0.0000       0.659918        17.9573 
  79   0.0000       0.701362        19.0850 
  80   0.0000       0.712051        19.3759 
  81   0.0000       0.717598        19.5268 
  82   0.0000       0.743695        20.2370 
  83   0.0000       0.779308        21.2060 
  84   0.0000       0.786021        21.3887 
  85   0.0000       0.845923        23.0187 
  86   0.0000       0.849988        23.1293 
  87   0.0000       0.895744        24.3744 
  88   0.0000       0.969250        26.3746 
  89   0.0000       0.997937        27.1553 
  90   0.0000       1.051744        28.6194 
  91   0.0000       1.057151        28.7666 
  92   0.0000       1.066976        29.0339 
  93   0.0000       1.097853        29.8741 
  94   0.0000       1.101538        29.9744 
  95   0.0000       1.119487        30.4628 
  96   0.0000       1.120997        30.5039 
  97   0.0000       1.134237        30.8642 
  98   0.0000       1.355195        36.8767 
  99   0.0000       1.460911        39.7534 
 100   0.0000       1.464218        39.8434 
 101   0.0000       1.496333        40.7173 
 102   0.0000       1.546594        42.0850 
 103   0.0000       1.563616        42.5481 
 104   0.0000       1.571081        42.7513 
 105   0.0000       1.572391        42.7869 
 106   0.0000       1.572781        42.7975 
 107   0.0000       1.581413        43.0324 
 108   0.0000       1.584779        43.1240 
 109   0.0000       1.586755        43.1778 
 110   0.0000       1.637223        44.5511 
 111   0.0000       1.650890        44.9230 
 112   0.0000       1.652929        44.9785 
 113   0.0000       1.685281        45.8588 
 114   0.0000       1.750117        47.6231 
 115   0.0000       1.796273        48.8791 
 116   0.0000       1.805733        49.1365 
 117   0.0000       1.806626        49.1608 
 118   0.0000       1.809448        49.2376 
 119   0.0000       1.812624        49.3240 
 120   0.0000       1.944381        52.9093 
 121   0.0000       1.949588        53.0510 
 122   0.0000       1.955165        53.2027 
 123   0.0000       1.965505        53.4841 
 124   0.0000       2.102205        57.2039 
 125   0.0000       2.110911        57.4408 
 126   0.0000       2.124955        57.8230 
 127   0.0000       2.128799        57.9276 
 128   0.0000       2.157272        58.7024 
 129   0.0000       2.166716        58.9593 
 130   0.0000       2.182025        59.3759 
 131   0.0000       2.215728        60.2930 
 132   0.0000       2.373973        64.5991 
 133   0.0000       2.375760        64.6477 
 134   0.0000       2.388164        64.9852 
 135   0.0000       2.411259        65.6137 
 136   0.0000       2.420731        65.8714 
 137   0.0000       2.448137        66.6172 
 138   0.0000       2.456003        66.8312 
 139   0.0000       2.482773        67.5597 
 140   0.0000       2.549222        69.3679 
 141   0.0000       2.552969        69.4698 
 142   0.0000       2.556763        69.5730 
 143   0.0000       2.673768        72.7569 
 144   0.0000       2.681939        72.9793 
 145   0.0000       2.692600        73.2694 
 146   0.0000       2.711066        73.7719 
 147   0.0000       2.881457        78.4084 
 148   0.0000       2.941151        80.0328 
 149   0.0000       2.947531        80.2064 
 150   0.0000       3.042365        82.7870 
 151   0.0000       3.067004        83.4574 
 152   0.0000       3.154101        85.8274 
 153   0.0000       3.442161        93.6660 
 154   0.0000       3.459626        94.1412 
 155   0.0000       3.482744        94.7703 

                    ********************************
                    * MULLIKEN POPULATION ANALYSIS *
                    ********************************

-----------------------
MULLIKEN ATOMIC CHARGES
-----------------------
   0 H :    0.051440
   1 C :    0.039411
   2 C :    0.069864
   3 H :    0.063403
   4 C :    0.093766
   5 H :    0.068721
   6 C :    0.037188
   7 H :    0.053793
   8 C :    0.072916
   9 H :    0.045641
  10 C :    0.093021
  11 H :    0.032699
  12 N :    0.362979
  13 O :   -0.019067
  14 O :   -0.065774
Sum of atomic charges:    1.0000000

--------------------------------
MULLIKEN REDUCED ORBITAL CHARGES
--------------------------------
  0 H s       :     0.925211  s :     0.925211
      pz      :     0.003981  p :     0.023350
      px      :     0.005007
      py      :     0.014362
  1 C s       :     3.167270  s :     3.167270
      pz      :     0.941642  p :     2.759576
      px      :     0.934860
      py      :     0.883073
      dz2     :     0.002948  d :     0.033744
      dxz     :     0.004664
      dyz     :     0.003962
      dx2y2   :     0.010828
      dxy     :     0.011341
  2 C s       :     3.186539  s :     3.186539
      pz      :     0.856678  p :     2.708138
      px      :     0.943083
      py      :     0.908377
      dz2     :     0.002977  d :     0.035458
      dxz     :     0.004917
      dyz     :     0.004467
      dx2y2   :     0.010867
      dxy     :     0.012230
  3 H s       :     0.913360  s :     0.913360
      pz      :     0.004683  p :     0.023238
      px      :     0.007354
      py      :     0.011201
  4 C s       :     3.196234  s :     3.196234
      pz      :     0.807128  p :     2.673323
      px      :     0.899378
      py      :     0.966817
      dz2     :     0.003016  d :     0.036677
      dxz     :     0.003389
      dyz     :     0.006755
      dx2y2   :     0.012446
      dxy     :     0.011070
  5 H s       :     0.908134  s :     0.908134
      pz      :     0.004343  p :     0.023145
      px      :     0.015314
      py      :     0.003488
  6 C s       :     3.168156  s :     3.168156
      pz      :     0.941303  p :     2.760964
      px      :     0.930858
      py      :     0.888804
      dz2     :     0.002925  d :     0.033691
      dxz     :     0.004635
      dyz     :     0.003962
      dx2y2   :     0.011004
      dxy     :     0.011167
  7 H s       :     0.922853  s :     0.922853
      pz      :     0.003964  p :     0.023354
      px      :     0.005067
      py      :     0.014323
  8 C s       :     3.179122  s :     3.179122
      pz      :     0.866332  p :     2.712336
      px      :     0.947737
      py      :     0.898266
      dz2     :     0.002966  d :     0.035627
      dxz     :     0.004989
      dyz     :     0.004540
      dx2y2   :     0.010753
      dxy     :     0.012379
  9 H s       :     0.931251  s :     0.931251
      pz      :     0.004779  p :     0.023109
      px      :     0.007186
      py      :     0.011144
 10 C s       :     3.185812  s :     3.185812
      pz      :     0.821232  p :     2.684321
      px      :     0.891940
      py      :     0.971149
      dz2     :     0.003018  d :     0.036846
      dxz     :     0.003334
      dyz     :     0.006943
      dx2y2   :     0.012578
      dxy     :     0.010973
 11 H s       :     0.944030  s :     0.944030
      pz      :     0.004562  p :     0.023271
      px      :     0.015098
      py      :     0.003611
 12 N s       :     3.477077  s :     3.477077
      pz      :     1.074289  p :     3.067858
      px      :     0.981102
      py      :     1.012466
      dz2     :     0.023305  d :     0.092085
      dxz     :     0.022137
      dyz     :     0.012467
      dx2y2   :     0.015707
      dxy     :     0.018470
 13 O s       :     3.885288  s :     3.885288
      pz      :     1.537718  p :     4.109195
      px      :     1.134958
      py      :     1.436519
      dz2     :     0.002958  d :     0.024584
      dxz     :     0.005461
      dyz     :     0.000364
      dx2y2   :     0.008216
      dxy     :     0.007586
 14 O s       :     3.881661  s :     3.881661
      pz      :     1.091061  p :     4.160059
      px      :     1.585618
      py      :     1.483381
      dz2     :     0.008224  d :     0.024054
      dxz     :     0.007113
      dyz     :     0.005979
      dx2y2   :     0.001329
      dxy     :     0.001409


                     *******************************
                     * LOEWDIN POPULATION ANALYSIS *
                     *******************************

----------------------
LOEWDIN ATOMIC CHARGES
----------------------
   0 H :    0.057041
   1 C :    0.008386
   2 C :    0.075118
   3 H :    0.061747
   4 C :    0.116865
   5 H :    0.063905
   6 C :    0.008537
   7 H :    0.057877
   8 C :    0.069462
   9 H :    0.053999
  10 C :    0.105366
  11 H :    0.046287
  12 N :    0.258112
  13 O :    0.030964
  14 O :   -0.013665

-------------------------------
LOEWDIN REDUCED ORBITAL CHARGES
-------------------------------
  0 H s       :     0.873533  s :     0.873533
      pz      :     0.012634  p :     0.069426
      px      :     0.015557
      py      :     0.041235
  1 C s       :     2.861644  s :     2.861644
      pz      :     0.945466  p :     3.041724
      px      :     1.045735
      py      :     1.050523
      dz2     :     0.006764  d :     0.088246
      dxz     :     0.011370
      dyz     :     0.008309
      dx2y2   :     0.030372
      dxy     :     0.031431
  2 C s       :     2.869815  s :     2.869815
      pz      :     0.859067  p :     2.964531
      px      :     1.050633
      py      :     1.054831
      dz2     :     0.006805  d :     0.090535
      dxz     :     0.010897
      dyz     :     0.009488
      dx2y2   :     0.030158
      dxy     :     0.033187
  3 H s       :     0.868627  s :     0.868627
      pz      :     0.014489  p :     0.069626
      px      :     0.022215
      py      :     0.032922
  4 C s       :     2.874873  s :     2.874873
      pz      :     0.805679  p :     2.916129
      px      :     1.040844
      py      :     1.069607
      dz2     :     0.006820  d :     0.092133
      dxz     :     0.006716
      dyz     :     0.015066
      dx2y2   :     0.033360
      dxy     :     0.030172
  5 H s       :     0.866478  s :     0.866478
      pz      :     0.013483  p :     0.069616
      px      :     0.044456
      py      :     0.011677
  6 C s       :     2.861712  s :     2.861712
      pz      :     0.945463  p :     3.041671
      px      :     1.043735
      py      :     1.052473
      dz2     :     0.006727  d :     0.088081
      dxz     :     0.011323
      dyz     :     0.008218
      dx2y2   :     0.030856
      dxy     :     0.030957
  7 H s       :     0.872646  s :     0.872646
      pz      :     0.012596  p :     0.069477
      px      :     0.015658
      py      :     0.041223
  8 C s       :     2.869227  s :     2.869227
      pz      :     0.865547  p :     2.970253
      px      :     1.052695
      py      :     1.052011
      dz2     :     0.006796  d :     0.091058
      dxz     :     0.011053
      dyz     :     0.009724
      dx2y2   :     0.029866
      dxy     :     0.033619
  9 H s       :     0.876798  s :     0.876798
      pz      :     0.014716  p :     0.069202
      px      :     0.021874
      py      :     0.032612
 10 C s       :     2.873870  s :     2.873870
      pz      :     0.819452  p :     2.927953
      px      :     1.036278
      py      :     1.072223
      dz2     :     0.006842  d :     0.092812
      dxz     :     0.006706
      dyz     :     0.015467
      dx2y2   :     0.033831
      dxy     :     0.029965
 11 H s       :     0.883811  s :     0.883811
      pz      :     0.013967  p :     0.069902
      px      :     0.043926
      py      :     0.012008
 12 N s       :     3.245610  s :     3.245610
      pz      :     1.192191  p :     3.309674
      px      :     1.111736
      py      :     1.005747
      dz2     :     0.051987  d :     0.186605
      dxz     :     0.044444
      dyz     :     0.020350
      dx2y2   :     0.035696
      dxy     :     0.034128
 13 O s       :     3.649254  s :     3.649254
      pz      :     1.534054  p :     4.274658
      px      :     1.297131
      py      :     1.443474
      dz2     :     0.006740  d :     0.045124
      dxz     :     0.008584
      dyz     :     0.000566
      dx2y2   :     0.017579
      dxy     :     0.011656
 14 O s       :     3.646495  s :     3.646495
      pz      :     1.246959  p :     4.322602
      px      :     1.592196
      py      :     1.483447
      dz2     :     0.018089  d :     0.044568
      dxz     :     0.013795
      dyz     :     0.008430
      dx2y2   :     0.002120
      dxy     :     0.002134


                      *****************************
                      * MAYER POPULATION ANALYSIS *
                      *****************************

  NA   - Mulliken gross atomic population
  ZA   - Total nuclear charge
  QA   - Mulliken gross atomic charge
  VA   - Mayer's total valence
  BVA  - Mayer's bonded valence
  FA   - Mayer's free valence

  ATOM       NA         ZA         QA         VA         BVA        FA
  0 H      0.9486     1.0000     0.0514     0.9829     0.9829    -0.0000
  1 C      5.9606     6.0000     0.0394     3.8546     3.8546     0.0000
  2 C      5.9301     6.0000     0.0699     3.8239     3.8239     0.0000
  3 H      0.9366     1.0000     0.0634     0.9809     0.9809    -0.0000
  4 C      5.9062     6.0000     0.0938     3.7962     3.7962    -0.0000
  5 H      0.9313     1.0000     0.0687     0.9795     0.9795    -0.0000
  6 C      5.9628     6.0000     0.0372     3.8562     3.8562    -0.0000
  7 H      0.9462     1.0000     0.0538     0.9829     0.9829    -0.0000
  8 C      5.9271     6.0000     0.0729     3.8173     3.8173     0.0000
  9 H      0.9544     1.0000     0.0456     0.9848     0.9848     0.0000
 10 C      5.9070     6.0000     0.0930     3.7916     3.7916     0.0000
 11 H      0.9673     1.0000     0.0327     1.0038     1.0038     0.0000
 12 N      6.6370     7.0000     0.3630     3.6333     3.6333     0.0000
 13 O      8.0191     8.0000    -0.0191     2.3084     2.3084    -0.0000
 14 O      8.0658     8.0000    -0.0658     2.2635     2.2635    -0.0000

  Mayer bond orders larger than 0.100000
B(  0-H ,  1-C ) :   0.9890 B(  1-C ,  2-C ) :   1.4423 B(  1-C , 10-C ) :   1.3324 
B(  2-C ,  3-H ) :   0.9881 B(  2-C ,  4-C ) :   1.1768 B(  4-C ,  5-H ) :   0.9875 
B(  4-C ,  6-C ) :   1.3391 B(  6-C ,  7-H ) :   0.9888 B(  6-C ,  8-C ) :   1.4379 
B(  8-C ,  9-H ) :   0.9881 B(  8-C , 10-C ) :   1.1683 B( 10-C , 11-H ) :   0.9840 
B( 10-C , 12-N ) :   0.1035 B( 12-N , 13-O ) :   1.6755 B( 12-N , 14-O ) :   1.6194 
B( 13-O , 14-O ) :   0.3279 

-------
TIMINGS
-------

Total SCF time: 0 days 0 hours 3 min 33 sec 

Total time                  ....     213.932 sec
Sum of individual times     ....     211.184 sec  ( 98.7%)

Fock matrix formation       ....     208.107 sec  ( 97.3%)
  Split-RI-J                ....      26.078 sec  ( 12.5% of F)
  Chain of spheres X        ....     151.577 sec  ( 72.8% of F)
  XC integration            ....      30.319 sec  ( 14.6% of F)
    Basis function eval.    ....      10.880 sec  ( 35.9% of XC)
    Density eval.           ....       7.846 sec  ( 25.9% of XC)
    XC-Functional eval.     ....       2.015 sec  (  6.6% of XC)
    XC-Potential eval.      ....       7.185 sec  ( 23.7% of XC)
Diagonalization             ....       0.114 sec  (  0.1%)
Density matrix formation    ....       0.018 sec  (  0.0%)
Population analysis         ....       0.025 sec  (  0.0%)
Initial guess               ....       0.395 sec  (  0.2%)
Orbital Transformation      ....       0.104 sec  (  0.0%)
Orbital Orthonormalization  ....       0.000 sec  (  0.0%)
DIIS solution               ....       0.191 sec  (  0.1%)
SOSCF solution              ....       0.000 sec  (  0.0%)
Grid generation             ....       2.230 sec  (  1.0%)

Maximum memory used throughout the entire SCF-calculation: 66.3 MB


-------------------------------------------------------------------------------
                          DFT DISPERSION CORRECTION                            
                                                                               
                                 DFTD4 V2.5                                    
-------------------------------------------------------------------------------
The B3LYP functional is recognized
Active option DFTDOPT                   ...         5   

Starting D4
-------------------------   ----------------
Dispersion correction           -0.017816748
-------------------------   ----------------


-------------------------   --------------------
FINAL SINGLE POINT ENERGY      -436.388673149348
-------------------------   --------------------

------------------------------------------------------------------------------
                         ORCA SCF GRADIENT CALCULATION
------------------------------------------------------------------------------

 ... reading COSX grid (gridx3)
Gradient of the Kohn-Sham DFT energy:
Kohn-Sham wavefunction type      ... RKS
Hartree-Fock exchange scaling    ...    0.200
Number of operators              ...    1
Number of atoms                  ...   15
Basis set dimensions             ...  156
Integral neglect threshold       ... 2.5e-11
Integral primitive cutoff        ... 2.5e-12
SHARK Integral package           ... ON

Nuc. rep. gradient       (SHARK) ... done (  0.0 sec)
HCore & Overlap gradient (SHARK) ... done (  0.2 sec)
RI-J gradient            (SHARK) ... done (  1.3 sec)
COSX-gradient                    ... done ( 12.6 sec)
Exchange-correlation gradient    ... done
Dispersion correction            ... Starting D4


------------------- 
Dispersion Gradient 
------------------- 
   1  :    0.000058529   -0.000162443    0.000003994
   2  :    0.000081099   -0.000349458    0.000007112
   3  :   -0.000208289   -0.000268466    0.000102956
   4  :   -0.000094852   -0.000130077    0.000049799
   5  :   -0.000335464    0.000049692    0.000098516
   6  :   -0.000159483    0.000026206    0.000047825
   7  :   -0.000161640    0.000323190   -0.000001997
   8  :   -0.000066394    0.000156459   -0.000000602
   9  :    0.000013418    0.000270341   -0.000102897
  10  :    0.000042642    0.000151845   -0.000054215
  11  :    0.000083770   -0.000136330   -0.000097409
  12  :    0.000098562   -0.000066751   -0.000051743
  13  :    0.000247603    0.000057698   -0.000045924
  14  :    0.000068844    0.000019417   -0.000026633
  15  :    0.000331654    0.000058676    0.000071219

  |G| =    0.000921616

done

------------------
CARTESIAN GRADIENT
------------------

   1   H   :   -0.001050347    0.002960697   -0.000091283
   2   C   :    0.008459097    0.010914893   -0.005200179
   3   C   :   -0.020572865    0.030354121    0.002338350
   4   H   :    0.002012130    0.003097740   -0.000883849
   5   C   :    0.009804132   -0.024288534    0.000344388
   6   H   :    0.003956089   -0.000883101   -0.001304486
   7   C   :   -0.007719458   -0.010537672    0.004339551
   8   H   :    0.001147165   -0.002910530    0.000099245
   9   C   :    0.019844560   -0.030834417   -0.002333197
  10   H   :   -0.001710669   -0.003059343    0.000739005
  11   C   :   -0.011926779    0.024243105    0.000411939
  12   H   :   -0.003482486    0.000629187    0.001153833
  13   N   :   -0.083813908   -0.012288410   -0.116993287
  14   O   :    0.007857239   -0.004368182    0.083551108
  15   O   :    0.077213717    0.016961412    0.033826042

Difference to translation invariance:
           :    0.0000176173   -0.0000090348   -0.0000028208

Difference to rotation invariance:
           :    0.0002428143    0.0003188041   -0.0000559847

Norm of the cartesian gradient     ...    0.1998028757
RMS gradient                       ...    0.0297848541
MAX gradient                       ...    0.1169932874

-------
TIMINGS
-------

Total SCF gradient time            ...       19.966 sec

One electron gradient       ....       0.183 sec  (  0.9%)
RI-J Coulomb gradient       ....       1.267 sec  (  6.3%)
COSX gradient               ....      12.611 sec  ( 63.2%)
XC gradient                 ....       5.253 sec  ( 26.3%)

Maximum memory used throughout the entire SCFGRAD-calculation: 52.4 MB
------------------------------------------------------------------------------
                         ORCA GEOMETRY RELAXATION STEP
------------------------------------------------------------------------------

Reading the OPT-File                    .... done
Getting information on internals        .... done
Copying old internal coords+grads       .... done
Making the new internal coordinates     .... (new redundants).... done
Validating the new internal coordinates .... (new redundants).... done
Calculating the B-matrix                .... done
Calculating the G,G- and P matrices     .... done
Transforming gradient to internals      .... done
Projecting the internal gradient        .... done
Number of atoms                         ....  15
Number of internal coordinates          ....  73
Current Energy                          ....  -436.388673149 Eh
Current gradient norm                   ....     0.199802876 Eh/bohr
Maximum allowed component of the step   ....  0.300
Current trust radius                    ....  0.300
Evaluating the initial hessian          ....  (Almloef) done
Projecting the Hessian                  .... done
Forming the augmented Hessian           .... done
Diagonalizing the augmented Hessian     .... done
Last element of RFO vector              ....  0.944318688
Lowest eigenvalues of augmented Hessian:
 -0.069505607  0.000218387  0.001464968  0.012448850  0.026155464
Length of the computed step             ....  0.348433473
Warning: the length of the step is outside the trust region - taking restricted step instead
The input lambda is                     ....    -0.069506
   iter:   1  x=   -0.142555  g=    0.429926 f(x)=     0.031406
   iter:   2  x=   -0.160583  g=    0.296133 f(x)=     0.005339
   iter:   3  x=   -0.161383  g=    0.272400 f(x)=     0.000218
   iter:   4  x=   -0.161385  g=    0.271408 f(x)=     0.000000
   iter:   5  x=   -0.161385  g=    0.271406 f(x)=     0.000000
   iter:   6  x=   -0.161385  g=    0.271406 f(x)=     0.000000
The output lambda is                    ....    -0.161385 (6 iterations)
The final length of the internal step   ....  0.300000000
Converting the step to cartesian space:
 Initial RMS(Int)=    0.0351123442
Transforming coordinates:
 Iter   0:  RMS(Cart)=    0.0558743718 RMS(Int)=    0.7357599933
 Iter   1:  RMS(Cart)=    0.0250908878 RMS(Int)=    0.0107020361
 Iter   2:  RMS(Cart)=    0.0064483916 RMS(Int)=    0.7354023400
 Iter   3:  RMS(Cart)=    0.0014311745 RMS(Int)=    0.0007438534
 Iter   4:  RMS(Cart)=    0.0004223982 RMS(Int)=    0.0003152163
 Iter   5:  RMS(Cart)=    0.0000997332 RMS(Int)=    0.0000612538
 Iter   6:  RMS(Cart)=    0.0000270646 RMS(Int)=    0.0000185254
 Iter   7:  RMS(Cart)=    0.0000069131 RMS(Int)=    0.0000048224
 Iter   8:  RMS(Cart)=    0.0000017216 RMS(Int)=    0.0000010341
 Iter   9:  RMS(Cart)=    0.0000004773 RMS(Int)=    0.0000003610
 Iter  10:  RMS(Cart)=    0.0000001099 RMS(Int)=    0.0000000558
 Iter  11:  RMS(Cart)=    0.0000000326 RMS(Int)=    0.0000000257
done
Storing new coordinates                 .... done

                                .--------------------.
          ----------------------|Geometry convergence|-------------------------
          Item                value                   Tolerance       Converged
          ---------------------------------------------------------------------
          RMS gradient        0.0234022473            0.0001000000      NO
          MAX gradient        0.1910082182            0.0003000000      NO
          RMS step            0.0351123442            0.0020000000      NO
          MAX step            0.2894309805            0.0040000000      NO
          ........................................................
          Max(Bonds)      0.0262      Max(Angles)   16.58
          Max(Dihed)        0.08      Max(Improp)    0.00
          ---------------------------------------------------------------------

The optimization has not yet converged - more geometry cycles are needed


    ---------------------------------------------------------------------------
                         Redundant Internal Coordinates
                            (Angstroem and degrees)

        Definition                    Value    dE/dq     Step     New-Value
    ----------------------------------------------------------------------------
     1. B(C   1,H   0)                1.0873 -0.003139  0.0032    1.0904   
     2. B(C   2,C   1)                1.3941  0.005762 -0.0040    1.3901   
     3. B(H   3,C   2)                1.0873 -0.003785  0.0038    1.0911   
     4. B(C   4,C   2)                1.3941 -0.038250  0.0260    1.4201   
     5. B(H   5,C   4)                1.0873 -0.004249  0.0043    1.0916   
     6. B(C   6,C   4)                1.3942 -0.009549  0.0064    1.4007   
     7. B(H   7,C   6)                1.0873 -0.003128  0.0032    1.0905   
     8. B(C   8,C   6)                1.3943  0.005612 -0.0038    1.3905   
     9. B(H   9,C   8)                1.0873 -0.003892  0.0036    1.0909   
    10. B(C  10,C   8)                1.3941 -0.037634  0.0262    1.4204   
    11. B(C  10,C   1)                1.3941 -0.010410  0.0072    1.4012   
    12. B(H  11,C  10)                1.0869 -0.003394  0.0034    1.0904   
    13. B(N  12,H  11)                3.3141 -0.000864  0.0014    3.3155   
    14. B(O  13,N  12)                1.2088  0.008409 -0.0039    1.2049   
    15. B(O  14,H   9)                3.5703 -0.001331  0.0006    3.5709   
    16. B(O  14,N  12)                1.2092 -0.004392  0.0022    1.2113   
    17. B(O  14,H  11)                2.8325  0.001523 -0.0031    2.8294   
    18. B(O  14,C  10)                3.6479  0.001765 -0.0031    3.6448   
    19. A(C   2,C   1,C  10)          120.01  0.005395   -0.52    119.49   
    20. A(H   0,C   1,C   2)          120.00 -0.002527    0.24    120.24   
    21. A(H   0,C   1,C  10)          119.99 -0.002868    0.28    120.27   
    22. A(C   1,C   2,C   4)          119.99 -0.000917    0.09    120.09   
[...]
  6   -436.43518673  -0.0000257072  0.000796  0.004780  0.002139  0.000097
  7   -436.43518262   0.0000041077  0.001968  0.002749  0.002388  0.000077
  8   -436.43519326  -0.0000106380  0.001397  0.002908  0.001671  0.000072
  9   -436.43519611  -0.0000028515  0.000616  0.000773  0.001040  0.000037
 10   -436.43520504  -0.0000089231  0.000161  0.001286  0.000594  0.000025
 11   -436.43520551  -0.0000004749  0.000145  0.000246  0.000252  0.000008
 12   -436.43520576  -0.0000002477  0.000074  0.000367  0.000212  0.000008
 13   -436.43520587  -0.0000001133  0.000023  0.000176  0.000084  0.000003
 14   -436.43520588  -0.0000000123  0.000008  0.000016  0.000017  0.000001
 15   -436.43520588  -0.0000000002  0.000008  0.000014  0.000011  0.000001
                  ***Gradient check signals convergence***
              ***Rediagonalizing the Fockian in SOSCF/NRSCF***

               *****************************************************
               *                     SUCCESS                       *
               *           SCF CONVERGED AFTER  16 CYCLES          *
               *****************************************************

Old exchange energy                            =    -11.118850772 Eh
New exchange energy                            =    -11.118884467 Eh
Exchange energy change after final integration =     -0.000033695 Eh
Total energy after final integration           =   -436.435239584 Eh
Final COS-X integration done in                =    11.382 sec
Total Energy       :         -436.43523958 Eh          -11876.00663 eV
  Last Energy change         ...   -3.2700e-09  Tolerance :   1.0000e-08
  Last MAX-Density change    ...    3.1086e-15  Tolerance :   1.0000e-07
             **** THE GBW FILE WAS UPDATED (benzen_nitrodioxid_opt.gbw) ****
             **** DENSITY benzen_nitrodioxid_opt.scfp WAS UPDATED ****
             **** ENERGY FILE WAS UPDATED (benzen_nitrodioxid_opt.en.tmp) ****
             **** THE GBW FILE WAS UPDATED (benzen_nitrodioxid_opt.gbw) ****
             **** DENSITY benzen_nitrodioxid_opt.scfp WAS UPDATED ****
Total SCF time: 0 days 0 hours 1 min 43 sec 

Maximum memory used throughout the entire SCF-calculation: 68.4 MB


-------------------------------------------------------------------------------
                          DFT DISPERSION CORRECTION                            
                                                                               
                                 DFTD4 V2.5                                    
-------------------------------------------------------------------------------
Starting D4
-------------------------   ----------------
Dispersion correction           -0.021662751
-------------------------   ----------------


-------------------------   --------------------
FINAL SINGLE POINT ENERGY      -436.456902334634
-------------------------   --------------------

------------------------------------------------------------------------------
                         ORCA SCF GRADIENT CALCULATION
------------------------------------------------------------------------------

 ... reading COSX grid (gridx3)
Gradient of the Kohn-Sham DFT energy:
Kohn-Sham wavefunction type      ... RKS
Hartree-Fock exchange scaling    ...    0.200
Number of operators              ...    1
Number of atoms                  ...   15
Basis set dimensions             ...  156
Integral neglect threshold       ... 2.5e-11
Integral primitive cutoff        ... 2.5e-12
SHARK Integral package           ... ON

Nuc. rep. gradient       (SHARK) ... done (  0.0 sec)
HCore & Overlap gradient (SHARK) ... done (  0.2 sec)
RI-J gradient            (SHARK) ... done (  1.5 sec)
COSX-gradient                    ... done ( 14.3 sec)
Exchange-correlation gradient    ... done
Dispersion correction            ... Starting D4


------------------- 
Dispersion Gradient 
------------------- 
   1  :    0.000022146   -0.000205262   -0.000039663
   2  :   -0.000131394   -0.000515465   -0.000125867
   3  :   -0.000302718   -0.000377904    0.000287408
   4  :   -0.000054142   -0.000134489    0.000137130
   5  :   -0.000419218    0.000071523    0.000337728
   6  :   -0.000106581    0.000050861    0.000164137
   7  :   -0.000378425    0.000388245   -0.000005973
   8  :   -0.000093532    0.000181507    0.000023887
   9  :   -0.000210282    0.000261993   -0.000424984
  10  :   -0.000018244    0.000125974   -0.000167328
  11  :   -0.000084604   -0.000194101   -0.000482369
  12  :    0.000046095   -0.000073616   -0.000201704
  13  :    0.000877437    0.000195506    0.000257181
  14  :    0.000220466    0.000050024    0.000063291
  15  :    0.000632997    0.000175203    0.000177126

  |G| =    0.001679699

done

------------------
CARTESIAN GRADIENT
------------------

   1   H   :    0.002101819    0.001429167   -0.003891057
   2   C   :   -0.004860265   -0.005482870    0.016183636
   3   C   :    0.000947755   -0.000667550   -0.003289236
   4   H   :   -0.001482551    0.002361799    0.001088241
   5   C   :    0.001598229   -0.007647718    0.001398713
   6   H   :    0.000444367    0.002172746   -0.000703818
   7   C   :    0.002809150    0.002119233   -0.010060042
   8   H   :   -0.001650143   -0.001801912    0.006163906
   9   C   :   -0.004042298    0.008519486    0.009181639
  10   H   :    0.001954098   -0.000897818   -0.004938284
  11   C   :    0.002251897   -0.002923736   -0.016412210
  12   H   :    0.001293567    0.002925999    0.008902636
  13   N   :   -0.015918697   -0.009827270   -0.007242552
  14   O   :   -0.003458534    0.002274970    0.001235752
  15   O   :    0.018202763    0.007484008    0.002303177

Difference to translation invariance:
           :    0.0001911570    0.0000385330   -0.0000794991

Difference to rotation invariance:
           :    0.0001451539    0.0003253355    0.0000485392

Norm of the cartesian gradient     ...    0.0444155577
RMS gradient                       ...    0.0066210804
MAX gradient                       ...    0.0182027627

-------
TIMINGS
-------

Total SCF gradient time            ...       23.045 sec

One electron gradient       ....       0.219 sec  (  1.0%)
RI-J Coulomb gradient       ....       1.466 sec  (  6.4%)
COSX gradient               ....      14.336 sec  ( 62.2%)
XC gradient                 ....       6.306 sec  ( 27.4%)

Maximum memory used throughout the entire SCFGRAD-calculation: 55.0 MB
------------------------------------------------------------------------------
                         ORCA GEOMETRY RELAXATION STEP
------------------------------------------------------------------------------

Reading the OPT-File                    .... done
Getting information on internals        .... done
Copying old internal coords+grads       .... done
Making the new internal coordinates     .... (new redundants).... done
Validating the new internal coordinates .... (new redundants).... done
Calculating the B-matrix                .... done
Calculating the G,G- and P matrices     .... done
Transforming gradient to internals      .... done
Projecting the internal gradient        .... done
Number of atoms                         ....  15
Number of internal coordinates          ....  73
Current Energy                          ....  -436.456902335 Eh
Current gradient norm                   ....     0.044415558 Eh/bohr
Maximum allowed component of the step   ....  0.300
Current trust radius                    ....  0.300
Resetting Hessian after 50 BFGS Update Steps....
Build internal Hessian                  .... (Almloef) done
Updating Hessian with the last 5 steps  .... done
Forming the augmented Hessian           .... done
Diagonalizing the augmented Hessian     .... done
Last element of RFO vector              ....  0.897392132
Lowest eigenvalues of augmented Hessian:
 -0.003729884  0.001388328  0.002206715  0.004002801  0.014893156
Length of the computed step             ....  0.491684618
Warning: the length of the step is outside the trust region - taking restricted step instead
The input lambda is                     ....    -0.003730
   iter:   1  x=   -0.005439  g=   88.775927 f(x)=     0.151754
   iter:   2  x=   -0.006890  g=   36.732047 f(x)=     0.053288
   iter:   3  x=   -0.007526  g=   20.692564 f(x)=     0.013153
   iter:   4  x=   -0.007607  g=   16.654843 f(x)=     0.001347
   iter:   5  x=   -0.007608  g=   16.221189 f(x)=     0.000018
   iter:   6  x=   -0.007608  g=   16.215464 f(x)=     0.000000
   iter:   7  x=   -0.007608  g=   16.215463 f(x)=     0.000000
The output lambda is                    ....    -0.007608 (7 iterations)
The final length of the internal step   ....  0.300000000
Converting the step to cartesian space:
 Initial RMS(Int)=    0.0351123442
Transforming coordinates:
 Iter   0:  RMS(Cart)=    0.0298036450 RMS(Int)=    1.2708042925
 Iter   1:  RMS(Cart)=    0.0035799377 RMS(Int)=    0.0123217893
 Iter   2:  RMS(Cart)=    0.0014999266 RMS(Int)=    0.0054542376
 Iter   3:  RMS(Cart)=    0.0006556514 RMS(Int)=    0.0024158339
 Iter   4:  RMS(Cart)=    0.0002909254 RMS(Int)=    0.0010637557
 Iter   5:  RMS(Cart)=    0.0001277726 RMS(Int)=    0.0004686663
 Iter   6:  RMS(Cart)=    0.0000563278 RMS(Int)=    0.0002063013
 Iter   7:  RMS(Cart)=    0.0000247847 RMS(Int)=    0.0000908312
 Iter   8:  RMS(Cart)=    0.0000109139 RMS(Int)=    0.0000399862
 Iter   9:  RMS(Cart)=    0.0000048042 RMS(Int)=    0.0000176039
 Iter  10:  RMS(Cart)=    0.0000021151 RMS(Int)=    0.0000077499
 Iter  11:  RMS(Cart)=    0.0000009311 RMS(Int)=    0.0000034118
 Iter  12:  RMS(Cart)=    0.0000004099 RMS(Int)=    0.0000015020
 Iter  13:  RMS(Cart)=    0.0000001805 RMS(Int)=    0.0000006613
 Iter  14:  RMS(Cart)=    0.0000000794 RMS(Int)=    0.0000002911
done
Storing new coordinates                 .... done

                                .--------------------.
          ----------------------|Geometry convergence|-------------------------
          Item                value                   Tolerance       Converged
          ---------------------------------------------------------------------
          Energy change      -0.0009595350            0.0000050000      NO
          RMS gradient        0.0035278775            0.0001000000      NO
          MAX gradient        0.0172838050            0.0003000000      NO
          RMS step            0.0351123442            0.0020000000      NO
          MAX step            0.1755327898            0.0040000000      NO
          ........................................................
          Max(Bonds)      0.0745      Max(Angles)    3.33
          Max(Dihed)       10.06      Max(Improp)    0.00
          ---------------------------------------------------------------------

The optimization has not yet converged - more geometry cycles are needed


    ---------------------------------------------------------------------------
                         Redundant Internal Coordinates
                            (Angstroem and degrees)

        Definition                    Value    dE/dq     Step     New-Value
    ----------------------------------------------------------------------------
     1. B(C   1,H   0)                1.0931 -0.000009  0.0006    1.0938   
     2. B(C   2,C   1)                1.3964 -0.004186  0.0034    1.3998   
     3. B(H   3,C   2)                1.0920 -0.000482  0.0006    1.0926   
     4. B(C   4,C   2)                1.3963 -0.003933  0.0024    1.3987   
     5. B(H   5,C   4)                1.0929 -0.000101  0.0001    1.0930   
     6. B(C   6,C   4)                1.4119  0.002955 -0.0037    1.4082   
     7. B(H   7,C   6)                1.0930  0.000064 -0.0002    1.0928   
     8. B(C   8,C   6)                1.3970 -0.002513  0.0041    1.4012   
     9. B(H   9,C   8)                1.0980  0.003418 -0.0057    1.0923   
    10. B(C  10,C   8)                1.4113  0.006089 -0.0063    1.4050   
    11. B(C  10,C   1)                1.4190  0.010395 -0.0091    1.4099   
    12. B(H  11,C  10)                1.0822 -0.004960  0.0112    1.0934   
    13. B(N  12,H  11)                3.9588 -0.004950  0.0745    4.0332   
    14. B(O  13,N  12)                1.1437 -0.002337 -0.0025    1.1412   
    15. B(O  14,H   9)                3.3473  0.000034  0.0169    3.3642   
    16. B(O  14,N  12)                1.1286 -0.017284  0.0056    1.1342   
    17. B(O  14,H  11)                3.2198 -0.000666  0.0544    3.2742   
    18. B(O  14,C  10)                2.6626  0.002219  0.0015    2.6641   
    19. A(C   2,C   1,C  10)          120.03  0.000395    0.63    120.66   
    20. A(H   0,C   1,C   2)          122.66  0.004500   -1.53    121.14   
    21. A(H   0,C   1,C  10)          117.30 -0.004898    0.92    118.22   
    22. A(C   1,C   2,C   4)          119.07 -0.001557    0.35    119.42   
    23. A(H   3,C   2,C   4)          118.93 -0.002243    0.57    119.50   
    24. A(C   1,C   2,H   3)          122.00  0.003799   -0.92    121.08   
    25. A(H   5,C   4,C   6)          117.94 -0.004397    0.91    118.84   
    26. A(C   2,C   4,C   6)          121.36  0.004177   -0.90    120.46   
    27. A(C   2,C   4,H   5)          120.70  0.000224   -0.02    120.68   
    28. A(H   7,C   6,C   8)          123.68  0.006490   -1.48    122.20   
    29. A(C   4,C   6,C   8)          119.95  0.000717   -0.05    119.91   
    30. A(C   4,C   6,H   7)          116.37 -0.007206    1.53    117.89   
    31. A(H   9,C   8,C  10)          118.18 -0.002768    0.67    118.85   
    32. A(C   6,C   8,C  10)          118.95 -0.003053    1.05    119.99   
    33. A(C   6,C   8,H   9)          122.87  0.005820   -1.72    121.15   
    34. A(H  11,C  10,O  14)          111.44  0.000249    3.09    114.53   
    35. A(C   8,C  10,O  14)           75.83 -0.001947    0.37     76.20   
    36. A(C   1,C  10,O  14)           79.17  0.000816   -1.15     78.03   
    37. A(C   8,C  10,H  11)          120.09  0.001213   -0.18    119.91   
    38. A(C   1,C  10,H  11)          119.12 -0.000594    1.55    120.67   
    39. A(C   1,C  10,C   8)          120.60 -0.000686   -1.09    119.51   
    40. A(O  13,N  12,O  14)          170.37 -0.007482    3.33    173.70   
    41. A(C  10,O  14,N  12)          141.78  0.005037    0.17    141.94   
    42. D(C   4,C   2,C   1,H   0)    178.04 -0.000925    0.73    178.77   
    43. D(C   4,C   2,C   1,C  10)     -1.26 -0.000614    0.87     -0.39   
    44. D(H   3,C   2,C   1,C  10)    178.85 -0.000171    0.41    179.25   
    45. D(H   3,C   2,C   1,H   0)     -1.85 -0.000482    0.27     -1.58   
    46. D(H   5,C   4,C   2,H   3)      1.10  0.000169   -0.87      0.23   
    47. D(H   5,C   4,C   2,C   1)   -178.79  0.000592   -1.31   -180.11   
    48. D(C   6,C   4,C   2,C   1)      2.22  0.000440   -0.87      1.35   
    49. D(C   6,C   4,C   2,H   3)   -177.89  0.000017   -0.42   -178.31   
    50. D(C   8,C   6,C   4,H   5)    179.69 -0.000280    1.12    180.81   
    51. D(C   8,C   6,C   4,C   2)     -1.29 -0.000090    0.66     -0.64   
    52. D(H   7,C   6,C   4,H   5)     -0.59 -0.000119    0.87      0.28   
    53. D(H   7,C   6,C   4,C   2)    178.43  0.000071    0.41    178.84   
    54. D(C  10,C   8,C   6,C   4)     -0.59 -0.000066   -0.44     -1.03   
    55. D(H   9,C   8,C   6,H   7)      0.02 -0.000115   -0.00      0.02   
    56. D(H   9,C   8,C   6,C   4)    179.72  0.000017   -0.27    179.45   
    57. D(C  10,C   8,C   6,H   7)    179.71 -0.000197   -0.17    179.54   
    58. D(O  14,C  10,C   8,H   9)    113.21 -0.000245    0.88    114.09   
    59. D(H  11,C  10,C   8,H   9)      6.38  0.000603   -2.91      3.47   
    60. D(H  11,C  10,C   8,C   6)   -173.32  0.000654   -2.73   -176.05   
    61. D(C   1,C  10,C   8,H   9)   -178.78 -0.000299    0.33   -178.45   
    62. D(C   1,C  10,C   8,C   6)      1.52 -0.000248    0.51      2.03   
    63. D(O  14,C  10,C   1,C   2)     65.67 -0.000957   -0.55     65.12   
    64. D(O  14,C  10,C   1,H   0)   -113.67 -0.000724   -0.40   -114.07   
    65. D(H  11,C  10,C   1,C   2)    174.30 -0.000236    2.36    176.65   
    66. D(H  11,C  10,C   1,H   0)     -5.04 -0.000004    2.51     -2.53   
    67. D(O  14,C  10,C   8,C   6)    -66.50 -0.000194    1.06    -65.43   
    68. D(C   8,C  10,C   1,C   2)     -0.59  0.000565   -0.72     -1.32   
    69. D(C   8,C  10,C   1,H   0)   -179.93  0.000798   -0.58   -180.50   
    70. D(N  12,O  14,C  10,H  11)     -8.40 -0.000462    0.85     -7.55   
    71. D(N  12,O  14,C  10,C   8)   -125.55 -0.001141    1.15   -124.40   
    72. D(N  12,O  14,C  10,C   1)    108.81 -0.000824    2.10    110.90   
    73. D(C  10,O  14,N  12,O  13)    131.92  0.000418  -10.06    121.87   
    ----------------------------------------------------------------------------




    ----------------------------------------------------------------------------
                                  WARNING !!!
       The optimization did not converge but reached the maximum number of
       optimization cycles.
       Please check your results very carefully.
    ----------------------------------------------------------------------------



                            ***************************************
                            *     ORCA property calculations      *
                            ***************************************

                                    ---------------------
                                    Active property flags
                                    ---------------------
   (+) Dipole Moment


------------------------------------------------------------------------------
                       ORCA ELECTRIC PROPERTIES CALCULATION
------------------------------------------------------------------------------

Dipole Moment Calculation                       ... on
Quadrupole Moment Calculation                   ... off
Polarizability Calculation                      ... off
GBWName                                         ... benzen_nitrodioxid_opt.gbw
Electron density                                ... benzen_nitrodioxid_opt.scfp
The origin for moment calculation is the CENTER OF MASS  = ( 3.119131,  0.596665 -0.037787)

-------------
DIPOLE MOMENT
-------------
                                X             Y             Z
Electronic contribution:      8.68215       1.59847       2.88746
Nuclear contribution   :     -6.83538      -1.54456      -1.79887
                        -----------------------------------------
Total Dipole Moment    :      1.84677       0.05391       1.08860
                        -----------------------------------------
Magnitude (a.u.)       :      2.14441
Magnitude (Debye)      :      5.45067



--------------------
Rotational spectrum 
--------------------
 
Rotational constants in cm-1:     0.094435     0.034539     0.034452 
Rotational constants in MHz :  2831.099024  1035.465686  1032.848363 

 Dipole components along the rotational axes: 
x,y,z [a.u.] :    -2.009548    -0.654278    -0.363528 
x,y,z [Debye]:    -5.107865    -1.663042    -0.924014 

 

Timings for individual modules:

Sum of individual times         ...     6186.828 sec (= 103.114 min)
GTO integral calculation        ...       20.540 sec (=   0.342 min)   0.3 %
SCF iterations                  ...     5088.983 sec (=  84.816 min)  82.3 %
SCF Gradient evaluation         ...     1071.301 sec (=  17.855 min)  17.3 %
Geometry relaxation             ...        6.004 sec (=   0.100 min)   0.1 %
                             ****ORCA TERMINATED NORMALLY****
TOTAL RUN TIME: 0 days 1 hours 43 minutes 26 seconds 142 msec
