
                                 *****************
                                 * O   R   C   A *
                                 *****************

                                            #,                                       
                                            ###                                      
                                            ####                                     
                                            #####                                    
                                            ######                                   
                                           ########,                                 
                                     ,,################,,,,,                         
                               ,,#################################,,                 
                          ,,##########################################,,             
                       ,#########################################, ''#####,          
                    ,#############################################,,   '####,        
                  ,##################################################,,,,####,       
                ,###########''''           ''''###############################       
              ,#####''   ,,,,##########,,,,          '''####'''          '####       
            ,##' ,,,,###########################,,,                        '##       
           ' ,,###''''                  '''############,,,                           
         ,,##''                                '''############,,,,        ,,,,,,###''
      ,#''                                            '''#######################'''  
     '                                                          ''''####''''         
             ,#######,   #######,   ,#######,      ##                                
            ,#'     '#,  ##    ##  ,#'     '#,    #''#        ######   ,####,        
            ##       ##  ##   ,#'  ##            #'  '#       #        #'  '#        
            ##       ##  #######   ##           ,######,      #####,   #    #        
            '#,     ,#'  ##    ##  '#,     ,#' ,#      #,         ##   #,  ,#        
             '#######'   ##     ##  '#######'  #'      '#     #####' # '####'        



                  #######################################################
                  #                        -***-                        #
                  #          Department of theory and spectroscopy      #
                  #    Directorship and core code : Frank Neese         #
                  #        Max Planck Institute fuer Kohlenforschung    #
                  #                Kaiser Wilhelm Platz 1               #
                  #                 D-45470 Muelheim/Ruhr               #
                  #                      Germany                        #
                  #                                                     #
                  #                  All rights reserved                #
                  #                        -***-                        #
                  #######################################################



                         Program Version 5.0.4 -  RELEASE  -

 With contributions from (in alphabetic order):
   Daniel Aravena         : Magnetic Suceptibility
   Michael Atanasov       : Ab Initio Ligand Field Theory (pilot matlab implementation)
   Alexander A. Auer      : GIAO ZORA, VPT2 properties, NMR spectrum
   Ute Becker             : Parallelization
   Giovanni Bistoni       : ED, misc. LED, open-shell LED, HFLD
   Martin Brehm           : Molecular dynamics
   Dmytro Bykov           : SCF Hessian
   Vijay G. Chilkuri      : MRCI spin determinant printing, contributions to CSF-ICE
   Dipayan Datta          : RHF DLPNO-CCSD density
   Achintya Kumar Dutta   : EOM-CC, STEOM-CC
   Dmitry Ganyushin       : Spin-Orbit,Spin-Spin,Magnetic field MRCI
   Miquel Garcia          : C-PCM and meta-GGA Hessian, CC/C-PCM, Gaussian charge scheme
   Yang Guo               : DLPNO-NEVPT2, F12-NEVPT2, CIM, IAO-localization
   Andreas Hansen         : Spin unrestricted coupled pair/coupled cluster methods
   Benjamin Helmich-Paris : MC-RPA, TRAH-SCF, COSX integrals
   Lee Huntington         : MR-EOM, pCC
   Robert Izsak           : Overlap fitted RIJCOSX, COSX-SCS-MP3, EOM
   Marcus Kettner         : VPT2
   Christian Kollmar      : KDIIS, OOCD, Brueckner-CCSD(T), CCSD density, CASPT2, CASPT2-K
   Simone Kossmann        : Meta GGA functionals, TD-DFT gradient, OOMP2, MP2 Hessian
   Martin Krupicka        : Initial AUTO-CI
   Lucas Lang             : DCDCAS
   Marvin Lechner         : AUTO-CI (C++ implementation), FIC-MRCC
   Dagmar Lenk            : GEPOL surface, SMD
   Dimitrios Liakos       : Extrapolation schemes; Compound Job, initial MDCI parallelization
   Dimitrios Manganas     : Further ROCIS development; embedding schemes
   Dimitrios Pantazis     : SARC Basis sets
   Anastasios Papadopoulos: AUTO-CI, single reference methods and gradients
   Taras Petrenko         : DFT Hessian,TD-DFT gradient, ASA, ECA, R-Raman, ABS, FL, XAS/XES, NRVS
   Peter Pinski           : DLPNO-MP2, DLPNO-MP2 Gradient
   Christoph Reimann      : Effective Core Potentials
   Marius Retegan         : Local ZFS, SOC
   Christoph Riplinger    : Optimizer, TS searches, QM/MM, DLPNO-CCSD(T), (RO)-DLPNO pert. Triples
   Tobias Risthaus        : Range-separated hybrids, TD-DFT gradient, RPA, STAB
   Michael Roemelt        : Original ROCIS implementation
   Masaaki Saitow         : Open-shell DLPNO-CCSD energy and density
   Barbara Sandhoefer     : DKH picture change effects
   Avijit Sen             : IP-ROCIS
   Kantharuban Sivalingam : CASSCF convergence, NEVPT2, FIC-MRCI
   Bernardo de Souza      : ESD, SOC TD-DFT
   Georgi Stoychev        : AutoAux, RI-MP2 NMR, DLPNO-MP2 response
   Willem Van den Heuvel  : Paramagnetic NMR
   Boris Wezisla          : Elementary symmetry handling
   Frank Wennmohs         : Technical directorship


 We gratefully acknowledge several colleagues who have allowed us to
 interface, adapt or use parts of their codes:
   Stefan Grimme, W. Hujo, H. Kruse, P. Pracht,  : VdW corrections, initial TS optimization,
                  C. Bannwarth, S. Ehlert          DFT functionals, gCP, sTDA/sTD-DF
   Ed Valeev, F. Pavosevic, A. Kumar             : LibInt (2-el integral package), F12 methods
   Garnet Chan, S. Sharma, J. Yang, R. Olivares  : DMRG
   Ulf Ekstrom                                   : XCFun DFT Library
   Mihaly Kallay                                 : mrcc  (arbitrary order and MRCC methods)
   Jiri Pittner, Ondrej Demel                    : Mk-CCSD
   Frank Weinhold                                : gennbo (NPA and NBO analysis)
   Christopher J. Cramer and Donald G. Truhlar   : smd solvation model
   Lars Goerigk                                  : TD-DFT with DH, B97 family of functionals
   V. Asgeirsson, H. Jonsson                     : NEB implementation
   FAccTs GmbH                                   : IRC, NEB, NEB-TS, DLPNO-Multilevel, CI-OPT
                                                   MM, QMMM, 2- and 3-layer-ONIOM, Crystal-QMMM,
                                                   LR-CPCM, SF, NACMEs, symmetry and pop. for TD-DFT,
                                                   nearIR, NL-DFT gradient (VV10), updates on ESD,
                                                   ML-optimized integration grids
   S Lehtola, MJT Oliveira, MAL Marques          : LibXC Library
   Liviu Ungur et al                             : ANISO software


 Your calculation uses the libint2 library for the computation of 2-el integrals
 For citations please refer to: http://libint.valeyev.net

 Your ORCA version has been built with support for libXC version: 5.1.0
 For citations please refer to: https://tddft.org/programs/libxc/

 This ORCA versions uses:
   CBLAS   interface :  Fast vector & matrix operations
   LAPACKE interface :  Fast linear algebra routines
   Shared memory     :  Shared parallel matrices


Your calculation utilizes the atom-pairwise dispersion correction
based on tight binding partial charges (D4)
Cite in your paper:
E.Caldeweyher, C.Bannwarth, S.Grimme, J.Chem.Phys., (2017), 147, 034112.
E.Caldeweyher, S.Ehlert, A.Hansen, H.Neugebauer, S.Grimme, J.Chem.Phys., (2018), in progress.
   

================================================================================

----- Orbital basis set information -----
Your calculation utilizes the basis: def2-SVP
   F. Weigend and R. Ahlrichs, Phys. Chem. Chem. Phys. 7, 3297 (2005).

----- AuxJ basis set information -----
Your calculation utilizes the auxiliary basis: def2/J
   F. Weigend, Phys. Chem. Chem. Phys. 8, 1057 (2006).

================================================================================
                                        WARNINGS
                       Please study these warnings very carefully!
================================================================================


WARNING: Geometry Optimization
  ===> : Switching off AutoStart
         For restart on a previous wavefunction, please use MOREAD

INFO   : the flag for use of the SHARK integral package has been found!



***************************************
The coordinates will be read from file: first_job.xyz
***************************************


Your calculation utilizes the atom-pairwise dispersion correction
based on tight binding partial charges (D4)
Cite in your paper:
E.Caldeweyher, C.Bannwarth, S.Grimme, J.Chem.Phys., (2017), 147, 034112.
E.Caldeweyher, S.Ehlert, A.Hansen, H.Neugebauer, S.Grimme, J.Chem.Phys., (2018), in progress.
   

================================================================================

----- Orbital basis set information -----
Your calculation utilizes the basis: def2-QZVP
   F. Weigend and R. Ahlrichs, Phys. Chem. Chem. Phys. 7, 3297 (2005).

----- AuxJ basis set information -----
Your calculation utilizes the auxiliary basis: def2/J
   F. Weigend, Phys. Chem. Chem. Phys. 8, 1057 (2006).

================================================================================
                                        WARNINGS
                       Please study these warnings very carefully!
================================================================================


INFO   : the flag for use of the SHARK integral package has been found!

================================================================================
                                       INPUT FILE
================================================================================
NAME = opt.inp
|  1> !B3LYP DEF2-SVP D4 OPT FREQ SOSCF
|  2> 
|  3> %Base "first_job"
|  4> 
|  5> * xyz 0 1
|  6>    C       -2.59009       -1.69192        0.01756
|  7>    C       -3.78642       -0.74430       -0.02159
|  8>    C       -5.10813       -1.52043        0.01028
|  9>    H       -3.73373       -0.13639       -0.95127
| 10>    H       -3.73389       -0.06195        0.85491
| 11>    C       -6.30668       -0.56547       -0.02921
| 12>    H       -5.15419       -2.12889        0.94056
| 13>    H       -5.15401       -2.20339       -0.86678
| 14>    C       -7.62470       -1.33380        0.00231
| 15>    H       -6.26884        0.04361       -0.95872
| 16>    H       -6.26903        0.11803        0.84704
| 17>    H       -7.69868       -2.00988       -0.87606
| 18>    H       -8.47344       -0.61843       -0.02727
| 19>    H       -7.69889       -1.93530        0.93333
| 20>    F       -1.41674       -0.96085       -0.01247
| 21>    H       -2.61093       -2.37313       -0.85973
| 22>    H       -2.61108       -2.29862        0.94793
| 23> *
| 24> 
| 25> $new_job
| 26> 
| 27> !B3LYP DEF2-QZVP
| 28> 
| 29> %base "second_job"
| 30> 
| 31> %scf
| 32> convergence tight
| 33> end
| 34> 
| 35> * XYZfile 0 1 first_job.xyz
| 36> 
| 37>                          ****END OF INPUT****
================================================================================


                 $$$$$$$$$$$$$$$$$$$$$$$$$$$$$$$$$$$$$$$$$$$$$$ 
                 $ THERE ARE  2 JOBS TO BE PROCESSED THIS RUN $
                 $$$$$$$$$$$$$$$$$$$$$$$$$$$$$$$$$$$$$$$$$$$$$$ 




                 $$$$$$$$$$$$$$$$  JOB NUMBER  1 $$$$$$$$$$$$$$


                       *****************************
                       * Geometry Optimization Run *
                       *****************************

Geometry optimization settings:
Update method            Update   .... BFGS
Choice of coordinates    CoordSys .... Z-matrix Internals
Initial Hessian          InHess   .... Almoef's Model

Convergence Tolerances:
Energy Change            TolE     ....  5.0000e-06 Eh
Max. Gradient            TolMAXG  ....  3.0000e-04 Eh/bohr
RMS Gradient             TolRMSG  ....  1.0000e-04 Eh/bohr
Max. Displacement        TolMAXD  ....  4.0000e-03 bohr
RMS Displacement         TolRMSD  ....  2.0000e-03 bohr
Strict Convergence                ....  False
------------------------------------------------------------------------------
                        ORCA OPTIMIZATION COORDINATE SETUP
------------------------------------------------------------------------------

The optimization will be done in new redundant internal coordinates
Making redundant internal coordinates   ...  (new redundants) done
Evaluating the initial hessian          ...  (Almloef) done
Evaluating the coordinates              ...  done
Calculating the B-matrix                .... done
Calculating the G-matrix                .... done
Diagonalizing the G-matrix              .... done
Small eigenvalue found = 2.212e-02
The first mode is                       ....   37
The number of degrees of freedom        ....   45

    -----------------------------------------------------------------
                    Redundant Internal Coordinates


    -----------------------------------------------------------------
         Definition                    Initial Value    Approx d2E/dq
    -----------------------------------------------------------------
      1. B(C   1,C   0)                  1.5267         0.378173   
      2. B(C   2,C   1)                  1.5331         0.369382   
      3. B(H   3,C   1)                  1.1120         0.332091   
      4. B(H   4,C   1)                  1.1120         0.332104   
      5. B(C   5,C   2)                  1.5330         0.369506   
      6. B(H   6,C   2)                  1.1125         0.331472   
      7. B(H   7,C   2)                  1.1126         0.331468   
      8. B(C   8,C   5)                  1.5259         0.379185   
      9. B(H   9,C   5)                  1.1119         0.332221   
     10. B(H  10,C   5)                  1.1119         0.332219   
     11. B(H  11,C   8)                  1.1109         0.333491   
     12. B(H  12,C   8)                  1.1104         0.334099   
     13. B(H  13,C   8)                  1.1109         0.333483   
     14. B(F  14,C   0)                  1.3828         0.533907   
     15. B(H  15,C   0)                  1.1109         0.333475   
     16. B(H  16,C   0)                  1.1109         0.333478   
     17. A(H  15,C   0,H  16)          109.0338         0.283942   
     18. A(C   1,C   0,F  14)          109.6461         0.383165   
     19. A(F  14,C   0,H  16)          108.8417         0.336280   
     20. A(C   1,C   0,H  16)          110.2220         0.320905   
     21. A(C   1,C   0,H  15)          110.2226         0.320904   
     22. A(F  14,C   0,H  15)          108.8421         0.336279   
     23. A(C   2,C   1,H   4)          109.5715         0.319458   
     24. A(C   2,C   1,H   3)          109.5713         0.319456   
     25. A(H   3,C   1,H   4)          108.7397         0.283577   
     26. A(C   0,C   1,C   2)          111.1500         0.363410   
     27. A(C   0,C   1,H   4)          108.8834         0.320688   
     28. A(C   0,C   1,H   3)          108.8825         0.320686   
     29. A(C   1,C   2,C   5)          110.9864         0.361974   
     30. A(H   6,C   2,H   7)          108.7684         0.283410   
     31. A(C   5,C   2,H   7)          109.2600         0.319376   
     32. A(C   1,C   2,H   7)          109.2651         0.319358   
     33. A(C   5,C   2,H   6)          109.2604         0.319376   
     34. A(C   1,C   2,H   6)          109.2658         0.319359   
     35. A(C   8,C   5,H   9)          108.8122         0.320847   
     36. A(C   2,C   5,H   9)          109.6427         0.319494   
     37. A(C   2,C   5,C   8)          111.1689         0.363597   
     38. A(H   9,C   5,H  10)          108.7169         0.283609   
     39. A(C   8,C   5,H  10)          108.8126         0.320846   
     40. A(C   2,C   5,H  10)          109.6422         0.319493   
     41. A(H  12,C   8,H  13)          108.6694         0.284025   
     42. A(H  11,C   8,H  13)          109.1890         0.283945   
     43. A(C   5,C   8,H  13)          110.3420         0.321046   
     44. A(H  11,C   8,H  12)          108.6699         0.284026   
     45. A(C   5,C   8,H  12)          109.5889         0.321143   
     46. A(C   5,C   8,H  11)          110.3418         0.321047   
     47. D(H   3,C   1,C   0,H  16)    179.0057         0.011404   
     48. D(H   4,C   1,C   0,H  16)     60.5910         0.011404   
     49. D(H   4,C   1,C   0,H  15)   -179.0061         0.011404   
     50. D(H   3,C   1,C   0,F  14)     59.2076         0.011404   
     51. D(C   2,C   1,C   0,H  16)    -60.2021         0.011404   
     52. D(H   3,C   1,C   0,H  15)    -60.5914         0.011404   
     53. D(C   2,C   1,C   0,H  15)     60.2008         0.011404   
     54. D(C   2,C   1,C   0,F  14)    179.9998         0.011404   
     55. D(H   4,C   1,C   0,F  14)    -59.2071         0.011404   
     56. D(H   6,C   2,C   1,H   3)    179.8345         0.010910   
     57. D(C   5,C   2,C   1,H   4)     59.6144         0.010910   
     58. D(C   5,C   2,C   1,H   3)    -59.6127         0.010910   
     59. D(C   5,C   2,C   1,C   0)   -179.9985         0.010910   
     60. D(H   6,C   2,C   1,H   4)    -60.9384         0.010910   
     61. D(H   7,C   2,C   1,H   4)   -179.8338         0.010910   
     62. D(H   7,C   2,C   1,H   3)     60.9391         0.010910   
     63. D(H   7,C   2,C   1,C   0)    -59.4467         0.010910   
     64. D(H   6,C   2,C   1,C   0)     59.4487         0.010910   
     65. D(H  10,C   5,C   2,H   6)     60.9121         0.010916   
     66. D(H  10,C   5,C   2,C   1)    -59.6439         0.010916   
     67. D(H   9,C   5,C   2,H   7)    -60.9132         0.010916   
     68. D(H   9,C   5,C   2,H   6)   -179.8023         0.010916   
     69. D(H   9,C   5,C   2,C   1)     59.6417         0.010916   
     70. D(C   8,C   5,C   2,H   7)     59.4440         0.010916   
     71. D(C   8,C   5,C   2,H   6)    -59.4452         0.010916   
     72. D(H  10,C   5,C   2,H   7)    179.8012         0.010916   
     73. D(C   8,C   5,C   2,C   1)    179.9988         0.010916   
     74. D(H  12,C   8,C   5,C   2)   -179.9998         0.011462   
     75. D(H  11,C   8,C   5,H  10)    178.7783         0.011462   
     76. D(H  11,C   8,C   5,H   9)     60.4717         0.011462   
     77. D(H  11,C   8,C   5,C   2)    -60.3752         0.011462   
     78. D(H  13,C   8,C   5,H  10)    -60.4704         0.011462   
     79. D(H  13,C   8,C   5,H   9)   -178.7770         0.011462   
     80. D(H  13,C   8,C   5,C   2)     60.3761         0.011462   
     81. D(H  12,C   8,C   5,H  10)     59.1537         0.011462   
     82. D(H  12,C   8,C   5,H   9)    -59.1529         0.011462   
    -----------------------------------------------------------------

Number of atoms                         .... 17
Number of degrees of freedom            .... 82

         *************************************************************
         *                GEOMETRY OPTIMIZATION CYCLE   1            *
         *************************************************************
---------------------------------
CARTESIAN COORDINATES (ANGSTROEM)
---------------------------------
  C     -2.590090   -1.691920    0.017560
  C     -3.786420   -0.744300   -0.021590
  C     -5.108130   -1.520430    0.010280
  H     -3.733730   -0.136390   -0.951270
  H     -3.733890   -0.061950    0.854910
  C     -6.306680   -0.565470   -0.029210
  H     -5.154190   -2.128890    0.940560
  H     -5.154010   -2.203390   -0.866780
  C     -7.624700   -1.333800    0.002310
  H     -6.268840    0.043610   -0.958720
  H     -6.269030    0.118030    0.847040
  H     -7.698680   -2.009880   -0.876060
  H     -8.473440   -0.618430   -0.027270
  H     -7.698890   -1.935300    0.933330
  F     -1.416740   -0.960850   -0.012470
  H     -2.610930   -2.373130   -0.859730
  H     -2.611080   -2.298620    0.947930

----------------------------
CARTESIAN COORDINATES (A.U.)
----------------------------
  NO LB      ZA    FRAG     MASS         X           Y           Z
   0 C     6.0000    0    12.011   -4.894561   -3.197265    0.033184
   1 C     6.0000    0    12.011   -7.155297   -1.406523   -0.040799
   2 C     6.0000    0    12.011   -9.652967   -2.873196    0.019426
   3 H     1.0000    0     1.008   -7.055727   -0.257740   -1.797640
   4 H     1.0000    0     1.008   -7.056030   -0.117069    1.615546
   5 C     6.0000    0    12.011  -11.917898   -1.068583   -0.055199
   6 H     1.0000    0     1.008   -9.740008   -4.023019    1.777401
   7 H     1.0000    0     1.008   -9.739667   -4.163804   -1.637977
   8 C     6.0000    0    12.011  -14.408595   -2.520517    0.004365
   9 H     1.0000    0     1.008  -11.846391    0.082411   -1.811718
  10 H     1.0000    0     1.008  -11.846750    0.223044    1.600674
  11 H     1.0000    0     1.008  -14.548397   -3.798123   -1.655513
  12 H     1.0000    0     1.008  -16.012481   -1.168663   -0.051533
  13 H     1.0000    0     1.008  -14.548794   -3.657187    1.763738
  14 F     9.0000    0    18.998   -2.677251   -1.815743   -0.023565
  15 H     1.0000    0     1.008   -4.933943   -4.484566   -1.624654
  16 H     1.0000    0     1.008   -4.934226   -4.343762    1.791328

--------------------------------
INTERNAL COORDINATES (ANGSTROEM)
--------------------------------
 C      0   0   0     0.000000000000     0.00000000     0.00000000
 C      1   0   0     1.526670185666     0.00000000     0.00000000
 C      2   1   0     1.533072339422   111.15002801     0.00000000
 H      2   1   3     1.112041234218   108.88248157   239.20776892
 H      2   1   3     1.112031102713   108.88338414   120.79308268
 C      3   2   1     1.532980810121   110.98637164   180.00149397
 H      3   2   1     1.112549312885   109.26578329    59.44868272
 H      3   2   1     1.112552731155   109.26514711   300.55330078
 C      6   3   2     1.525942731461   111.16891742   179.99884252
 H      6   3   2     1.111934868641   109.64274921    59.64170460
 H      6   3   2     1.111936974383   109.64222458   300.35608552
 H      9   6   3     1.110896513497   110.34182608   299.62480580
 H      9   6   3     1.110400288590   109.58894953   180.00016853
 H      9   6   3     1.110902626921   110.34195090    60.37611599
 F      1   2   3     1.382792597717   109.64611484   179.99981469
 H      1   2   3     1.110909138409   110.22260296    60.20080307
 H      1   2   3     1.110906749912   110.22204614   299.79794836

---------------------------
INTERNAL COORDINATES (A.U.)
---------------------------
 C      0   0   0     0.000000000000     0.00000000     0.00000000
 C      1   0   0     2.884988547731     0.00000000     0.00000000
 C      2   1   0     2.897086864997   111.15002801     0.00000000
 H      2   1   3     2.101453382299   108.88248157   239.20776892
 H      2   1   3     2.101434236529   108.88338414   120.79308268
 C      3   2   1     2.896913899686   110.98637164   180.00149397
 H      3   2   1     2.102413511834   109.26578329    59.44868272
 H      3   2   1     2.102419971429   109.26514711   300.55330078
 C      6   3   2     2.883613858510   111.16891742   179.99884252
 H      6   3   2     2.101252380489   109.64274921    59.64170460
 H      6   3   2     2.101256359765   109.64222458   300.35608552
 H      9   6   3     2.099290173637   110.34182608   299.62480580
 H      9   6   3     2.098352444462   109.58894953   180.00016853
 H      9   6   3     2.099301726334   110.34195090    60.37611599
 F      1   2   3     2.613099309698   109.64611484   179.99981469
 H      1   2   3     2.099314031263   110.22260296    60.20080307
 H      1   2   3     2.099309517658   110.22204614   299.79794836

---------------------
BASIS SET INFORMATION
---------------------
There are 3 groups of distinct atoms

 Group   1 Type C   : 7s4p1d contracted to 3s2p1d pattern {511/31/1}
 Group   2 Type H   : 4s1p contracted to 2s1p pattern {31/1}
 Group   3 Type F   : 7s4p1d contracted to 3s2p1d pattern {511/31/1}

Atom   0C    basis set group =>   1
Atom   1C    basis set group =>   1
Atom   2C    basis set group =>   1
Atom   3H    basis set group =>   2
Atom   4H    basis set group =>   2
Atom   5C    basis set group =>   1
Atom   6H    basis set group =>   2
Atom   7H    basis set group =>   2
Atom   8C    basis set group =>   1
Atom   9H    basis set group =>   2
Atom  10H    basis set group =>   2
Atom  11H    basis set group =>   2
Atom  12H    basis set group =>   2
Atom  13H    basis set group =>   2
Atom  14F    basis set group =>   3
Atom  15H    basis set group =>   2
Atom  16H    basis set group =>   2
---------------------------------
AUXILIARY/J BASIS SET INFORMATION
---------------------------------
There are 3 groups of distinct atoms

 Group   1 Type C   : 12s5p4d2f1g contracted to 6s4p3d1f1g pattern {711111/2111/211/2/1}
 Group   2 Type H   : 5s2p1d contracted to 3s1p1d pattern {311/2/1}
 Group   3 Type F   : 12s5p4d2f1g contracted to 6s4p3d1f1g pattern {711111/2111/211/2/1}

Atom   0C    basis set group =>   1
Atom   1C    basis set group =>   1
Atom   2C    basis set group =>   1
Atom   3H    basis set group =>   2
Atom   4H    basis set group =>   2
Atom   5C    basis set group =>   1
Atom   6H    basis set group =>   2
Atom   7H    basis set group =>   2
Atom   8C    basis set group =>   1
Atom   9H    basis set group =>   2
Atom  10H    basis set group =>   2
Atom  11H    basis set group =>   2
Atom  12H    basis set group =>   2
Atom  13H    basis set group =>   2
Atom  14F    basis set group =>   3
Atom  15H    basis set group =>   2
Atom  16H    basis set group =>   2
------------------------------------------------------------------------------
                           ORCA GTO INTEGRAL CALCULATION
                           -- RI-GTO INTEGRALS CHOSEN --
------------------------------------------------------------------------------
------------------------------------------------------------------------------
                   ___                                                        
                  /   \      - P O W E R E D   B Y -                         
                 /     \                                                     
                 |  |  |   _    _      __       _____    __    __             
                 |  |  |  | |  | |    /  \     |  _  \  |  |  /  |          
                  \  \/   | |  | |   /    \    | | | |  |  | /  /          
                 / \  \   | |__| |  /  /\  \   | |_| |  |  |/  /          
                |  |  |   |  __  | /  /__\  \  |    /   |      \           
                |  |  |   | |  | | |   __   |  |    \   |  |\   \          
                \     /   | |  | | |  |  |  |  | |\  \  |  | \   \       
                 \___/    |_|  |_| |__|  |__|  |_| \__\ |__|  \__/        
                                                                              
                      - O R C A' S   B I G   F R I E N D -                    
                                      &                                       
                       - I N T E G R A L  F E E D E R -                       
                                                                              
 v1 FN, 2020, v2 2021                                                         
------------------------------------------------------------------------------


Reading SHARK input file first_job.SHARKINP.tmp ... ok
----------------------
SHARK INTEGRAL PACKAGE
----------------------

Number of atoms                             ...     17
Number of basis functions                   ...    139
Number of shells                            ...     69
Maximum angular momentum                    ...      2
Integral batch strategy                     ... SHARK/LIBINT Hybrid
RI-J (if used) integral strategy            ... SPLIT-RIJ (Revised 2003 algorithm where possible)
Printlevel                                  ...      1
Contraction scheme used                     ... SEGMENTED contraction
Coulomb Range Separation                    ... NOT USED
Exchange Range Separation                   ... NOT USED
Finite Nucleus Model                        ... NOT USED
Auxiliary Coulomb fitting basis             ... AVAILABLE
   # of basis functions in Aux-J            ...    415
   # of shells in Aux-J                     ...    145
   Maximum angular momentum in Aux-J        ...      4
Auxiliary J/K fitting basis                 ... NOT available
Auxiliary Correlation fitting basis         ... NOT available
Auxiliary 'external' fitting basis          ... NOT available
Integral threshold                          ...     2.500000e-11
Primitive cut-off                           ...     2.500000e-12
Primitive pair pre-selection threshold      ...     2.500000e-12

Calculating pre-screening integrals         ... done (  0.1 sec) Dimension = 69
Organizing shell pair data                  ... done (  0.1 sec)
Shell pair information
Total number of shell pairs                 ...      2415
Shell pairs after pre-screening             ...      2246
Total number of primitive shell pairs       ...      8239
Primitive shell pairs kept                  ...      5916
          la=0 lb=0:    778 shell pairs
          la=1 lb=0:    860 shell pairs
          la=1 lb=1:    249 shell pairs
          la=2 lb=0:    218 shell pairs
          la=2 lb=1:    123 shell pairs
          la=2 lb=2:     18 shell pairs

Calculating one electron integrals          ... done (  0.0 sec)
Calculating RI/J V-Matrix + Cholesky decomp.... done (  0.1 sec)
Calculating Nuclear repulsion               ... done (  0.0 sec) ENN=    241.967842501753 Eh

SHARK setup successfully completed in   0.5 seconds

Maximum memory used throughout the entire GTOINT-calculation: 15.0 MB
-------------------------------------------------------------------------------
                                 ORCA SCF
-------------------------------------------------------------------------------

------------
SCF SETTINGS
------------
Hamiltonian:
 Density Functional     Method          .... DFT(GTOs)
 Exchange Functional    Exchange        .... B88
   X-Alpha parameter    XAlpha          ....  0.666667
   Becke's b parameter  XBeta           ....  0.004200
 Correlation Functional Correlation     .... LYP
 LDA part of GGA corr.  LDAOpt          .... VWN-5
 Gradients option       PostSCFGGA      .... off
 Hybrid DFT is turned on
   Fraction HF Exchange ScalHFX         ....  0.200000
   Scaling of DF-GGA-X  ScalDFX         ....  0.720000
   Scaling of DF-GGA-C  ScalDFC         ....  0.810000
   Scaling of DF-LDA-C  ScalLDAC        ....  1.000000
   Perturbative correction              ....  0.000000
   Density functional embedding theory  .... OFF
   NL short-range parameter             ....  4.800000
 RI-approximation to the Coulomb term is turned on
   Number of AuxJ basis functions       .... 415
   RIJ-COSX (HFX calculated with COS-X)).... on


General Settings:
 Integral files         IntName         .... first_job
 Hartree-Fock type      HFTyp           .... RHF
 Total Charge           Charge          ....    0
 Multiplicity           Mult            ....    1
 Number of Electrons    NEL             ....   50
 Basis Dimension        Dim             ....  139
 Nuclear Repulsion      ENuc            ....    241.9678425018 Eh

Convergence Acceleration:
 DIIS                   CNVDIIS         .... on
   Start iteration      DIISMaxIt       ....    12
   Startup error        DIISStart       ....  0.200000
   # of expansion vecs  DIISMaxEq       ....     5
   Bias factor          DIISBfac        ....   1.050
   Max. coefficient     DIISMaxC        ....  10.000
 Trust-Rad. Augm. Hess. CNVTRAH         .... auto
   Auto Start mean grad. ratio tolernc. ....  1.125000
   Auto Start start iteration           ....    20
   Auto Start num. interpolation iter.  ....    10
   Max. Number of Micro iterations      ....    16
   Max. Number of Macro iterations      .... Maxiter - #DIIS iter
   Number of Davidson start vectors     ....     2
   Converg. threshold I  (grad. norm)   ....   1.000e-05
   Converg. threshold II (energy diff.) ....   1.000e-08
   Grad. Scal. Fac. for Micro threshold ....   0.100
   Minimum threshold for Micro iter.    ....   0.010
   NR start threshold (gradient norm)   ....   0.001
   Initial trust radius                 ....   0.400
   Minimum AH scaling param. (alpha)    ....   1.000
   Maximum AH scaling param. (alpha)    .... 1000.000
   Orbital update algorithm             .... Taylor
   White noise on init. David. guess    .... on
   Maximum white noise                  ....   0.010
   Quad. conv. algorithm                .... NR
 SOSCF                  CNVSOSCF        .... on
   Start iteration      SOSCFMaxIt      ....   150
   Startup grad/error   SOSCFStart      ....  0.003300
 Level Shifting         CNVShift        .... on
   Level shift para.    LevelShift      ....    0.2500
   Turn off err/grad.   ShiftErr        ....    0.0010
 Zerner damping         CNVZerner       .... off
 Static damping         CNVDamp         .... on
   Fraction old density DampFac         ....    0.7000
   Max. Damping (<1)    DampMax         ....    0.9800
   Min. Damping (>=0)   DampMin         ....    0.0000
   Turn off err/grad.   DampErr         ....    0.1000
 Fernandez-Rico         CNVRico         .... off

SCF Procedure:
 Maximum # iterations   MaxIter         ....   125
 SCF integral mode      SCFMode         .... Direct
   Integral package                     .... SHARK and LIBINT hybrid scheme
 Reset frequency        DirectResetFreq ....    20
 Integral Threshold     Thresh          ....  2.500e-11 Eh
 Primitive CutOff       TCut            ....  2.500e-12 Eh

Convergence Tolerance:
 Convergence Check Mode ConvCheckMode   .... Total+1el-Energy
 Convergence forced     ConvForced      .... 0
 Energy Change          TolE            ....  1.000e-08 Eh
 1-El. energy change                    ....  1.000e-05 Eh
 Orbital Gradient       TolG            ....  1.000e-05
 Orbital Rotation angle TolX            ....  1.000e-05
 DIIS Error             TolErr          ....  5.000e-07


Diagonalization of the overlap matrix:
Smallest eigenvalue                        ... 1.368e-03
Time for diagonalization                   ...    0.010 sec
Threshold for overlap eigenvalues          ... 1.000e-08
Number of eigenvalues below threshold      ... 0
Time for construction of square roots      ...    0.006 sec
Total time needed                          ...    0.016 sec

Time for model grid setup =    1.107 sec

------------------------------
INITIAL GUESS: MODEL POTENTIAL
------------------------------
Loading Hartree-Fock densities                     ... done
Calculating cut-offs                               ... done
Initializing the effective Hamiltonian             ... done
Setting up the integral package (SHARK)            ... done
Starting the Coulomb interaction                   ... done (   0.9 sec)
Reading the grid                                   ... done
Mapping shells                                     ... done
Starting the XC term evaluation                    ... done (   1.2 sec)
  promolecular density results
     # of electrons  =     49.999099895
     EX              =    -38.994422928
     EC              =     -1.639107187
     EX+EC           =    -40.633530114
Transforming the Hamiltonian                       ... done (   0.0 sec)
Diagonalizing the Hamiltonian                      ... done (   0.0 sec)
Back transforming the eigenvectors                 ... done (   0.0 sec)
Now organizing SCF variables                       ... done
                      ------------------
                      INITIAL GUESS DONE (   3.3 sec)
                      ------------------
-------------------
DFT GRID GENERATION
-------------------

General Integration Accuracy     IntAcc      ... 4.388
Radial Grid Type                 RadialGrid  ... OptM3 with GC (2021)
Angular Grid (max. ang.)         AngularGrid ... 4 (Lebedev-302)
Angular grid pruning method      GridPruning ... 4 (adaptive)
Weight generation scheme         WeightScheme... Becke
Basis function cutoff            BFCut       ... 1.0000e-11
Integration weight cutoff        WCut        ... 1.0000e-14
Angular grids for H and He will be reduced by one unit
Partially contracted basis set               ... off
Rotationally invariant grid construction     ... off

Total number of grid points                  ...    71555
Total number of batches                      ...     1124
Average number of points per batch           ...       63
Average number of grid points per atom       ...     4209
Time for grid setup =    3.007 sec

--------------------
COSX GRID GENERATION
--------------------

GRIDX 1
-------
General Integration Accuracy     IntAcc      ... 3.816
Radial Grid Type                 RadialGrid  ... OptM3 with GC (2021)
Angular Grid (max. ang.)         AngularGrid ... 1 (Lebedev-50)
Angular grid pruning method      GridPruning ... 4 (adaptive)
Weight generation scheme         WeightScheme... Becke
Basis function cutoff            BFCut       ... 1.0000e-11
Integration weight cutoff        WCut        ... 1.0000e-14
Angular grids for H and He will be reduced by one unit
Partially contracted basis set               ... on
Rotationally invariant grid construction     ... off

Total number of grid points                  ...     9174
Total number of batches                      ...      154
Average number of points per batch           ...       59
Average number of grid points per atom       ...      540
UseSFitting                                  ... on

GRIDX 2
-------
General Integration Accuracy     IntAcc      ... 4.020
Radial Grid Type                 RadialGrid  ... OptM3 with GC (2021)
Angular Grid (max. ang.)         AngularGrid ... 2 (Lebedev-110)
Angular grid pruning method      GridPruning ... 4 (adaptive)
Weight generation scheme         WeightScheme... Becke
Basis function cutoff            BFCut       ... 1.0000e-11
Integration weight cutoff        WCut        ... 1.0000e-14
Angular grids for H and He will be reduced by one unit
Partially contracted basis set               ... on
Rotationally invariant grid construction     ... off

Total number of grid points                  ...    19203
Total number of batches                      ...      308
Average number of points per batch           ...       62
Average number of grid points per atom       ...     1130
UseSFitting                                  ... on

GRIDX 3
-------
General Integration Accuracy     IntAcc      ... 4.338
Radial Grid Type                 RadialGrid  ... OptM3 with GC (2021)
Angular Grid (max. ang.)         AngularGrid ... 3 (Lebedev-194)
Angular grid pruning method      GridPruning ... 4 (adaptive)
Weight generation scheme         WeightScheme... Becke
Basis function cutoff            BFCut       ... 1.0000e-11
Integration weight cutoff        WCut        ... 1.0000e-14
Angular grids for H and He will be reduced by one unit
Partially contracted basis set               ... on
Rotationally invariant grid construction     ... off

Total number of grid points                  ...    42055
Total number of batches                      ...      664
Average number of points per batch           ...       63
Average number of grid points per atom       ...     2474
UseSFitting                                  ... on

Time for X-Grid setup             =    4.212 sec

--------------
SCF ITERATIONS
--------------
ITER       Energy         Delta-E        Max-DP      RMS-DP      [F,P]     Damp
               ***  Starting incremental Fock matrix formation  ***
  0   -296.4262027906   0.000000000000 0.07765322  0.00236068  0.1714217 0.7000
  1   -296.5045767693  -0.078373978699 0.04761292  0.00169137  0.0897856 0.7000
                               ***Turning on DIIS***
  2   -296.5370621013  -0.032485332091 0.06539233  0.00287235  0.0338468 0.0000
  3   -296.5820852735  -0.045023172183 0.03367089  0.00111294  0.0493792 0.0000
  4   -296.5955645630  -0.013479289467 0.00595374  0.00030981  0.0096523 0.0000
                      *** Initiating the SOSCF procedure ***
                           *** Shutting down DIIS ***
                      *** Re-Reading the Fockian *** 
                      *** Removing any level shift *** 
ITER      Energy       Delta-E        Grad      Rot      Max-DP    RMS-DP
  5   -296.59618344  -0.0006188762  0.001054  0.001054  0.002295  0.000120
               *** Restarting incremental Fock matrix formation ***
  6   -296.59637980  -0.0001963565  0.000458  0.001181  0.001514  0.000084
  7   -296.59637945   0.0000003493  0.000473  0.000303  0.000968  0.000029
  8   -296.59638563  -0.0000061867  0.000072  0.000063  0.000462  0.000011
  9   -296.59638559   0.0000000403  0.000091  0.000032  0.000227  0.000005
                  ***Gradient check signals convergence***
              ***Rediagonalizing the Fockian in SOSCF/NRSCF***

               *****************************************************
               *                     SUCCESS                       *
               *           SCF CONVERGED AFTER  10 CYCLES          *
               *****************************************************

Old exchange energy                            =     -7.962336261 Eh
New exchange energy                            =     -7.962335969 Eh
Exchange energy change after final integration =      0.000000293 Eh
Total energy after final integration           =   -296.596385430 Eh
Final COS-X integration done in                =    21.591 sec

----------------
TOTAL SCF ENERGY
----------------

Total Energy       :         -296.59638543 Eh           -8070.79796 eV

Components:
Nuclear Repulsion  :          241.96784250 Eh            6584.27973 eV
Electronic Energy  :         -538.56422793 Eh          -14655.07769 eV
One Electron Energy:         -882.53860530 Eh          -24015.09635 eV
Two Electron Energy:          343.97437737 Eh            9360.01866 eV
Max COSX asymmetry :            0.00001039 Eh               0.00028 eV

Virial components:
Potential Energy   :         -590.16921827 Eh          -16059.32087 eV
Kinetic Energy     :          293.57283284 Eh            7988.52291 eV
Virial Ratio       :            2.01029916


DFT components:
N(Alpha)           :       25.000026200807 electrons
N(Beta)            :       25.000026200807 electrons
N(Total)           :       50.000052401614 electrons
E(X)               :      -31.571944082104 Eh       
E(C)               :       -1.940344725873 Eh       
E(XC)              :      -33.512288807977 Eh       
DFET-embed. en.    :        0.000000000000 Eh       

---------------
SCF CONVERGENCE
---------------

  Last Energy change         ...   -1.3011e-07  Tolerance :   1.0000e-08
  Last MAX-Density change    ...    3.1086e-15  Tolerance :   1.0000e-07
  Last RMS-Density change    ...    4.2674e-17  Tolerance :   5.0000e-09
  Last Orbital Gradient      ...    2.3553e-06  Tolerance :   1.0000e-05
  Last Orbital Rotation      ...    4.9990e-06  Tolerance :   1.0000e-05

             **** THE GBW FILE WAS UPDATED (first_job.gbw) ****
             **** DENSITY first_job.scfp WAS UPDATED ****
             **** ENERGY FILE WAS UPDATED (first_job.en.tmp) ****
             **** THE GBW FILE WAS UPDATED (first_job.gbw) ****
             **** DENSITY first_job.scfp WAS UPDATED ****
----------------
ORBITAL ENERGIES
----------------

  NO   OCC          E(Eh)            E(eV) 
   0   2.0000     -24.651576      -670.8035 
   1   2.0000     -10.252730      -278.9910 
   2   2.0000     -10.188243      -277.2362 
   3   2.0000     -10.185335      -277.1571 
   4   2.0000     -10.184991      -277.1477 
   5   2.0000     -10.179847      -277.0077 
   6   2.0000      -1.155294       -31.4372 
   7   2.0000      -0.800403       -21.7801 
   8   2.0000      -0.744056       -20.2468 
   9   2.0000      -0.663879       -18.0651 
  10   2.0000      -0.594587       -16.1795 
  11   2.0000      -0.573086       -15.5945 
  12   2.0000      -0.498155       -13.5555 
  13   2.0000      -0.482193       -13.1211 
  14   2.0000      -0.462559       -12.5869 
  15   2.0000      -0.448101       -12.1934 
  16   2.0000      -0.421248       -11.4627 
  17   2.0000      -0.408147       -11.1063 
  18   2.0000      -0.379941       -10.3387 
  19   2.0000      -0.355735        -9.6800 
  20   2.0000      -0.350402        -9.5349 
  21   2.0000      -0.337376        -9.1805 
  22   2.0000      -0.331441        -9.0190 
  23   2.0000      -0.322397        -8.7729 
  24   2.0000      -0.308963        -8.4073 
  25   0.0000       0.050479         1.3736 
  26   0.0000       0.072296         1.9673 
  27   0.0000       0.077542         2.1100 
  28   0.0000       0.085084         2.3153 
  29   0.0000       0.109867         2.9896 
  30   0.0000       0.126701         3.4477 
  31   0.0000       0.128244         3.4897 
  32   0.0000       0.140534         3.8241 
  33   0.0000       0.151389         4.1195 
  34   0.0000       0.166787         4.5385 
  35   0.0000       0.167224         4.5504 
  36   0.0000       0.174879         4.7587 
  37   0.0000       0.211536         5.7562 
  38   0.0000       0.228636         6.2215 
  39   0.0000       0.265830         7.2336 
  40   0.0000       0.274148         7.4600 
  41   0.0000       0.401577        10.9275 
  42   0.0000       0.418896        11.3987 
  43   0.0000       0.429036        11.6747 
  44   0.0000       0.432155        11.7595 
  45   0.0000       0.461759        12.5651 
  46   0.0000       0.475912        12.9502 
  47   0.0000       0.476856        12.9759 
  48   0.0000       0.508452        13.8357 
  49   0.0000       0.580101        15.7854 
  50   0.0000       0.612386        16.6639 
  51   0.0000       0.621082        16.9005 
  52   0.0000       0.630323        17.1520 
  53   0.0000       0.631471        17.1832 
  54   0.0000       0.635929        17.3045 
  55   0.0000       0.639022        17.3887 
  56   0.0000       0.657943        17.9035 
  57   0.0000       0.659946        17.9580 
  58   0.0000       0.673926        18.3384 
  59   0.0000       0.681784        18.5523 
  60   0.0000       0.687155        18.6984 
  61   0.0000       0.698533        19.0080 
  62   0.0000       0.698967        19.0198 
  63   0.0000       0.709424        19.3044 
  64   0.0000       0.710932        19.3454 
  65   0.0000       0.728533        19.8244 
  66   0.0000       0.777630        21.1604 
  67   0.0000       0.930836        25.3293 
  68   0.0000       0.958159        26.0728 
  69   0.0000       0.993152        27.0251 
  70   0.0000       1.002820        27.2881 
  71   0.0000       1.032787        28.1036 
  72   0.0000       1.112618        30.2759 
  73   0.0000       1.163197        31.6522 
  74   0.0000       1.205276        32.7972 
  75   0.0000       1.239984        33.7417 
  76   0.0000       1.327104        36.1123 
  77   0.0000       1.333566        36.2882 
  78   0.0000       1.360941        37.0331 
  79   0.0000       1.372158        37.3383 
  80   0.0000       1.375259        37.4227 
  81   0.0000       1.376794        37.4645 
  82   0.0000       1.480268        40.2801 
  83   0.0000       1.524483        41.4833 
  84   0.0000       1.643444        44.7204 
  85   0.0000       1.687991        45.9326 
  86   0.0000       1.710479        46.5445 
  87   0.0000       1.738226        47.2995 
  88   0.0000       1.744317        47.4653 
  89   0.0000       1.747280        47.5459 
  90   0.0000       1.753140        47.7054 
  91   0.0000       1.755868        47.7796 
  92   0.0000       1.765485        48.0413 
  93   0.0000       1.784448        48.5573 
  94   0.0000       1.794053        48.8187 
  95   0.0000       1.812087        49.3094 
  96   0.0000       1.819296        49.5055 
  97   0.0000       1.823021        49.6069 
  98   0.0000       1.859953        50.6119 
  99   0.0000       1.874831        51.0168 
 100   0.0000       1.885642        51.3109 
 101   0.0000       1.903531        51.7977 
 102   0.0000       1.908560        51.9345 
 103   0.0000       1.922591        52.3163 
 104   0.0000       1.939957        52.7889 
 105   0.0000       2.019182        54.9447 
 106   0.0000       2.026048        55.1316 
 107   0.0000       2.027030        55.1583 
 108   0.0000       2.090450        56.8840 
 109   0.0000       2.167677        58.9855 
 110   0.0000       2.248219        61.1771 
 111   0.0000       2.280865        62.0655 
 112   0.0000       2.342398        63.7399 
 113   0.0000       2.357680        64.1557 
 114   0.0000       2.366185        64.3872 
 115   0.0000       2.377106        64.6844 
 116   0.0000       2.391276        65.0699 
 117   0.0000       2.493183        67.8430 
 118   0.0000       2.500404        68.0394 
 119   0.0000       2.531158        68.8763 
 120   0.0000       2.565831        69.8198 
 121   0.0000       2.595694        70.6324 
 122   0.0000       2.609448        71.0067 
 123   0.0000       2.717244        73.9400 
 124   0.0000       2.797886        76.1343 
 125   0.0000       2.806279        76.3627 
 126   0.0000       2.856644        77.7332 
 127   0.0000       2.878088        78.3167 
 128   0.0000       2.885777        78.5260 
 129   0.0000       2.947793        80.2135 
 130   0.0000       2.971367        80.8550 
 131   0.0000       3.029317        82.4319 
 132   0.0000       3.048262        82.9474 
 133   0.0000       3.055931        83.1561 
 134   0.0000       3.136790        85.3564 
 135   0.0000       3.152575        85.7859 
 136   0.0000       3.379987        91.9741 
 137   0.0000       3.386686        92.1564 
 138   0.0000       3.785848       103.0182 

                    ********************************
                    * MULLIKEN POPULATION ANALYSIS *
                    ********************************

-----------------------
MULLIKEN ATOMIC CHARGES
-----------------------
   0 C :    0.298280
   1 C :   -0.022905
   2 C :   -0.054492
   3 H :    0.010953
   4 H :    0.011006
   5 C :   -0.016010
   6 H :    0.001193
   7 H :    0.001237
   8 C :    0.013034
   9 H :    0.003129
  10 H :    0.003205
  11 H :    0.009542
  12 H :    0.011812
  13 H :    0.009605
  14 F :   -0.276298
  15 H :   -0.001622
  16 H :   -0.001668
Sum of atomic charges:   -0.0000000

--------------------------------
MULLIKEN REDUCED ORBITAL CHARGES
--------------------------------
  0 C s       :     3.004761  s :     3.004761
      pz      :     1.005759  p :     2.627708
      px      :     0.715552
      py      :     0.906397
      dz2     :     0.010084  d :     0.069252
      dxz     :     0.008696
      dyz     :     0.014516
      dx2y2   :     0.015469
      dxy     :     0.020487
  1 C s       :     3.034831  s :     3.034831
      pz      :     1.009111  p :     2.953032
      px      :     0.937340
      py      :     1.006580
      dz2     :     0.005972  d :     0.035042
      dxz     :     0.003681
      dyz     :     0.010588
      dx2y2   :     0.005160
      dxy     :     0.009641
  2 C s       :     3.060553  s :     3.060553
      pz      :     0.980788  p :     2.957780
      px      :     0.966608
      py      :     1.010384
      dz2     :     0.005778  d :     0.036160
      dxz     :     0.003610
      dyz     :     0.011021
      dx2y2   :     0.006606
      dxy     :     0.009146
  3 H s       :     0.967317  s :     0.967317
      pz      :     0.010935  p :     0.021731
      px      :     0.004003
      py      :     0.006793
  4 H s       :     0.967260  s :     0.967260
      pz      :     0.010199  p :     0.021733
      px      :     0.004004
      py      :     0.007530
  5 C s       :     3.032930  s :     3.032930
      pz      :     0.988237  p :     2.946055
      px      :     0.957701
      py      :     1.000116
      dz2     :     0.005991  d :     0.037026
      dxz     :     0.003681
      dyz     :     0.010870
      dx2y2   :     0.006920
      dxy     :     0.009565
  6 H s       :     0.977302  s :     0.977302
      pz      :     0.010914  p :     0.021505
      px      :     0.003747
      py      :     0.006845
  7 H s       :     0.977256  s :     0.977256
      pz      :     0.010205  p :     0.021507
      px      :     0.003747
      py      :     0.007555
  8 C s       :     2.999209  s :     2.999209
      pz      :     0.995581  p :     2.958869
      px      :     0.979963
      py      :     0.983325
      dz2     :     0.005565  d :     0.028888
      dxz     :     0.002061
      dyz     :     0.008889
      dx2y2   :     0.004046
      dxy     :     0.008327
  9 H s       :     0.975326  s :     0.975326
      pz      :     0.010841  p :     0.021546
      px      :     0.003820
      py      :     0.006884
 10 H s       :     0.975248  s :     0.975248
      pz      :     0.010128  p :     0.021548
      px      :     0.003821
      py      :     0.007599
 11 H s       :     0.967971  s :     0.967971
      pz      :     0.010291  p :     0.022487
      px      :     0.004280
      py      :     0.007916
 12 H s       :     0.965852  s :     0.965852
      pz      :     0.004717  p :     0.022335
      px      :     0.009538
      py      :     0.008081
 13 H s       :     0.967911  s :     0.967911
      pz      :     0.010977  p :     0.022484
      px      :     0.004281
      py      :     0.007226
 14 F s       :     3.916013  s :     3.916013
      pz      :     1.936628  p :     5.353240
      px      :     1.620864
      py      :     1.795747
      dz2     :     0.000974  d :     0.007044
      dxz     :     0.001085
      dyz     :     0.000524
      dx2y2   :     0.001788
      dxy     :     0.002673
 15 H s       :     0.980445  s :     0.980445
      pz      :     0.010763  p :     0.021176
      px      :     0.002750
      py      :     0.007663
 16 H s       :     0.980493  s :     0.980493
      pz      :     0.011524  p :     0.021174
      px      :     0.002750
      py      :     0.006900


                     *******************************
                     * LOEWDIN POPULATION ANALYSIS *
                     *******************************

----------------------
LOEWDIN ATOMIC CHARGES
----------------------
   0 C :    0.121477
   1 C :   -0.052920
   2 C :   -0.034891
   3 H :    0.024623
   4 H :    0.024625
   5 C :   -0.036959
   6 H :    0.018736
   7 H :    0.018736
   8 C :   -0.057612
   9 H :    0.020431
  10 H :    0.020439
  11 H :    0.021090
  12 H :    0.023299
  13 H :    0.021100
  14 F :   -0.149430
  15 H :    0.008632
  16 H :    0.008625

-------------------------------
LOEWDIN REDUCED ORBITAL CHARGES
-------------------------------
  0 C s       :     2.864880  s :     2.864880
      pz      :     1.071310  p :     2.855957
      px      :     0.816319
      py      :     0.968327
      dz2     :     0.023454  d :     0.157686
      dxz     :     0.016779
      dyz     :     0.036178
      dx2y2   :     0.033147
      dxy     :     0.048128
  1 C s       :     2.856520  s :     2.856520
      pz      :     1.058756  p :     3.110084
      px      :     1.011815
      py      :     1.039513
      dz2     :     0.016099  d :     0.086316
      dxz     :     0.006400
      dyz     :     0.025685
      dx2y2   :     0.012487
      dxy     :     0.025646
  2 C s       :     2.848588  s :     2.848588
      pz      :     1.051234  p :     3.098381
      px      :     1.008527
      py      :     1.038619
      dz2     :     0.015819  d :     0.087923
      dxz     :     0.006346
      dyz     :     0.026320
      dx2y2   :     0.015582
      dxy     :     0.023856
  3 H s       :     0.912141  s :     0.912141
      pz      :     0.030678  p :     0.063235
      px      :     0.011895
      py      :     0.020662
  4 H s       :     0.912137  s :     0.912137
      pz      :     0.028435  p :     0.063239
      px      :     0.011896
      py      :     0.022908
  5 C s       :     2.846395  s :     2.846395
      pz      :     1.051897  p :     3.101377
      px      :     1.012769
      py      :     1.036711
      dz2     :     0.016075  d :     0.089187
      dxz     :     0.006498
      dyz     :     0.026091
      dx2y2   :     0.015494
      dxy     :     0.025029
  6 H s       :     0.918310  s :     0.918310
      pz      :     0.030439  p :     0.062954
      px      :     0.012301
      py      :     0.020214
  7 H s       :     0.918309  s :     0.918309
      pz      :     0.028262  p :     0.062955
      px      :     0.012301
      py      :     0.022392
  8 C s       :     2.849690  s :     2.849690
      pz      :     1.056706  p :     3.136316
      px      :     1.030641
      py      :     1.048969
      dz2     :     0.014742  d :     0.071607
      dxz     :     0.003671
      dyz     :     0.021775
      dx2y2   :     0.009832
      dxy     :     0.021588
  9 H s       :     0.917198  s :     0.917198
      pz      :     0.030316  p :     0.062370
      px      :     0.012051
      py      :     0.020003
 10 H s       :     0.917189  s :     0.917189
      pz      :     0.028155  p :     0.062372
      px      :     0.012052
      py      :     0.022165
 11 H s       :     0.916735  s :     0.916735
      pz      :     0.028386  p :     0.062175
      px      :     0.011997
      py      :     0.021793
 12 H s       :     0.914240  s :     0.914240
      pz      :     0.011283  p :     0.062461
      px      :     0.028248
      py      :     0.022931
 13 H s       :     0.916726  s :     0.916726
      pz      :     0.030533  p :     0.062174
      px      :     0.011997
      py      :     0.019644
 14 F s       :     3.746561  s :     3.746561
      pz      :     1.938342  p :     5.392183
      px      :     1.642050
      py      :     1.811792
      dz2     :     0.001600  d :     0.010686
      dxz     :     0.001432
      dyz     :     0.000715
      dx2y2   :     0.002707
      dxy     :     0.004232
 15 H s       :     0.929226  s :     0.929226
      pz      :     0.030729  p :     0.062142
      px      :     0.008347
      py      :     0.023066
 16 H s       :     0.929234  s :     0.929234
      pz      :     0.033273  p :     0.062141
      px      :     0.008347
      py      :     0.020521


                      *****************************
                      * MAYER POPULATION ANALYSIS *
                      *****************************

  NA   - Mulliken gross atomic population
  ZA   - Total nuclear charge
  QA   - Mulliken gross atomic charge
  VA   - Mayer's total valence
  BVA  - Mayer's bonded valence
  FA   - Mayer's free valence

  ATOM       NA         ZA         QA         VA         BVA        FA
  0 C      5.7017     6.0000     0.2983     3.9988     3.9988    -0.0000
  1 C      6.0229     6.0000    -0.0229     4.0141     4.0141    -0.0000
  2 C      6.0545     6.0000    -0.0545     4.0735     4.0735    -0.0000
  3 H      0.9890     1.0000     0.0110     0.9869     0.9869    -0.0000
  4 H      0.9890     1.0000     0.0110     0.9869     0.9869    -0.0000
  5 C      6.0160     6.0000    -0.0160     4.1099     4.1099     0.0000
  6 H      0.9988     1.0000     0.0012     0.9810     0.9810    -0.0000
  7 H      0.9988     1.0000     0.0012     0.9809     0.9809    -0.0000
  8 C      5.9870     6.0000     0.0130     4.0107     4.0107     0.0000
  9 H      0.9969     1.0000     0.0031     0.9772     0.9772    -0.0000
 10 H      0.9968     1.0000     0.0032     0.9771     0.9771    -0.0000
 11 H      0.9905     1.0000     0.0095     0.9878     0.9878     0.0000
 12 H      0.9882     1.0000     0.0118     0.9814     0.9814    -0.0000
 13 H      0.9904     1.0000     0.0096     0.9878     0.9878     0.0000
 14 F      9.2763     9.0000    -0.2763     1.0576     1.0576    -0.0000
 15 H      1.0016     1.0000    -0.0016     0.9780     0.9780     0.0000
 16 H      1.0017     1.0000    -0.0017     0.9781     0.9781     0.0000

  Mayer bond orders larger than 0.100000
B(  0-C ,  1-C ) :   1.0762 B(  0-C , 14-F ) :   0.9956 B(  0-C , 15-H ) :   0.9504 
B(  0-C , 16-H ) :   0.9504 B(  1-C ,  2-C ) :   1.0582 B(  1-C ,  3-H ) :   0.9382 
B(  1-C ,  4-H ) :   0.9382 B(  2-C ,  5-C ) :   1.0850 B(  2-C ,  6-H ) :   0.9442 
B(  2-C ,  7-H ) :   0.9442 B(  5-C ,  8-C ) :   1.1060 B(  5-C ,  9-H ) :   0.9447 
B(  5-C , 10-H ) :   0.9448 B(  8-C , 11-H ) :   0.9689 B(  8-C , 12-H ) :   0.9648 
B(  8-C , 13-H ) :   0.9690 

-------
TIMINGS
-------

Total SCF time: 0 days 0 hours 2 min 26 sec 

Total time                  ....     146.719 sec
Sum of individual times     ....     145.928 sec  ( 99.5%)

Fock matrix formation       ....     135.110 sec  ( 92.1%)
  Split-RI-J                ....       7.901 sec  (  5.8% of F)
  Chain of spheres X        ....     105.144 sec  ( 77.8% of F)
  XC integration            ....      21.856 sec  ( 16.2% of F)
    Basis function eval.    ....       8.281 sec  ( 37.9% of XC)
    Density eval.           ....       6.065 sec  ( 27.7% of XC)
    XC-Functional eval.     ....       1.679 sec  (  7.7% of XC)
    XC-Potential eval.      ....       4.711 sec  ( 21.6% of XC)
Diagonalization             ....       0.098 sec  (  0.1%)
Density matrix formation    ....       0.008 sec  (  0.0%)
Population analysis         ....       0.070 sec  (  0.0%)
Initial guess               ....       2.165 sec  (  1.5%)
Orbital Transformation      ....       0.000 sec  (  0.0%)
Orbital Orthonormalization  ....       0.000 sec  (  0.0%)
DIIS solution               ....       0.107 sec  (  0.1%)
SOSCF solution              ....       0.044 sec  (  0.0%)
Grid generation             ....       8.326 sec  (  5.7%)

Maximum memory used throughout the entire SCF-calculation: 61.5 MB


-------------------------------------------------------------------------------
                          DFT DISPERSION CORRECTION                            
                                                                               
                                 DFTD4 V2.5                                    
-------------------------------------------------------------------------------
The B3LYP functional is recognized
Active option DFTDOPT                   ...         5   

Starting D4
-------------------------   ----------------
Dispersion correction           -0.016881395
-------------------------   ----------------


-------------------------   --------------------
FINAL SINGLE POINT ENERGY      -296.613266825718
-------------------------   --------------------

------------------------------------------------------------------------------
                         ORCA SCF GRADIENT CALCULATION
------------------------------------------------------------------------------

 ... reading COSX grid (gridx3)
Gradient of the Kohn-Sham DFT energy:
Kohn-Sham wavefunction type      ... RKS
Hartree-Fock exchange scaling    ...    0.200
Number of operators              ...    1
Number of atoms                  ...   17
Basis set dimensions             ...  139
Integral neglect threshold       ... 2.5e-11
Integral primitive cutoff        ... 2.5e-12
SHARK Integral package           ... ON

Nuc. rep. gradient       (SHARK) ... done (  0.0 sec)
HCore & Overlap gradient (SHARK) ... done (  0.5 sec)
RI-J gradient            (SHARK) ... done (  1.9 sec)
COSX-gradient                    ... done ( 21.7 sec)
Exchange-correlation gradient    ... done
Dispersion correction            ... Starting D4


------------------- 
Dispersion Gradient 
------------------- 
   1  :    0.000326836   -0.000176548    0.000007305
   2  :    0.000291380    0.000104718   -0.000004287
   3  :   -0.000042653   -0.000114180    0.000004708
   4  :    0.000103104    0.000050197   -0.000042995
   5  :    0.000103095    0.000053567    0.000038741
   6  :   -0.000324454    0.000176677   -0.000007312
   7  :   -0.000011420   -0.000048233    0.000056471
   8  :   -0.000011409   -0.000052716   -0.000052305
   9  :   -0.000480764   -0.000060654    0.000002449
  10  :   -0.000095037    0.000057938   -0.000037867
  11  :   -0.000095043    0.000060856    0.000032953
  12  :   -0.000132222   -0.000021183   -0.000018739
  13  :   -0.000103596    0.000000198   -0.000000020
  14  :   -0.000132226   -0.000019570    0.000020390
  15  :    0.000308983    0.000008991   -0.000000344
  16  :    0.000147713   -0.000010043    0.000000090
  17  :    0.000147712   -0.000010014    0.000000762

  |G| =    0.000930048

done

------------------
CARTESIAN GRADIENT
------------------

   1   C   :    0.004372928   -0.006220530    0.000285746
   2   C   :   -0.002843164    0.007661510   -0.000330421
   3   C   :   -0.002981852   -0.010554145    0.000444825
   4   H   :   -0.000912743    0.000993337   -0.006073845
   5   H   :   -0.000876456    0.001478038    0.005983981
   6   C   :    0.002926903    0.006993868   -0.000282996
   7   H   :    0.000646838    0.000144715    0.005816449
   8   H   :    0.000602100   -0.000320509   -0.005823664
   9   C   :    0.004732327   -0.004131483    0.000181431
  10   H   :   -0.001833810   -0.000103055   -0.006047254
  11   H   :   -0.001811758    0.000386288    0.006040440
  12   H   :    0.001906108   -0.001912975   -0.005493076
  13   H   :   -0.001146348    0.006697672   -0.000277126
  14   H   :    0.001930396   -0.001449147    0.005620520
  15   F   :   -0.002183763    0.002219969   -0.000261736
  16   H   :   -0.001372169   -0.001104473   -0.003523879
  17   H   :   -0.001364403   -0.000812292    0.003600669

Difference to translation invariance:
           :   -0.0002088655   -0.0000332122   -0.0001399393

Difference to rotation invariance:
           :    0.0003365960   -0.0000936811   -0.0015059358

Norm of the cartesian gradient     ...    0.0270225377
RMS gradient                       ...    0.0037839121
MAX gradient                       ...    0.0105541449

-------
TIMINGS
-------

Total SCF gradient time            ...       37.568 sec

One electron gradient       ....       0.540 sec  (  1.4%)
RI-J Coulomb gradient       ....       1.928 sec  (  5.1%)
COSX gradient               ....      21.685 sec  ( 57.7%)
XC gradient                 ....      11.842 sec  ( 31.5%)

Maximum memory used throughout the entire SCFGRAD-calculation: 48.6 MB
------------------------------------------------------------------------------
                         ORCA GEOMETRY RELAXATION STEP
------------------------------------------------------------------------------

Reading the OPT-File                    .... done
Getting information on internals        .... done
Copying old internal coords+grads       .... done
Making the new internal coordinates     .... (new redundants).... done
Validating the new internal coordinates .... (new redundants).... done
Calculating the B-matrix                .... done
Calculating the G,G- and P matrices     .... done
Transforming gradient to internals      .... done
Projecting the internal gradient        .... done
Number of atoms                         ....  17
Number of internal coordinates          ....  82
Current Energy                          ....  -296.613266826 Eh
Current gradient norm                   ....     0.027022538 Eh/bohr
Maximum allowed component of the step   ....  0.300
Current trust radius                    ....  0.300
Evaluating the initial hessian          ....  (Almloef) done
Projecting the Hessian                  .... done
Forming the augmented Hessian           .... done
Diagonalizing the augmented Hessian     .... done
Last element of RFO vector              ....  0.992364984
Lowest eigenvalues of augmented Hessian:
 -0.002737462  0.010909589  0.010916788  0.011405062  0.011461904
Length of the computed step             ....  0.124284795
The final length of the internal step   ....  0.124284795
Converting the step to cartesian space:
 Initial RMS(Int)=    0.0137249596
Transforming coordinates:
 Iter   0:  RMS(Cart)=    0.0283295741 RMS(Int)=    1.5510269660
 Iter   1:  RMS(Cart)=    0.0003027410 RMS(Int)=    0.0001082402
 Iter   2:  RMS(Cart)=    0.0000016816 RMS(Int)=    0.0000014895
 Iter   3:  RMS(Cart)=    0.0000000559 RMS(Int)=    0.0000000201
done
Storing new coordinates                 .... done

                                .--------------------.
          ----------------------|Geometry convergence|-------------------------
          Item                value                   Tolerance       Converged
          ---------------------------------------------------------------------
          RMS gradient        0.0029102602            0.0001000000      NO
          MAX gradient        0.0078350376            0.0003000000      NO
          RMS step            0.0137249596            0.0020000000      NO
          MAX step            0.0373249785            0.0040000000      NO
          ........................................................
          Max(Bonds)      0.0089      Max(Angles)    1.77
          Max(Dihed)        2.14      Max(Improp)    0.00
          ---------------------------------------------------------------------

The optimization has not yet converged - more geometry cycles are needed


    ---------------------------------------------------------------------------
                         Redundant Internal Coordinates
                            (Angstroem and degrees)

        Definition                    Value    dE/dq     Step     New-Value
    ----------------------------------------------------------------------------
     1. B(C   1,C   0)                1.5267  0.003242 -0.0045    1.5222   
     2. B(C   2,C   1)                1.5331 -0.002185  0.0031    1.5362   
     3. B(H   3,C   1)                1.1120  0.005569 -0.0088    1.1032   
     4. B(H   4,C   1)                1.1120  0.005605 -0.0089    1.1032   
     5. B(C   5,C   2)                1.5330 -0.001318  0.0019    1.5349   
     6. B(H   6,C   2)                1.1125  0.004762 -0.0075    1.1050   
     7. B(H   7,C   2)                1.1126  0.004755 -0.0075    1.1050   
     8. B(C   8,C   5)                1.5259 -0.006018  0.0083    1.5343   
     9. B(H   9,C   5)                1.1119  0.004933 -0.0078    1.1041   
    10. B(H  10,C   5)                1.1119  0.004930 -0.0078    1.1041   
    11. B(H  11,C   8)                1.1109  0.005402 -0.0085    1.1024   
    12. B(H  12,C   8)                1.1104  0.005176 -0.0081    1.1023   
    13. B(H  13,C   8)                1.1109  0.005365 -0.0084    1.1025   
    14. B(F  14,C   0)                1.3828 -0.000649  0.0006    1.3834   
    15. B(H  15,C   0)                1.1109  0.003450 -0.0054    1.1055   
    16. B(H  16,C   0)                1.1109  0.003496 -0.0055    1.1054   
    17. A(H  15,C   0,H  16)          109.03  0.002062   -0.58    108.45   
    18. A(C   1,C   0,F  14)          109.65 -0.005117    0.87    110.52   
    19. A(F  14,C   0,H  16)          108.84  0.002891   -0.38    108.46   
    20. A(C   1,C   0,H  16)          110.22 -0.001241    0.20    110.42   
    21. A(C   1,C   0,H  15)          110.22 -0.001246    0.21    110.43   
    22. A(F  14,C   0,H  15)          108.84  0.002795   -0.34    108.50   
    23. A(C   2,C   1,H   4)          109.57  0.000549    0.12    109.69   
    24. A(C   2,C   1,H   3)          109.57  0.000447    0.17    109.74   
    25. A(H   3,C   1,H   4)          108.74  0.000654   -0.97    107.77   
    26. A(C   0,C   1,C   2)          111.15 -0.004992    1.15    112.30   
    27. A(C   0,C   1,H   4)          108.88  0.001721   -0.27    108.62   
    28. A(C   0,C   1,H   3)          108.88  0.001742   -0.25    108.63   
    29. A(C   1,C   2,C   5)          110.99 -0.007835    1.77    112.76   
    30. A(H   6,C   2,H   7)          108.77  0.000648   -1.32    107.45   
    31. A(C   5,C   2,H   7)          109.26  0.002188   -0.24    109.02   
    32. A(C   1,C   2,H   7)          109.27  0.001434    0.02    109.29   
    33. A(C   5,C   2,H   6)          109.26  0.002242   -0.28    108.98   
    34. A(C   1,C   2,H   6)          109.27  0.001470   -0.01    109.26   
    35. A(C   8,C   5,H   9)          108.81  0.000530    0.30    109.11   
    36. A(C   2,C   5,H   9)          109.64  0.002601   -0.45    109.19   
    37. A(C   2,C   5,C   8)          111.17 -0.007028    1.63    112.80   
    38. A(H   9,C   5,H  10)          108.72  0.000838   -1.34    107.38   
    39. A(C   8,C   5,H  10)          108.81  0.000592    0.27    109.09   
    40. A(C   2,C   5,H  10)          109.64  0.002586   -0.46    109.18   
    41. A(H  12,C   8,H  13)          108.67  0.003630   -0.58    108.09   
    42. A(H  11,C   8,H  13)          109.19  0.003347   -0.84    108.35   
    43. A(C   5,C   8,H  13)          110.34 -0.002443    0.42    110.76   
    44. A(H  11,C   8,H  12)          108.67  0.003614   -0.57    108.10   
    45. A(C   5,C   8,H  12)          109.59 -0.005478    1.11    110.69   
    46. A(C   5,C   8,H  11)          110.34 -0.002455    0.42    110.77   
    47. D(H   3,C   1,C   0,H  16)    179.01  0.000902   -0.36    178.65   
    48. D(H   4,C   1,C   0,H  16)     60.59 -0.001871    1.11     61.70   
    49. D(H   4,C   1,C   0,H  15)   -179.01 -0.000904    0.64   -178.36   
    50. D(H   3,C   1,C   0,F  14)     59.21  0.001325   -0.56     58.64   
    51. D(C   2,C   1,C   0,H  16)    -60.20 -0.000541    0.41    -59.80   
    52. D(H   3,C   1,C   0,H  15)    -60.59  0.001869   -0.82    -61.41   
    53. D(C   2,C   1,C   0,H  15)     60.20  0.000426   -0.06     60.14   
    54. D(C   2,C   1,C   0,F  14)    180.00 -0.000119    0.20    180.20   
    55. D(H   4,C   1,C   0,F  14)    -59.21 -0.001449    0.90    -58.30   
    56. D(H   6,C   2,C   1,H   3)    179.83  0.000538   -0.31    179.52   
    57. D(C   5,C   2,C   1,H   4)     59.61  0.000733   -0.55     59.06   
    58. D(C   5,C   2,C   1,H   3)    -59.61 -0.000670    0.46    -59.15   
    59. D(C   5,C   2,C   1,C   0)   -180.00  0.000052   -0.07   -180.07   
    60. D(H   6,C   2,C   1,H   4)    -60.94  0.001941   -1.32    -62.26   
    61. D(H   7,C   2,C   1,H   4)   -179.83 -0.000565    0.27   -179.56   
    62. D(H   7,C   2,C   1,H   3)     60.94 -0.001968    1.29     62.23   
    63. D(H   7,C   2,C   1,C   0)    -59.45 -0.001246    0.76    -58.69   
    64. D(H   6,C   2,C   1,C   0)     59.45  0.001260   -0.84     58.61   
    65. D(H  10,C   5,C   2,H   6)     60.91 -0.003796    2.14     63.05   
    66. D(H  10,C   5,C   2,C   1)    -59.64 -0.002132    1.21    -58.43   
    67. D(H   9,C   5,C   2,H   7)    -60.91  0.003799   -1.97    -62.89   
    68. D(H   9,C   5,C   2,H   6)   -179.80  0.000391   -0.06   -179.87   
    69. D(H   9,C   5,C   2,C   1)     59.64  0.002055   -0.99     58.65   
    70. D(C   8,C   5,C   2,H   7)     59.44  0.001671   -0.86     58.59   
    71. D(C   8,C   5,C   2,H   6)    -59.45 -0.001737    1.06    -58.39   
    72. D(H  10,C   5,C   2,H   7)    179.80 -0.000388    0.23    180.03   
    73. D(C   8,C   5,C   2,C   1)    180.00 -0.000073    0.13    180.13   
    74. D(H  12,C   8,C   5,C   2)   -180.00  0.000017   -0.01   -180.01   
    75. D(H  11,C   8,C   5,H  10)    178.78  0.000320   -0.38    178.39   
    76. D(H  11,C   8,C   5,H   9)     60.47 -0.001327    0.90     61.37   
    77. D(H  11,C   8,C   5,C   2)    -60.38 -0.000492    0.24    -60.13   
    78. D(H  13,C   8,C   5,H  10)    -60.47  0.001309   -0.88    -61.36   
    79. D(H  13,C   8,C   5,H   9)   -178.78 -0.000337    0.40   -178.38   
    80. D(H  13,C   8,C   5,C   2)     60.38  0.000497   -0.26     60.12   
    81. D(H  12,C   8,C   5,H  10)     59.15  0.000829   -0.64     58.51   
    82. D(H  12,C   8,C   5,H   9)    -59.15 -0.000818    0.64    -58.51   
    ----------------------------------------------------------------------------

         *************************************************************
         *                GEOMETRY OPTIMIZATION CYCLE   2            *
         *************************************************************
---------------------------------
CARTESIAN COORDINATES (ANGSTROEM)
---------------------------------
  C     -2.570477   -1.686974    0.017723
  C     -3.769288   -0.749825   -0.022189
  C     -5.104214   -1.509362    0.008199
  H     -3.708817   -0.139331   -0.939130
  H     -3.710726   -0.066335    0.841756
  C     -6.320348   -0.573764   -0.029922
  H     -5.152690   -2.124389    0.924952
  H     -5.152285   -2.197376   -0.855168
  C     -7.654219   -1.331183    0.003578
  H     -6.276498    0.040770   -0.946194
  H     -6.274703    0.115314    0.831606
  H     -7.741299   -2.007759   -0.862411
  H     -8.502322   -0.627688   -0.024926
  H     -7.739105   -1.932495    0.923705
  F     -1.390249   -0.965621   -0.006629
  H     -2.583568   -2.367671   -0.853234
  H     -2.588661   -2.297421    0.939105

----------------------------
CARTESIAN COORDINATES (A.U.)
----------------------------
  NO LB      ZA    FRAG     MASS         X           Y           Z
   0 C     6.0000    0    12.011   -4.857498   -3.187920    0.033492
   1 C     6.0000    0    12.011   -7.122923   -1.416963   -0.041932
   2 C     6.0000    0    12.011   -9.645567   -2.852282    0.015494
   3 H     1.0000    0     1.008   -7.008648   -0.263298   -1.774698
   4 H     1.0000    0     1.008   -7.012257   -0.125356    1.590689
[...]
      f-2     :     0.000242
      f+3     :     0.000419
      f-3     :     0.000533
      g0      :     0.000004  g :     0.000050
      g+1     :     0.000005
      g-1     :     0.000002
      g+2     :     0.000003
      g-2     :     0.000007
      g+3     :     0.000000
      g-3     :     0.000005
      g+4     :     0.000012
      g-4     :     0.000012
 15 H s       :     0.928707  s :     0.928707
      pz      :     0.009783  p :     0.030505
      px      :     0.010403
      py      :     0.010319
      dz2     :     0.001546  d :     0.004915
      dxz     :     0.000813
      dyz     :     0.000846
      dx2y2   :     0.000509
      dxy     :     0.001200
      f0      :     0.000110  f :     0.000280
      f+1     :     0.000007
      f-1     :     0.000029
      f+2     :     0.000028
      f-2     :     0.000059
      f+3     :     0.000029
      f-3     :     0.000018
 16 H s       :     0.928321  s :     0.928321
      pz      :     0.009447  p :     0.030386
      px      :     0.010452
      py      :     0.010487
      dz2     :     0.001420  d :     0.004909
      dxz     :     0.000948
      dyz     :     0.001026
      dx2y2   :     0.000448
      dxy     :     0.001068
      f0      :     0.000113  f :     0.000280
      f+1     :     0.000012
      f-1     :     0.000027
      f+2     :     0.000031
      f-2     :     0.000060
      f+3     :     0.000022
      f-3     :     0.000014


                     *******************************
                     * LOEWDIN POPULATION ANALYSIS *
                     *******************************

----------------------
LOEWDIN ATOMIC CHARGES
----------------------
   0 C :   -0.189390
   1 C :    0.073720
   2 C :    0.081950
   3 H :   -0.041930
   4 H :   -0.041859
   5 C :    0.070548
   6 H :   -0.041408
   7 H :   -0.041459
   8 C :    0.209144
   9 H :   -0.045430
  10 H :   -0.045384
  11 H :   -0.057140
  12 H :   -0.058940
  13 H :   -0.057106
  14 F :    0.307663
  15 H :   -0.061482
  16 H :   -0.061497

-------------------------------
LOEWDIN REDUCED ORBITAL CHARGES
-------------------------------
  0 C s       :     2.588235  s :     2.588235
      pz      :     0.975377  p :     2.606319
      px      :     0.757753
      py      :     0.873190
      dz2     :     0.094041  d :     0.733986
      dxz     :     0.097794
      dyz     :     0.177202
      dx2y2   :     0.170654
      dxy     :     0.194295
      f0      :     0.026729  f :     0.234891
      f+1     :     0.023454
      f-1     :     0.016268
      f+2     :     0.016634
      f-2     :     0.038423
      f+3     :     0.068214
      f-3     :     0.045169
      g0      :     0.001333  g :     0.025959
      g+1     :     0.003871
      g-1     :     0.001162
      g+2     :     0.001674
      g-2     :     0.002462
      g+3     :     0.000210
      g-3     :     0.003520
      g+4     :     0.005729
      g-4     :     0.005997
  1 C s       :     2.553437  s :     2.553437
      pz      :     0.929790  p :     2.725223
      px      :     0.894665
      py      :     0.900767
      dz2     :     0.070213  d :     0.529838
      dxz     :     0.072420
      dyz     :     0.156535
      dx2y2   :     0.101570
      dxy     :     0.129100
      f0      :     0.013194  f :     0.111189
      f+1     :     0.010518
      f-1     :     0.011002
      f+2     :     0.010331
      f-2     :     0.023233
      f+3     :     0.028657
      f-3     :     0.014254
      g0      :     0.000283  g :     0.006593
      g+1     :     0.001065
      g-1     :     0.000488
      g+2     :     0.000692
      g-2     :     0.000329
      g+3     :     0.000256
      g-3     :     0.000988
      g+4     :     0.001292
      g-4     :     0.001198
  2 C s       :     2.546396  s :     2.546396
      pz      :     0.926255  p :     2.711516
      px      :     0.885238
      py      :     0.900023
      dz2     :     0.067880  d :     0.541107
      dxz     :     0.070224
      dyz     :     0.158667
      dx2y2   :     0.122192
      dxy     :     0.122145
      f0      :     0.012420  f :     0.112652
      f+1     :     0.009930
      f-1     :     0.011216
      f+2     :     0.010668
      f-2     :     0.022023
      f+3     :     0.031836
      f-3     :     0.014559
      g0      :     0.000269  g :     0.006378
      g+1     :     0.000991
      g-1     :     0.000431
      g+2     :     0.000717
      g-2     :     0.000290
      g+3     :     0.000199
      g-3     :     0.000951
      g+4     :     0.001289
      g-4     :     0.001242
  3 H s       :     0.778718  s :     0.778718
      pz      :     0.076944  p :     0.187629
      px      :     0.046552
      py      :     0.064133
      dz2     :     0.020760  d :     0.066508
      dxz     :     0.013856
      dyz     :     0.016278
      dx2y2   :     0.005302
      dxy     :     0.010312
      f0      :     0.002532  f :     0.009074
      f+1     :     0.000821
      f-1     :     0.001879
      f+2     :     0.001283
      f-2     :     0.001896
      f+3     :     0.000464
      f-3     :     0.000200
  4 H s       :     0.778572  s :     0.778572
      pz      :     0.073863  p :     0.187657
      px      :     0.046522
      py      :     0.067272
      dz2     :     0.020908  d :     0.066552
      dxz     :     0.011953
      dyz     :     0.014824
      dx2y2   :     0.006623
      dxy     :     0.012244
      f0      :     0.002270  f :     0.009079
      f+1     :     0.000536
      f-1     :     0.001902
      f+2     :     0.001415
      f-2     :     0.001977
      f+3     :     0.000670
      f-3     :     0.000308
  5 C s       :     2.550971  s :     2.550971
      pz      :     0.929406  p :     2.715516
      px      :     0.884569
      py      :     0.901541
      dz2     :     0.067749  d :     0.545221
      dxz     :     0.071793
      dyz     :     0.155138
      dx2y2   :     0.124112
      dxy     :     0.126429
      f0      :     0.012431  f :     0.111439
      f+1     :     0.009695
      f-1     :     0.011231
      f+2     :     0.010450
      f-2     :     0.021268
      f+3     :     0.032047
      f-3     :     0.014317
      g0      :     0.000264  g :     0.006305
      g+1     :     0.000977
      g-1     :     0.000427
      g+2     :     0.000699
      g-2     :     0.000301
      g+3     :     0.000186
      g-3     :     0.000941
      g+4     :     0.001302
      g-4     :     0.001209
  6 H s       :     0.778301  s :     0.778301
      pz      :     0.076803  p :     0.188159
      px      :     0.046454
      py      :     0.064902
      dz2     :     0.020831  d :     0.065980
      dxz     :     0.013587
      dyz     :     0.016185
      dx2y2   :     0.005318
      dxy     :     0.010060
      f0      :     0.002506  f :     0.008969
      f+1     :     0.000792
      f-1     :     0.001854
      f+2     :     0.001274
      f-2     :     0.001869
      f+3     :     0.000468
      f-3     :     0.000206
  7 H s       :     0.778398  s :     0.778398
      pz      :     0.073684  p :     0.188144
      px      :     0.046474
      py      :     0.067985
      dz2     :     0.020978  d :     0.065951
      dxz     :     0.011681
      dyz     :     0.014709
      dx2y2   :     0.006633
      dxy     :     0.011949
      f0      :     0.002238  f :     0.008967
      f+1     :     0.000511
      f-1     :     0.001882
      f+2     :     0.001402
      f-2     :     0.001944
      f+3     :     0.000674
      f-3     :     0.000317
  8 C s       :     2.558537  s :     2.558537
      pz      :     0.940208  p :     2.770013
      px      :     0.903620
      py      :     0.926185
      dz2     :     0.060715  d :     0.386099
      dxz     :     0.041956
      dyz     :     0.110242
      dx2y2   :     0.067889
      dxy     :     0.105297
      f0      :     0.006838  f :     0.072519
      f+1     :     0.008334
      f-1     :     0.010405
      f+2     :     0.009495
      f-2     :     0.009902
      f+3     :     0.016973
      f-3     :     0.010573
      g0      :     0.000160  g :     0.003687
      g+1     :     0.000513
      g-1     :     0.000224
      g+2     :     0.000506
      g-2     :     0.000258
      g+3     :     0.000072
      g-3     :     0.000551
      g+4     :     0.000955
      g-4     :     0.000447
  9 H s       :     0.781307  s :     0.781307
      pz      :     0.077089  p :     0.189205
      px      :     0.047906
      py      :     0.064209
      dz2     :     0.020973  d :     0.065928
      dxz     :     0.013578
      dyz     :     0.016176
      dx2y2   :     0.005202
      dxy     :     0.009998
      f0      :     0.002530  f :     0.008992
      f+1     :     0.000790
      f-1     :     0.001870
      f+2     :     0.001273
      f-2     :     0.001866
      f+3     :     0.000462
      f-3     :     0.000201
 10 H s       :     0.781235  s :     0.781235
      pz      :     0.073832  p :     0.189213
      px      :     0.047918
      py      :     0.067463
      dz2     :     0.021142  d :     0.065943
      dxz     :     0.011547
      dyz     :     0.014602
      dx2y2   :     0.006624
      dxy     :     0.012027
      f0      :     0.002240  f :     0.008992
      f+1     :     0.000492
      f-1     :     0.001900
      f+2     :     0.001414
      f-2     :     0.001942
      f+3     :     0.000683
      f-3     :     0.000322
 11 H s       :     0.793538  s :     0.793538
      pz      :     0.073687  p :     0.190289
      px      :     0.049512
      py      :     0.067090
      dz2     :     0.020892  d :     0.064530
      dxz     :     0.012151
      dyz     :     0.013809
      dx2y2   :     0.006294
      dxy     :     0.011383
      f0      :     0.002215  f :     0.008783
      f+1     :     0.000568
      f-1     :     0.001839
      f+2     :     0.001345
      f-2     :     0.001912
      f+3     :     0.000590
      f-3     :     0.000315
 12 H s       :     0.795342  s :     0.795342
      pz      :     0.053679  p :     0.190479
      px      :     0.071866
      py      :     0.064934
      dz2     :     0.004423  d :     0.064306
      dxz     :     0.011981
      dyz     :     0.012370
      dx2y2   :     0.022269
      dxy     :     0.013264
      f0      :     0.001127  f :     0.008813
      f+1     :     0.000772
      f-1     :     0.000456
      f+2     :     0.000028
      f-2     :     0.001950
      f+3     :     0.002664
      f-3     :     0.001815
 13 H s       :     0.793516  s :     0.793516
      pz      :     0.076675  p :     0.190278
      px      :     0.049478
      py      :     0.064125
      dz2     :     0.020655  d :     0.064529
      dxz     :     0.014201
      dyz     :     0.015409
      dx2y2   :     0.004925
      dxy     :     0.009338
      f0      :     0.002506  f :     0.008782
      f+1     :     0.000880
      f-1     :     0.001807
      f+2     :     0.001203
      f-2     :     0.001804
      f+3     :     0.000386
      f-3     :     0.000197
 14 F s       :     3.498393  s :     3.498393
      pz      :     1.803221  p :     5.133890
      px      :     1.608003
      py      :     1.722667
      dz2     :     0.004776  d :     0.053282
      dxz     :     0.011351
      dyz     :     0.006389
      dx2y2   :     0.016256
      dxy     :     0.014510
      f0      :     0.000867  f :     0.006575
      f+1     :     0.000602
      f-1     :     0.000252
      f+2     :     0.000155
      f-2     :     0.001399
      f+3     :     0.002166
      f-3     :     0.001135
      g0      :     0.000008  g :     0.000197
      g+1     :     0.000026
      g-1     :     0.000014
      g+2     :     0.000012
      g-2     :     0.000014
      g+3     :     0.000003
      g-3     :     0.000030
      g+4     :     0.000053
      g-4     :     0.000037
 15 H s       :     0.810900  s :     0.810900
      pz      :     0.079175  p :     0.179146
      px      :     0.035067
      py      :     0.064905
      dz2     :     0.020982  d :     0.062756
      dxz     :     0.009553
      dyz     :     0.016037
      dx2y2   :     0.006443
      dxy     :     0.009741
      f0      :     0.002353  f :     0.008680
      f+1     :     0.000455
      f-1     :     0.001938
      f+2     :     0.001473
      f-2     :     0.001614
      f+3     :     0.000548
      f-3     :     0.000298
 16 H s       :     0.810846  s :     0.810846
      pz      :     0.082337  p :     0.179189
      px      :     0.035163
      py      :     0.061690
      dz2     :     0.020900  d :     0.062779
      dxz     :     0.010917
      dyz     :     0.017212
      dx2y2   :     0.005336
      dxy     :     0.008415
      f0      :     0.002541  f :     0.008683
      f+1     :     0.000663
      f-1     :     0.001956
      f+2     :     0.001348
      f-2     :     0.001568
      f+3     :     0.000401
      f-3     :     0.000205


                      *****************************
                      * MAYER POPULATION ANALYSIS *
                      *****************************

  NA   - Mulliken gross atomic population
  ZA   - Total nuclear charge
  QA   - Mulliken gross atomic charge
  VA   - Mayer's total valence
  BVA  - Mayer's bonded valence
  FA   - Mayer's free valence

  ATOM       NA         ZA         QA         VA         BVA        FA
  0 C      5.7884     6.0000     0.2116     3.8313     3.8313    -0.0000
  1 C      6.0660     6.0000    -0.0660     3.8164     3.8164     0.0000
  2 C      6.0410     6.0000    -0.0410     3.8057     3.8057    -0.0000
  3 H      0.9568     1.0000     0.0432     0.9976     0.9976     0.0000
  4 H      0.9572     1.0000     0.0428     0.9980     0.9980    -0.0000
  5 C      6.0415     6.0000    -0.0415     3.8309     3.8309    -0.0000
  6 H      0.9729     1.0000     0.0271     0.9998     0.9998    -0.0000
  7 H      0.9739     1.0000     0.0261     0.9999     0.9999    -0.0000
  8 C      6.1234     6.0000    -0.1234     3.8743     3.8743     0.0000
  9 H      0.9711     1.0000     0.0289     0.9976     0.9976     0.0000
 10 H      0.9721     1.0000     0.0279     0.9978     0.9978    -0.0000
 11 H      0.9627     1.0000     0.0373     1.0047     1.0047     0.0000
 12 H      0.9598     1.0000     0.0402     1.0076     1.0076    -0.0000
 13 H      0.9628     1.0000     0.0372     1.0047     1.0047     0.0000
 14 F      9.3221     9.0000    -0.3221     0.9423     0.9423     0.0000
 15 H      0.9644     1.0000     0.0356     0.9750     0.9750    -0.0000
 16 H      0.9639     1.0000     0.0361     0.9747     0.9747    -0.0000

  Mayer bond orders larger than 0.100000
B(  0-C ,  1-C ) :   0.9708 B(  0-C , 14-F ) :   0.9139 B(  0-C , 15-H ) :   0.9549 
B(  0-C , 16-H ) :   0.9547 B(  1-C ,  2-C ) :   0.9265 B(  1-C ,  3-H ) :   0.9489 
B(  1-C ,  4-H ) :   0.9490 B(  2-C ,  5-C ) :   0.9385 B(  2-C ,  6-H ) :   0.9545 
B(  2-C ,  7-H ) :   0.9547 B(  5-C ,  8-C ) :   0.9494 B(  5-C ,  9-H ) :   0.9604 
B(  5-C , 10-H ) :   0.9605 B(  8-C , 11-H ) :   0.9690 B(  8-C , 12-H ) :   0.9742 
B(  8-C , 13-H ) :   0.9690 

-------
TIMINGS
-------

Total SCF time: 0 days 0 hours 21 min 2 sec 

Total time                  ....    1262.881 sec
Sum of individual times     ....    1258.472 sec  ( 99.7%)

Fock matrix formation       ....    1241.921 sec  ( 98.3%)
  Split-RI-J                ....      61.178 sec  (  4.9% of F)
  Chain of spheres X        ....    1070.855 sec  ( 86.2% of F)
  XC integration            ....     109.236 sec  (  8.8% of F)
    Basis function eval.    ....      21.379 sec  ( 19.6% of XC)
    Density eval.           ....      41.181 sec  ( 37.7% of XC)
    XC-Functional eval.     ....       1.273 sec  (  1.2% of XC)
    XC-Potential eval.      ....      42.200 sec  ( 38.6% of XC)
Diagonalization             ....       0.517 sec  (  0.0%)
Density matrix formation    ....       0.115 sec  (  0.0%)
Population analysis         ....       0.158 sec  (  0.0%)
Initial guess               ....       0.374 sec  (  0.0%)
Orbital Transformation      ....       0.000 sec  (  0.0%)
Orbital Orthonormalization  ....       0.000 sec  (  0.0%)
DIIS solution               ....       0.198 sec  (  0.0%)
SOSCF solution              ....       1.636 sec  (  0.1%)
Grid generation             ....      13.553 sec  (  1.1%)

Maximum memory used throughout the entire SCF-calculation: 631.9 MB


-------------------------------------------------------------------------------
                          DFT DISPERSION CORRECTION                            
                                                                               
                                 DFTD4 V2.5                                    
-------------------------------------------------------------------------------
The B3LYP functional is recognized
Active option DFTDOPT                   ...         5   

Starting D4
-------------------------   ----------------
Dispersion correction           -0.016770649
-------------------------   ----------------


-------------------------   --------------------
FINAL SINGLE POINT ENERGY      -296.982146334750
-------------------------   --------------------


                            ***************************************
                            *     ORCA property calculations      *
                            ***************************************

                                    ---------------------
                                    Active property flags
                                    ---------------------
   (+) Dipole Moment


------------------------------------------------------------------------------
                       ORCA ELECTRIC PROPERTIES CALCULATION
------------------------------------------------------------------------------

Dipole Moment Calculation                       ... on
Quadrupole Moment Calculation                   ... off
Polarizability Calculation                      ... off
GBWName                                         ... second_job.gbw
Electron density                                ... second_job.scfp
The origin for moment calculation is the CENTER OF MASS  = (-8.212394, -2.142706 -0.006524)

-------------
DIPOLE MOMENT
-------------
                                X             Y             Z
Electronic contribution:     12.89014       0.95595      -0.00351
Nuclear contribution   :    -13.63521      -1.23065       0.00857
                        -----------------------------------------
Total Dipole Moment    :     -0.74507      -0.27471       0.00506
                        -----------------------------------------
Magnitude (a.u.)       :      0.79412
Magnitude (Debye)      :      2.01849



--------------------
Rotational spectrum 
--------------------
 
Rotational constants in cm-1:     0.533600     0.036863     0.035635 
Rotational constants in MHz : 15996.914139  1105.117191  1068.306428 

 Dipole components along the rotational axes: 
x,y,z [a.u.] :     0.742541    -0.281483    -0.004721 
x,y,z [Debye]:     1.887389    -0.715473    -0.012001 

 

Timings for individual modules:

Sum of individual times         ...     1269.195 sec (=  21.153 min)
GTO integral calculation        ...        6.095 sec (=   0.102 min)   0.5 %
SCF iterations                  ...     1263.100 sec (=  21.052 min)  99.5 %



                             ****ORCA TERMINATED NORMALLY****
TOTAL RUN TIME: 0 days 0 hours 45 minutes 36 seconds 224 msec
