
                                 *****************
                                 * O   R   C   A *
                                 *****************

                                            #,                                       
                                            ###                                      
                                            ####                                     
                                            #####                                    
                                            ######                                   
                                           ########,                                 
                                     ,,################,,,,,                         
                               ,,#################################,,                 
                          ,,##########################################,,             
                       ,#########################################, ''#####,          
                    ,#############################################,,   '####,        
                  ,##################################################,,,,####,       
                ,###########''''           ''''###############################       
              ,#####''   ,,,,##########,,,,          '''####'''          '####       
            ,##' ,,,,###########################,,,                        '##       
           ' ,,###''''                  '''############,,,                           
         ,,##''                                '''############,,,,        ,,,,,,###''
      ,#''                                            '''#######################'''  
     '                                                          ''''####''''         
             ,#######,   #######,   ,#######,      ##                                
            ,#'     '#,  ##    ##  ,#'     '#,    #''#        ######   ,####,        
            ##       ##  ##   ,#'  ##            #'  '#       #        #'  '#        
            ##       ##  #######   ##           ,######,      #####,   #    #        
            '#,     ,#'  ##    ##  '#,     ,#' ,#      #,         ##   #,  ,#        
             '#######'   ##     ##  '#######'  #'      '#     #####' # '####'        



                  #######################################################
                  #                        -***-                        #
                  #          Department of theory and spectroscopy      #
                  #    Directorship and core code : Frank Neese         #
                  #        Max Planck Institute fuer Kohlenforschung    #
                  #                Kaiser Wilhelm Platz 1               #
                  #                 D-45470 Muelheim/Ruhr               #
                  #                      Germany                        #
                  #                                                     #
                  #                  All rights reserved                #
                  #                        -***-                        #
                  #######################################################



                         Program Version 5.0.4 -  RELEASE  -

 With contributions from (in alphabetic order):
   Daniel Aravena         : Magnetic Suceptibility
   Michael Atanasov       : Ab Initio Ligand Field Theory (pilot matlab implementation)
   Alexander A. Auer      : GIAO ZORA, VPT2 properties, NMR spectrum
   Ute Becker             : Parallelization
   Giovanni Bistoni       : ED, misc. LED, open-shell LED, HFLD
   Martin Brehm           : Molecular dynamics
   Dmytro Bykov           : SCF Hessian
   Vijay G. Chilkuri      : MRCI spin determinant printing, contributions to CSF-ICE
   Dipayan Datta          : RHF DLPNO-CCSD density
   Achintya Kumar Dutta   : EOM-CC, STEOM-CC
   Dmitry Ganyushin       : Spin-Orbit,Spin-Spin,Magnetic field MRCI
   Miquel Garcia          : C-PCM and meta-GGA Hessian, CC/C-PCM, Gaussian charge scheme
   Yang Guo               : DLPNO-NEVPT2, F12-NEVPT2, CIM, IAO-localization
   Andreas Hansen         : Spin unrestricted coupled pair/coupled cluster methods
   Benjamin Helmich-Paris : MC-RPA, TRAH-SCF, COSX integrals
   Lee Huntington         : MR-EOM, pCC
   Robert Izsak           : Overlap fitted RIJCOSX, COSX-SCS-MP3, EOM
   Marcus Kettner         : VPT2
   Christian Kollmar      : KDIIS, OOCD, Brueckner-CCSD(T), CCSD density, CASPT2, CASPT2-K
   Simone Kossmann        : Meta GGA functionals, TD-DFT gradient, OOMP2, MP2 Hessian
   Martin Krupicka        : Initial AUTO-CI
   Lucas Lang             : DCDCAS
   Marvin Lechner         : AUTO-CI (C++ implementation), FIC-MRCC
   Dagmar Lenk            : GEPOL surface, SMD
   Dimitrios Liakos       : Extrapolation schemes; Compound Job, initial MDCI parallelization
   Dimitrios Manganas     : Further ROCIS development; embedding schemes
   Dimitrios Pantazis     : SARC Basis sets
   Anastasios Papadopoulos: AUTO-CI, single reference methods and gradients
   Taras Petrenko         : DFT Hessian,TD-DFT gradient, ASA, ECA, R-Raman, ABS, FL, XAS/XES, NRVS
   Peter Pinski           : DLPNO-MP2, DLPNO-MP2 Gradient
   Christoph Reimann      : Effective Core Potentials
   Marius Retegan         : Local ZFS, SOC
   Christoph Riplinger    : Optimizer, TS searches, QM/MM, DLPNO-CCSD(T), (RO)-DLPNO pert. Triples
   Tobias Risthaus        : Range-separated hybrids, TD-DFT gradient, RPA, STAB
   Michael Roemelt        : Original ROCIS implementation
   Masaaki Saitow         : Open-shell DLPNO-CCSD energy and density
   Barbara Sandhoefer     : DKH picture change effects
   Avijit Sen             : IP-ROCIS
   Kantharuban Sivalingam : CASSCF convergence, NEVPT2, FIC-MRCI
   Bernardo de Souza      : ESD, SOC TD-DFT
   Georgi Stoychev        : AutoAux, RI-MP2 NMR, DLPNO-MP2 response
   Willem Van den Heuvel  : Paramagnetic NMR
   Boris Wezisla          : Elementary symmetry handling
   Frank Wennmohs         : Technical directorship


 We gratefully acknowledge several colleagues who have allowed us to
 interface, adapt or use parts of their codes:
   Stefan Grimme, W. Hujo, H. Kruse, P. Pracht,  : VdW corrections, initial TS optimization,
                  C. Bannwarth, S. Ehlert          DFT functionals, gCP, sTDA/sTD-DF
   Ed Valeev, F. Pavosevic, A. Kumar             : LibInt (2-el integral package), F12 methods
   Garnet Chan, S. Sharma, J. Yang, R. Olivares  : DMRG
   Ulf Ekstrom                                   : XCFun DFT Library
   Mihaly Kallay                                 : mrcc  (arbitrary order and MRCC methods)
   Jiri Pittner, Ondrej Demel                    : Mk-CCSD
   Frank Weinhold                                : gennbo (NPA and NBO analysis)
   Christopher J. Cramer and Donald G. Truhlar   : smd solvation model
   Lars Goerigk                                  : TD-DFT with DH, B97 family of functionals
   V. Asgeirsson, H. Jonsson                     : NEB implementation
   FAccTs GmbH                                   : IRC, NEB, NEB-TS, DLPNO-Multilevel, CI-OPT
                                                   MM, QMMM, 2- and 3-layer-ONIOM, Crystal-QMMM,
                                                   LR-CPCM, SF, NACMEs, symmetry and pop. for TD-DFT,
                                                   nearIR, NL-DFT gradient (VV10), updates on ESD,
                                                   ML-optimized integration grids
   S Lehtola, MJT Oliveira, MAL Marques          : LibXC Library
   Liviu Ungur et al                             : ANISO software


 Your calculation uses the libint2 library for the computation of 2-el integrals
 For citations please refer to: http://libint.valeyev.net

 Your ORCA version has been built with support for libXC version: 5.1.0
 For citations please refer to: https://tddft.org/programs/libxc/

 This ORCA versions uses:
   CBLAS   interface :  Fast vector & matrix operations
   LAPACKE interface :  Fast linear algebra routines
   Shared memory     :  Shared parallel matrices


Your calculation utilizes the atom-pairwise dispersion correction
with the Becke-Johnson damping scheme (D3BJ)
Cite in your paper:
S.Grimme, S.Ehrlich, L.Goerigk, J Comput Chem, (2011), 32, 1456–1465 
S.Grimme, J.Antony, S.Ehrlich and H.Krieg, J.Chem.Phys., 132, (2010), 154104 
   

================================================================================

----- Orbital basis set information -----
Your calculation utilizes the basis: def2-SVP
   F. Weigend and R. Ahlrichs, Phys. Chem. Chem. Phys. 7, 3297 (2005).

----- AuxJ basis set information -----
Your calculation utilizes the auxiliary basis: def2/J
   F. Weigend, Phys. Chem. Chem. Phys. 8, 1057 (2006).

================================================================================
                                        WARNINGS
                       Please study these warnings very carefully!
================================================================================


WARNING: your system is open-shell and RHF/RKS was chosen
  ===> : WILL SWITCH to UHF/UKS


INFO   : the flag for use of the SHARK integral package has been found!

================================================================================
                                       INPUT FILE
================================================================================
NAME = lactone_kation.inp
|  1> !B3LYP D3 DEF2-SVP KEEPDENS
|  2> 
|  3> * xyz 1 2
|  4>   C      -2.198400      3.003050     -0.206660
|  5>   C      -2.501790      1.556420      0.082840
|  6>   O      -1.298120      0.854110     -0.224910
|  7>   H      -3.319490      1.177860     -0.537110
|  8>   H      -2.746290      1.385870      1.136740
|  9>   C      -0.736520      3.105080      0.147980
| 10>   H      -2.834350      3.697470      0.348480
| 11>   H      -2.330680      3.202600     -1.277180
| 12>   C      -0.246070      1.723260     -0.162800
| 13>   H      -0.589030      3.305400      1.213000
| 14>   H      -0.225450      3.853170     -0.462030
| 15>   O       0.922230      1.400710     -0.300200
| 16> **                         ****END OF INPUT****
================================================================================

                       ****************************
                       * Single Point Calculation *
                       ****************************

---------------------------------
CARTESIAN COORDINATES (ANGSTROEM)
---------------------------------
  C     -2.198400    3.003050   -0.206660
  C     -2.501790    1.556420    0.082840
  O     -1.298120    0.854110   -0.224910
  H     -3.319490    1.177860   -0.537110
  H     -2.746290    1.385870    1.136740
  C     -0.736520    3.105080    0.147980
  H     -2.834350    3.697470    0.348480
  H     -2.330680    3.202600   -1.277180
  C     -0.246070    1.723260   -0.162800
  H     -0.589030    3.305400    1.213000
  H     -0.225450    3.853170   -0.462030
  O      0.922230    1.400710   -0.300200

----------------------------
CARTESIAN COORDINATES (A.U.)
----------------------------
  NO LB      ZA    FRAG     MASS         X           Y           Z
   0 C     6.0000    0    12.011   -4.154374    5.674942   -0.390531
   1 C     6.0000    0    12.011   -4.727698    2.941208    0.156545
   2 O     8.0000    0    15.999   -2.453091    1.614034   -0.425018
   3 H     1.0000    0     1.008   -6.272927    2.225833   -1.014991
   4 H     1.0000    0     1.008   -5.189736    2.618915    2.148127
   5 C     6.0000    0    12.011   -1.391821    5.867751    0.279642
   6 H     1.0000    0     1.008   -5.356145    6.987206    0.658532
   7 H     1.0000    0     1.008   -4.404347    6.052037   -2.413520
   8 C     6.0000    0    12.011   -0.465005    3.256489   -0.307647
   9 H     1.0000    0     1.008   -1.113105    6.246301    2.292238
  10 H     1.0000    0     1.008   -0.426039    7.281436   -0.873110
  11 O     8.0000    0    15.999    1.742762    2.646958   -0.567296

--------------------------------
INTERNAL COORDINATES (ANGSTROEM)
--------------------------------
 C      0   0   0     0.000000000000     0.00000000     0.00000000
 C      1   0   0     1.506185280435     0.00000000     0.00000000
 O      2   1   0     1.427154815533   105.14797932     0.00000000
 H      2   1   3     1.093745384493   111.96707350   240.87175258
 H      2   1   3     1.095250091303   112.30135003   117.93071410
 C      1   2   3     1.507737637953   102.42071283   326.92791848
 H      1   2   3     1.093083692358   113.28840969   204.07000091
 H      1   2   3     1.096964571579   109.75520813    83.20139551
 C      3   2   1     1.366048526627   109.06461414    22.50459575
 H      6   1   2     1.093685970880   111.85118840   274.05787993
 H      6   1   2     1.092219480279   111.63354688   149.24710223
 O      9   3   2     1.219771352549   124.35192103   175.52383343

---------------------------
INTERNAL COORDINATES (A.U.)
---------------------------
 C      0   0   0     0.000000000000     0.00000000     0.00000000
 C      1   0   0     2.846277686966     0.00000000     0.00000000
 O      2   1   0     2.696931752065   105.14797932     0.00000000
 H      2   1   3     2.066879236932   111.96707350   240.87175258
 H      2   1   3     2.069722720716   112.30135003   117.93071410
 C      1   2   3     2.849211217536   102.42071283   326.92791848
 H      1   2   3     2.065628820013   113.28840969   204.07000091
 H      1   2   3     2.072962618899   109.75520813    83.20139551
 C      3   2   1     2.581457600972   109.06461414    22.50459575
 H      6   1   2     2.066766961475   111.85118840   274.05787993
 H      6   1   2     2.063995695860   111.63354688   149.24710223
 O      9   3   2     2.305033802321   124.35192103   175.52383343

---------------------
BASIS SET INFORMATION
---------------------
There are 3 groups of distinct atoms

 Group   1 Type C   : 7s4p1d contracted to 3s2p1d pattern {511/31/1}
 Group   2 Type O   : 7s4p1d contracted to 3s2p1d pattern {511/31/1}
 Group   3 Type H   : 4s1p contracted to 2s1p pattern {31/1}

Atom   0C    basis set group =>   1
Atom   1C    basis set group =>   1
Atom   2O    basis set group =>   2
Atom   3H    basis set group =>   3
Atom   4H    basis set group =>   3
Atom   5C    basis set group =>   1
Atom   6H    basis set group =>   3
Atom   7H    basis set group =>   3
Atom   8C    basis set group =>   1
Atom   9H    basis set group =>   3
Atom  10H    basis set group =>   3
Atom  11O    basis set group =>   2
---------------------------------
AUXILIARY/J BASIS SET INFORMATION
---------------------------------
There are 3 groups of distinct atoms

 Group   1 Type C   : 12s5p4d2f1g contracted to 6s4p3d1f1g pattern {711111/2111/211/2/1}
 Group   2 Type O   : 12s5p4d2f1g contracted to 6s4p3d1f1g pattern {711111/2111/211/2/1}
 Group   3 Type H   : 5s2p1d contracted to 3s1p1d pattern {311/2/1}

Atom   0C    basis set group =>   1
Atom   1C    basis set group =>   1
Atom   2O    basis set group =>   2
Atom   3H    basis set group =>   3
Atom   4H    basis set group =>   3
Atom   5C    basis set group =>   1
Atom   6H    basis set group =>   3
Atom   7H    basis set group =>   3
Atom   8C    basis set group =>   1
Atom   9H    basis set group =>   3
Atom  10H    basis set group =>   3
Atom  11O    basis set group =>   2
------------------------------------------------------------------------------
                           ORCA GTO INTEGRAL CALCULATION
                           -- RI-GTO INTEGRALS CHOSEN --
------------------------------------------------------------------------------
------------------------------------------------------------------------------
                   ___                                                        
                  /   \      - P O W E R E D   B Y -                         
                 /     \                                                     
                 |  |  |   _    _      __       _____    __    __             
                 |  |  |  | |  | |    /  \     |  _  \  |  |  /  |          
                  \  \/   | |  | |   /    \    | | | |  |  | /  /          
                 / \  \   | |__| |  /  /\  \   | |_| |  |  |/  /          
                |  |  |   |  __  | /  /__\  \  |    /   |      \           
                |  |  |   | |  | | |   __   |  |    \   |  |\   \          
                \     /   | |  | | |  |  |  |  | |\  \  |  | \   \       
                 \___/    |_|  |_| |__|  |__|  |_| \__\ |__|  \__/        
                                                                              
                      - O R C A' S   B I G   F R I E N D -                    
                                      &                                       
                       - I N T E G R A L  F E E D E R -                       
                                                                              
 v1 FN, 2020, v2 2021                                                         
------------------------------------------------------------------------------


Reading SHARK input file lactone_kation.SHARKINP.tmp ... ok
----------------------
SHARK INTEGRAL PACKAGE
----------------------

Number of atoms                             ...     12
Number of basis functions                   ...    114
Number of shells                            ...     54
Maximum angular momentum                    ...      2
Integral batch strategy                     ... SHARK/LIBINT Hybrid
RI-J (if used) integral strategy            ... SPLIT-RIJ (Revised 2003 algorithm where possible)
Printlevel                                  ...      1
Contraction scheme used                     ... SEGMENTED contraction
Coulomb Range Separation                    ... NOT USED
Exchange Range Separation                   ... NOT USED
Finite Nucleus Model                        ... NOT USED
Auxiliary Coulomb fitting basis             ... AVAILABLE
   # of basis functions in Aux-J            ...    360
   # of shells in Aux-J                     ...    120
   Maximum angular momentum in Aux-J        ...      4
Auxiliary J/K fitting basis                 ... NOT available
Auxiliary Correlation fitting basis         ... NOT available
Auxiliary 'external' fitting basis          ... NOT available
Integral threshold                          ...     1.000000e-10
Primitive cut-off                           ...     1.000000e-11
Primitive pair pre-selection threshold      ...     1.000000e-11

Calculating pre-screening integrals         ... done (  0.0 sec) Dimension = 54
Organizing shell pair data                  ... done (  0.0 sec)
Shell pair information
Total number of shell pairs                 ...      1485
Shell pairs after pre-screening             ...      1456
Total number of primitive shell pairs       ...      5349
Primitive shell pairs kept                  ...      4117
          la=0 lb=0:    452 shell pairs
          la=1 lb=0:    532 shell pairs
          la=1 lb=1:    169 shell pairs
          la=2 lb=0:    176 shell pairs
          la=2 lb=1:    106 shell pairs
          la=2 lb=2:     21 shell pairs

Calculating one electron integrals          ... done (  0.0 sec)
Calculating RI/J V-Matrix + Cholesky decomp.... done (  0.0 sec)
Calculating Nuclear repulsion               ... done (  0.0 sec) ENN=    241.928069638454 Eh

SHARK setup successfully completed in   0.2 seconds

Maximum memory used throughout the entire GTOINT-calculation: 13.5 MB
-------------------------------------------------------------------------------
                                 ORCA SCF
-------------------------------------------------------------------------------

------------
SCF SETTINGS
------------
Hamiltonian:
 Density Functional     Method          .... DFT(GTOs)
 Exchange Functional    Exchange        .... B88
   X-Alpha parameter    XAlpha          ....  0.666667
   Becke's b parameter  XBeta           ....  0.004200
 Correlation Functional Correlation     .... LYP
 LDA part of GGA corr.  LDAOpt          .... VWN-5
 Gradients option       PostSCFGGA      .... off
 Hybrid DFT is turned on
   Fraction HF Exchange ScalHFX         ....  0.200000
   Scaling of DF-GGA-X  ScalDFX         ....  0.720000
   Scaling of DF-GGA-C  ScalDFC         ....  0.810000
   Scaling of DF-LDA-C  ScalLDAC        ....  1.000000
   Perturbative correction              ....  0.000000
   Density functional embedding theory  .... OFF
   NL short-range parameter             ....  4.800000
 RI-approximation to the Coulomb term is turned on
   Number of AuxJ basis functions       .... 360
   RIJ-COSX (HFX calculated with COS-X)).... on


General Settings:
 Integral files         IntName         .... lactone_kation
 Hartree-Fock type      HFTyp           .... UHF
 Total Charge           Charge          ....    1
 Multiplicity           Mult            ....    2
 Number of Electrons    NEL             ....   45
 Basis Dimension        Dim             ....  114
 Nuclear Repulsion      ENuc            ....    241.9280696385 Eh

Convergence Acceleration:
 DIIS                   CNVDIIS         .... on
   Start iteration      DIISMaxIt       ....    12
   Startup error        DIISStart       ....  0.200000
   # of expansion vecs  DIISMaxEq       ....     5
   Bias factor          DIISBfac        ....   1.050
   Max. coefficient     DIISMaxC        ....  10.000
 Trust-Rad. Augm. Hess. CNVTRAH         .... auto
   Auto Start mean grad. ratio tolernc. ....  1.125000
   Auto Start start iteration           ....    20
   Auto Start num. interpolation iter.  ....    10
   Max. Number of Micro iterations      ....    16
   Max. Number of Macro iterations      .... Maxiter - #DIIS iter
   Number of Davidson start vectors     ....     2
   Converg. threshold I  (grad. norm)   ....   5.000e-05
   Converg. threshold II (energy diff.) ....   1.000e-06
   Grad. Scal. Fac. for Micro threshold ....   0.100
   Minimum threshold for Micro iter.    ....   0.010
   NR start threshold (gradient norm)   ....   0.001
   Initial trust radius                 ....   0.400
   Minimum AH scaling param. (alpha)    ....   1.000
   Maximum AH scaling param. (alpha)    .... 1000.000
   Orbital update algorithm             .... Taylor
   White noise on init. David. guess    .... on
   Maximum white noise                  ....   0.010
   Quad. conv. algorithm                .... NR
 SOSCF                  CNVSOSCF        .... off
 Level Shifting         CNVShift        .... on
   Level shift para.    LevelShift      ....    0.2500
   Turn off err/grad.   ShiftErr        ....    0.0010
 Zerner damping         CNVZerner       .... off
 Static damping         CNVDamp         .... on
   Fraction old density DampFac         ....    0.7000
   Max. Damping (<1)    DampMax         ....    0.9800
   Min. Damping (>=0)   DampMin         ....    0.0000
   Turn off err/grad.   DampErr         ....    0.1000
 Fernandez-Rico         CNVRico         .... off

SCF Procedure:
 Maximum # iterations   MaxIter         ....   125
 SCF integral mode      SCFMode         .... Direct
   Integral package                     .... SHARK and LIBINT hybrid scheme
 Reset frequency        DirectResetFreq ....    20
 Integral Threshold     Thresh          ....  1.000e-10 Eh
 Primitive CutOff       TCut            ....  1.000e-11 Eh

Convergence Tolerance:
 Convergence Check Mode ConvCheckMode   .... Total+1el-Energy
 Convergence forced     ConvForced      .... 0
 Energy Change          TolE            ....  1.000e-06 Eh
 1-El. energy change                    ....  1.000e-03 Eh
 DIIS Error             TolErr          ....  1.000e-06


Diagonalization of the overlap matrix:
Smallest eigenvalue                        ... 1.369e-03
Time for diagonalization                   ...    0.003 sec
Threshold for overlap eigenvalues          ... 1.000e-08
Number of eigenvalues below threshold      ... 0
Time for construction of square roots      ...    0.002 sec
Total time needed                          ...    0.006 sec

Time for model grid setup =    0.162 sec

------------------------------
INITIAL GUESS: MODEL POTENTIAL
------------------------------
Loading Hartree-Fock densities                     ... done
Calculating cut-offs                               ... done
Initializing the effective Hamiltonian             ... done
Setting up the integral package (SHARK)            ... done
Starting the Coulomb interaction                   ... done (   0.1 sec)
Reading the grid                                   ... done
Mapping shells                                     ... done
Starting the XC term evaluation                    ... done (   0.2 sec)
  promolecular density results
     # of electrons  =     45.997865761
     EX              =    -38.765094454
     EC              =     -1.571743654
     EX+EC           =    -40.336838108
Transforming the Hamiltonian                       ... done (   0.0 sec)
Diagonalizing the Hamiltonian                      ... done (   0.0 sec)
Back transforming the eigenvectors                 ... done (   0.0 sec)
Now organizing SCF variables                       ... done
                      ------------------
                      INITIAL GUESS DONE (   0.5 sec)
                      ------------------
-------------------
DFT GRID GENERATION
-------------------

General Integration Accuracy     IntAcc      ... 4.388
Radial Grid Type                 RadialGrid  ... OptM3 with GC (2021)
Angular Grid (max. ang.)         AngularGrid ... 4 (Lebedev-302)
Angular grid pruning method      GridPruning ... 4 (adaptive)
Weight generation scheme         WeightScheme... Becke
Basis function cutoff            BFCut       ... 1.0000e-10
Integration weight cutoff        WCut        ... 1.0000e-14
Angular grids for H and He will be reduced by one unit
Partially contracted basis set               ... off
Rotationally invariant grid construction     ... off

Total number of grid points                  ...    55544
Total number of batches                      ...      874
Average number of points per batch           ...       63
Average number of grid points per atom       ...     4629
Time for grid setup =    0.678 sec

--------------------
COSX GRID GENERATION
--------------------

GRIDX 1
-------
General Integration Accuracy     IntAcc      ... 3.816
Radial Grid Type                 RadialGrid  ... OptM3 with GC (2021)
Angular Grid (max. ang.)         AngularGrid ... 1 (Lebedev-50)
Angular grid pruning method      GridPruning ... 4 (adaptive)
Weight generation scheme         WeightScheme... Becke
Basis function cutoff            BFCut       ... 1.0000e-10
Integration weight cutoff        WCut        ... 1.0000e-14
Angular grids for H and He will be reduced by one unit
Partially contracted basis set               ... on
Rotationally invariant grid construction     ... off

Total number of grid points                  ...     7115
Total number of batches                      ...      119
Average number of points per batch           ...       59
Average number of grid points per atom       ...      593
UseSFitting                                  ... on

GRIDX 2
-------
General Integration Accuracy     IntAcc      ... 4.020
Radial Grid Type                 RadialGrid  ... OptM3 with GC (2021)
Angular Grid (max. ang.)         AngularGrid ... 2 (Lebedev-110)
Angular grid pruning method      GridPruning ... 4 (adaptive)
Weight generation scheme         WeightScheme... Becke
Basis function cutoff            BFCut       ... 1.0000e-10
Integration weight cutoff        WCut        ... 1.0000e-14
Angular grids for H and He will be reduced by one unit
Partially contracted basis set               ... on
Rotationally invariant grid construction     ... off

Total number of grid points                  ...    15496
Total number of batches                      ...      249
Average number of points per batch           ...       62
Average number of grid points per atom       ...     1291
UseSFitting                                  ... on

GRIDX 3
-------
General Integration Accuracy     IntAcc      ... 4.338
Radial Grid Type                 RadialGrid  ... OptM3 with GC (2021)
Angular Grid (max. ang.)         AngularGrid ... 3 (Lebedev-194)
Angular grid pruning method      GridPruning ... 4 (adaptive)
Weight generation scheme         WeightScheme... Becke
Basis function cutoff            BFCut       ... 1.0000e-10
Integration weight cutoff        WCut        ... 1.0000e-14
Angular grids for H and He will be reduced by one unit
Partially contracted basis set               ... on
Rotationally invariant grid construction     ... off

Total number of grid points                  ...    34054
Total number of batches                      ...      539
Average number of points per batch           ...       63
Average number of grid points per atom       ...     2838
UseSFitting                                  ... on

Time for X-Grid setup             =    0.706 sec

--------------
SCF ITERATIONS
--------------
ITER       Energy         Delta-E        Max-DP      RMS-DP      [F,P]     Damp
               ***  Starting incremental Fock matrix formation  ***
  0   -305.6003310193   0.000000000000 0.03661076  0.00138054  0.1022777 0.7000
  1   -305.6571534029  -0.056822383589 0.02398054  0.00087704  0.0342722 0.7000
                               ***Turning on DIIS***
  2   -305.6768270053  -0.019673602391 0.03895578  0.00155516  0.0167279 0.0000
  3   -305.7150338587  -0.038206853462 0.01688297  0.00058240  0.0230405 0.0000
  4   -305.7215983760  -0.006564517283 0.01603870  0.00026780  0.0124399 0.0000
  5   -305.7228854505  -0.001287074456 0.00827568  0.00018319  0.0076176 0.0000
  6   -305.7237161701  -0.000830719635 0.00947825  0.00019370  0.0043687 0.0000
  7   -305.7244052772  -0.000689107108 0.00839353  0.00017319  0.0036693 0.0000
  8   -305.7249563017  -0.000551024519 0.00665717  0.00015020  0.0039142 0.0000
  9   -305.7253985089  -0.000442207116 0.00693410  0.00017511  0.0030673 0.0000
 10   -305.7258463410  -0.000447832106 0.00490092  0.00012209  0.0034590 0.0000
 11   -305.7261644723  -0.000318131311 0.00737306  0.00021720  0.0024890 0.0000
 12   -305.7265249804  -0.000360508102 0.00388353  0.00011064  0.0038631 0.0000
 13   -305.7268155875  -0.000290607090 0.00638036  0.00014831  0.0028379 0.0000
 14   -305.7270792400  -0.000263652569 0.00500917  0.00011678  0.0025793 0.0000
 15   -305.7272866363  -0.000207396283 0.00457338  0.00010157  0.0022705 0.0000
 16   -305.7274516611  -0.000165024744 0.00535111  0.00011398  0.0018690 0.0000
 17   -305.7275930735  -0.000141412440 0.00644107  0.00012613  0.0018590 0.0000
 18   -305.7277350092  -0.000141935716 0.00325094  0.00007715  0.0016455 0.0000
 19   -305.7278292603  -0.000094251074 0.00295887  0.00006796  0.0011761 0.0000
               *** Restarting incremental Fock matrix formation ***
                                   *** Resetting DIIS ***

 WARNING: the maximum gradient error descreased on average only by a factor   1.1
          during the last 20 iterations

                      *** Initiating the TRAH-SCF procedure ***


TRAH GRIDX
----------

General Integration Accuracy     IntAcc      ... 3.067
Radial Grid Type                 RadialGrid  ... OptM3 with GC (2021)
Angular Grid (max. ang.)         AngularGrid ... 1 (Lebedev-50)
Angular grid pruning method      GridPruning ... 4 (adaptive)
Weight generation scheme         WeightScheme... Becke
Basis function cutoff            BFCut       ... 1.0000e-10
Integration weight cutoff        WCut        ... 1.0000e-14
Angular grids for H and He will be reduced by one unit
Partially contracted basis set               ... on
Rotationally invariant grid construction     ... off

Total number of grid points                  ...     3727
Total number of batches                      ...       66
Average number of points per batch           ...       56
Average number of grid points per atom       ...      311


TRAH GRID
---------

General Integration Accuracy     IntAcc      ... 3.467
Radial Grid Type                 RadialGrid  ... OptM3 with GC (2021)
Angular Grid (max. ang.)         AngularGrid ... 1 (Lebedev-50)
Angular grid pruning method      GridPruning ... 4 (adaptive)
Weight generation scheme         WeightScheme... Becke
Basis function cutoff            BFCut       ... 1.0000e-10
Integration weight cutoff        WCut        ... 1.0000e-14
Angular grids for H and He will be reduced by one unit
Partially contracted basis set               ... off
Rotationally invariant grid construction     ... off

Total number of grid points                  ...     8101
Total number of batches                      ...      131
Average number of points per batch           ...       61
Average number of grid points per atom       ...      675

 --------------------------------------------------------------------------------------------
   Iter.        energy            ||Error||_2        Shift      TRadius  Mac/Mic        Rej.
 --------------------------------------------------------------------------------------------
    0       -305.727912162699     4.186032e-03                     0.400 (TRAH MAcro)   No
    0     dE    -1.531480e-05     9.148768e-03    -1.5315e-05      0.004 (TRAH MIcro)
    0     dE    -1.546151e-04     6.990358e-03    -1.5402e-04      0.062 (TRAH MIcro)
    0     dE    -1.962302e-04     4.154556e-03    -1.9492e-04      0.082 (TRAH MIcro)
    0     dE    -2.192134e-04     2.899466e-03    -2.1731e-04      0.094 (TRAH MIcro)
    0     dE    -2.265687e-04     1.389217e-03    -2.2444e-04      0.097 (TRAH MIcro)
    0     dE    -2.280029e-04     6.914477e-04    -2.2582e-04      0.098 (TRAH MIcro)
    0     dE    -2.284539e-04     4.184333e-04    -2.2625e-04      0.099 (TRAH MIcro)
    1       -305.728148382304     3.400961e-03                     0.480 (TRAH MAcro)   No
    1     dE    -4.451792e-06     2.030587e-03    -4.4518e-06      0.001 (TRAH MIcro)
    1     dE    -6.610761e-06     6.750569e-04    -6.6107e-06      0.004 (TRAH MIcro)
    1     dE    -7.148366e-06     5.478269e-04    -7.1482e-06      0.005 (TRAH MIcro)
    1     dE    -7.396143e-06     2.632667e-04    -7.3958e-06      0.007 (TRAH MIcro)
    2       -305.728155840756     2.641920e-04                           (NR   MAcro)
    2     dE    -7.894338e-08     2.401392e-04                           (NR   MIcro)
    2     dE    -1.722371e-07     2.013512e-04                           (NR   MIcro)
    2     dE    -2.111749e-07     1.710160e-04                           (NR   MIcro)
    2     dE    -2.377471e-07     9.371594e-05                           (NR   MIcro)
    2     dE    -2.448969e-07     4.579977e-05                           (NR   MIcro)
    2     dE    -2.462549e-07     1.528639e-05                           (NR   MIcro)
    2     dE    -2.464758e-07     6.077867e-06                           (NR   MIcro)
    2     dE    -2.464973e-07     2.720225e-06                           (NR   MIcro)
    3       -305.728156084436     3.940202e-06                           (NR   MAcro)

               *****************************************************
               *                     SUCCESS                       *
               *           SCF CONVERGED AFTER  43 CYCLES          *
               *****************************************************

Old exchange energy                            =     -7.788290137 Eh
New exchange energy                            =     -7.788265798 Eh
Exchange energy change after final integration =      0.000024340 Eh
Total energy after final integration           =   -305.728131745 Eh
Final COS-X integration done in                =     5.990 sec

----------------
TOTAL SCF ENERGY
----------------

Total Energy       :         -305.72813174 Eh           -8319.28541 eV

Components:
Nuclear Repulsion  :          241.92806964 Eh            6583.19746 eV
Electronic Energy  :         -547.65620138 Eh          -14902.48287 eV
One Electron Energy:         -883.54873391 Eh          -24042.58335 eV
Two Electron Energy:          335.89253252 Eh            9140.10048 eV
Max COSX asymmetry :            0.00000062 Eh               0.00002 eV

Virial components:
Potential Energy   :         -609.00564004 Eh          -16571.88596 eV
Kinetic Energy     :          303.27750830 Eh            8252.60055 eV
Virial Ratio       :            2.00808047


DFT components:
N(Alpha)           :       22.999976439807 electrons
N(Beta)            :       21.999975417563 electrons
N(Total)           :       44.999951857370 electrons
E(X)               :      -30.986727256486 Eh       
E(C)               :       -1.812252023649 Eh       
E(XC)              :      -32.798979280135 Eh       
DFET-embed. en.    :        0.000000000000 Eh       

---------------
SCF CONVERGENCE
---------------

  Last Energy change         ...   -2.4368e-07  Tolerance :   1.0000e-06
  Last Orbital Gradient      ...    3.9402e-06  Tolerance :   5.0000e-05
  Last Orbital Rotation      ...    2.8736e-03

             **** THE GBW FILE WAS UPDATED (lactone_kation.gbw) ****
             **** DENSITY lactone_kation.scfp WAS UPDATED ****
             **** ENERGY FILE WAS UPDATED (lactone_kation.en.tmp) ****
----------------------
UHF SPIN CONTAMINATION
----------------------

Warning: in a DFT calculation there is little theoretical justification to 
         calculate <S**2> as in Hartree-Fock theory. We will do it anyways
         but you should keep in mind that the values have only limited relevance

Expectation value of <S**2>     :     0.755817
Ideal value S*(S+1) for S=0.5   :     0.750000
Deviation                       :     0.005817

             **** THE GBW FILE WAS UPDATED (lactone_kation.gbw) ****
             **** DENSITY lactone_kation.scfp WAS UPDATED ****
----------------
ORBITAL ENERGIES
----------------
                 SPIN UP ORBITALS
  NO   OCC          E(Eh)            E(eV) 
   0   1.0000     -19.507826      -530.8349 
   1   1.0000     -19.448685      -529.2256 
   2   1.0000     -10.604164      -288.5540 
   3   1.0000     -10.454584      -284.4837 
   4   1.0000     -10.451426      -284.3978 
   5   1.0000     -10.409150      -283.2474 
   6   1.0000      -1.400419       -38.1073 
   7   1.0000      -1.321792       -35.9678 
   8   1.0000      -1.046423       -28.4746 
   9   1.0000      -0.967973       -26.3399 
  10   1.0000      -0.865976       -23.5644 
  11   1.0000      -0.810126       -22.0447 
  12   1.0000      -0.773828       -21.0569 
  13   1.0000      -0.769186       -20.9306 
  14   1.0000      -0.728912       -19.8347 
  15   1.0000      -0.693407       -18.8686 
  16   1.0000      -0.687915       -18.7191 
  17   1.0000      -0.665320       -18.1043 
  18   1.0000      -0.616356       -16.7719 
  19   1.0000      -0.611214       -16.6320 
  20   1.0000      -0.589306       -16.0358 
  21   1.0000      -0.577381       -15.7113 
  22   1.0000      -0.540665       -14.7122 
  23   0.0000      -0.278848        -7.5878 
  24   0.0000      -0.136356        -3.7104 
  25   0.0000      -0.102816        -2.7978 
  26   0.0000      -0.097545        -2.6543 
  27   0.0000      -0.074428        -2.0253 
  28   0.0000      -0.054211        -1.4751 
  29   0.0000      -0.046571        -1.2672 
  30   0.0000      -0.036582        -0.9955 
  31   0.0000      -0.021585        -0.5874 
  32   0.0000      -0.003855        -0.1049 
  33   0.0000       0.028134         0.7656 
  34   0.0000       0.054343         1.4788 
  35   0.0000       0.109586         2.9820 
  36   0.0000       0.184858         5.0302 
  37   0.0000       0.209292         5.6951 
  38   0.0000       0.226059         6.1514 
  39   0.0000       0.244880         6.6635 
  40   0.0000       0.273957         7.4548 
  41   0.0000       0.296518         8.0687 
  42   0.0000       0.333363         9.0713 
  43   0.0000       0.337173         9.1749 
  44   0.0000       0.378907        10.3106 
  45   0.0000       0.397028        10.8037 
  46   0.0000       0.409473        11.1423 
  47   0.0000       0.427219        11.6252 
  48   0.0000       0.439778        11.9670 
  49   0.0000       0.463463        12.6115 
  50   0.0000       0.470009        12.7896 
  51   0.0000       0.481492        13.1021 
  52   0.0000       0.491869        13.3844 
  53   0.0000       0.497325        13.5329 
  54   0.0000       0.507911        13.8210 
  55   0.0000       0.594727        16.1833 
  56   0.0000       0.665362        18.1054 
  57   0.0000       0.703026        19.1303 
  58   0.0000       0.791645        21.5417 
  59   0.0000       0.802920        21.8486 
  60   0.0000       0.821610        22.3571 
  61   0.0000       0.839715        22.8498 
  62   0.0000       0.877209        23.8701 
  63   0.0000       0.999862        27.2076 
  64   0.0000       1.062536        28.9131 
  65   0.0000       1.111120        30.2351 
  66   0.0000       1.135552        30.8999 
  67   0.0000       1.224668        33.3249 
  68   0.0000       1.279896        34.8278 
  69   0.0000       1.291071        35.1318 
  70   0.0000       1.318667        35.8827 
  71   0.0000       1.366249        37.1775 
  72   0.0000       1.436521        39.0897 
  73   0.0000       1.484997        40.4088 
  74   0.0000       1.509684        41.0806 
  75   0.0000       1.524568        41.4856 
  76   0.0000       1.540830        41.9281 
  77   0.0000       1.553537        42.2739 
  78   0.0000       1.574492        42.8441 
  79   0.0000       1.592587        43.3365 
  80   0.0000       1.602173        43.5973 
  81   0.0000       1.628355        44.3098 
  82   0.0000       1.665690        45.3257 
  83   0.0000       1.677340        45.6428 
  84   0.0000       1.692681        46.0602 
  85   0.0000       1.741569        47.3905 
  86   0.0000       1.770590        48.1802 
  87   0.0000       1.869637        50.8754 
  88   0.0000       1.887572        51.3634 
  89   0.0000       1.902374        51.7662 
  90   0.0000       2.009890        54.6919 
  91   0.0000       2.077244        56.5247 
  92   0.0000       2.098086        57.0918 
  93   0.0000       2.178110        59.2694 
  94   0.0000       2.198805        59.8325 
  95   0.0000       2.282679        62.1149 
  96   0.0000       2.315710        63.0137 
  97   0.0000       2.327703        63.3400 
  98   0.0000       2.401528        65.3489 
  99   0.0000       2.441519        66.4371 
 100   0.0000       2.524533        68.6960 
 101   0.0000       2.546704        69.2993 
 102   0.0000       2.602753        70.8245 
 103   0.0000       2.643728        71.9395 
 104   0.0000       2.684324        73.0442 
 105   0.0000       2.742601        74.6300 
 106   0.0000       2.758514        75.0630 
 107   0.0000       2.784873        75.7802 
 108   0.0000       2.833638        77.1072 
 109   0.0000       2.901822        78.9626 
 110   0.0000       2.956896        80.4612 
 111   0.0000       3.025859        82.3378 
 112   0.0000       3.295876        89.6854 
 113   0.0000       3.328600        90.5758 

                 SPIN DOWN ORBITALS
  NO   OCC          E(Eh)            E(eV) 
   0   1.0000     -19.486177      -530.2458 
   1   1.0000     -19.446040      -529.1537 
   2   1.0000     -10.605462      -288.5893 
   3   1.0000     -10.454608      -284.4843 
   4   1.0000     -10.448790      -284.3260 
   5   1.0000     -10.408508      -283.2299 
   6   1.0000      -1.370498       -37.2931 
   7   1.0000      -1.301629       -35.4191 
   8   1.0000      -1.038462       -28.2580 
   9   1.0000      -0.959456       -26.1081 
  10   1.0000      -0.852986       -23.2109 
  11   1.0000      -0.795094       -21.6356 
  12   1.0000      -0.760382       -20.6911 
  13   1.0000      -0.757365       -20.6089 
  14   1.0000      -0.712632       -19.3917 
  15   1.0000      -0.679580       -18.4923 
  16   1.0000      -0.663787       -18.0626 
  17   1.0000      -0.643918       -17.5219 
  18   1.0000      -0.607233       -16.5236 
  19   1.0000      -0.587987       -15.9999 
  20   1.0000      -0.577928       -15.7262 
  21   1.0000      -0.538105       -14.6426 
  22   0.0000      -0.463059       -12.6005 
  23   0.0000      -0.274519        -7.4700 
  24   0.0000      -0.134290        -3.6542 
  25   0.0000      -0.101668        -2.7665 
  26   0.0000      -0.095569        -2.6006 
  27   0.0000      -0.072310        -1.9676 
  28   0.0000      -0.048094        -1.3087 
  29   0.0000      -0.044408        -1.2084 
  30   0.0000      -0.033862        -0.9214 
  31   0.0000      -0.016111        -0.4384 
  32   0.0000      -0.000851        -0.0232 
  33   0.0000       0.031898         0.8680 
  34   0.0000       0.058164         1.5827 
  35   0.0000       0.119008         3.2384 
  36   0.0000       0.186026         5.0620 
  37   0.0000       0.210675         5.7328 
  38   0.0000       0.227272         6.1844 
  39   0.0000       0.245312         6.6753 
  40   0.0000       0.281072         7.6484 
  41   0.0000       0.303281         8.2527 
  42   0.0000       0.337653         9.1880 
  43   0.0000       0.341956         9.3051 
  44   0.0000       0.383333        10.4310 
  45   0.0000       0.399797        10.8790 
  46   0.0000       0.412536        11.2257 
  47   0.0000       0.428767        11.6673 
  48   0.0000       0.443298        12.0628 
  49   0.0000       0.465144        12.6572 
  50   0.0000       0.472589        12.8598 
  51   0.0000       0.484104        13.1731 
  52   0.0000       0.492994        13.4151 
  53   0.0000       0.498689        13.5700 
  54   0.0000       0.508791        13.8449 
  55   0.0000       0.604145        16.4396 
  56   0.0000       0.669711        18.2238 
  57   0.0000       0.709981        19.3196 
  58   0.0000       0.805785        21.9265 
  59   0.0000       0.811589        22.0845 
  60   0.0000       0.836160        22.7531 
  61   0.0000       0.860900        23.4263 
  62   0.0000       0.883061        24.0293 
  63   0.0000       1.006957        27.4007 
  64   0.0000       1.066115        29.0105 
  65   0.0000       1.113269        30.2936 
  66   0.0000       1.141696        31.0671 
  67   0.0000       1.229987        33.4697 
  68   0.0000       1.282950        34.9108 
  69   0.0000       1.301017        35.4025 
  70   0.0000       1.320175        35.9238 
  71   0.0000       1.370349        37.2891 
  72   0.0000       1.439366        39.1671 
  73   0.0000       1.492221        40.6054 
  74   0.0000       1.512311        41.1521 
  75   0.0000       1.528068        41.5808 
  76   0.0000       1.542324        41.9688 
  77   0.0000       1.555899        42.3382 
  78   0.0000       1.576280        42.8928 
  79   0.0000       1.595647        43.4197 
  80   0.0000       1.604216        43.6529 
  81   0.0000       1.632130        44.4125 
  82   0.0000       1.669595        45.4320 
  83   0.0000       1.680948        45.7409 
  84   0.0000       1.694484        46.1093 
  85   0.0000       1.742625        47.4192 
  86   0.0000       1.772605        48.2350 
  87   0.0000       1.874980        51.0208 
  88   0.0000       1.890834        51.4522 
  89   0.0000       1.905547        51.8526 
  90   0.0000       2.016846        54.8812 
  91   0.0000       2.082451        56.6664 
  92   0.0000       2.099844        57.1397 
  93   0.0000       2.187514        59.5253 
  94   0.0000       2.207679        60.0740 
  95   0.0000       2.310715        62.8778 
  96   0.0000       2.345726        63.8304 
  97   0.0000       2.389053        65.0094 
  98   0.0000       2.404098        65.4188 
  99   0.0000       2.446050        66.5604 
 100   0.0000       2.530532        68.8593 
 101   0.0000       2.553179        69.4755 
 102   0.0000       2.604978        70.8851 
 103   0.0000       2.650648        72.1278 
 104   0.0000       2.688246        73.1509 
 105   0.0000       2.746413        74.7337 
 106   0.0000       2.766584        75.2826 
 107   0.0000       2.793990        76.0283 
 108   0.0000       2.835874        77.1681 
 109   0.0000       2.909917        79.1829 
 110   0.0000       2.971925        80.8702 
 111   0.0000       3.035799        82.6083 
 112   0.0000       3.315557        90.2209 
 113   0.0000       3.346000        91.0493 

                    ********************************
                    * MULLIKEN POPULATION ANALYSIS *
                    ********************************

--------------------------------------------
MULLIKEN ATOMIC CHARGES AND SPIN POPULATIONS
--------------------------------------------
   0 C :   -0.057144    0.035812
   1 C :    0.187476   -0.002517
   2 O :   -0.208931    0.083969
   3 H :    0.111509    0.016728
   4 H :    0.092744   -0.000335
   5 C :   -0.005773    0.138956
   6 H :    0.104946    0.017015
   7 H :    0.090061   -0.001156
   8 C :    0.270058   -0.063081
   9 H :    0.141051   -0.001938
  10 H :    0.132375   -0.005750
  11 O :    0.141628    0.782297
Sum of atomic charges         :    1.0000000
Sum of atomic spin populations:    1.0000000

-----------------------------------------------------
MULLIKEN REDUCED ORBITAL CHARGES AND SPIN POPULATIONS
-----------------------------------------------------
CHARGE
  0 C s       :     3.069858  s :     3.069858
      pz      :     1.060993  p :     2.951787
      px      :     0.903889
      py      :     0.986905
      dz2     :     0.009221  d :     0.035499
      dxz     :     0.005203
      dyz     :     0.005547
      dx2y2   :     0.009711
      dxy     :     0.005818
  1 C s       :     3.028793  s :     3.028793
      pz      :     1.059630  p :     2.725117
      px      :     0.766963
      py      :     0.898525
      dz2     :     0.011971  d :     0.058615
      dxz     :     0.010818
      dyz     :     0.006957
      dx2y2   :     0.012625
      dxy     :     0.016244
  2 O s       :     3.783564  s :     3.783564
      pz      :     1.660132  p :     4.406849
      px      :     1.188590
      py      :     1.558126
      dz2     :     0.002458  d :     0.018519
      dxz     :     0.002493
      dyz     :     0.002953
      dx2y2   :     0.002743
      dxy     :     0.007872
  3 H s       :     0.865731  s :     0.865731
      pz      :     0.007984  p :     0.022760
      px      :     0.009972
      py      :     0.004803
  4 H s       :     0.885058  s :     0.885058
      pz      :     0.015008  p :     0.022198
      px      :     0.003424
      py      :     0.003765
  5 C s       :     3.036552  s :     3.036552
      pz      :     1.083543  p :     2.934590
      px      :     0.960167
      py      :     0.890879
      dz2     :     0.008146  d :     0.034632
      dxz     :     0.006391
      dyz     :     0.003631
      dx2y2   :     0.007624
      dxy     :     0.008840
  6 H s       :     0.871382  s :     0.871382
      pz      :     0.007226  p :     0.023673
      px      :     0.007777
      py      :     0.008669
  7 H s       :     0.886878  s :     0.886878
      pz      :     0.014803  p :     0.023061
      px      :     0.003823
      py      :     0.004434
  8 C s       :     3.099154  s :     3.099154
      pz      :     0.739704  p :     2.511142
      px      :     0.812622
      py      :     0.958816
      dz2     :     0.009292  d :     0.119645
      dxz     :     0.031357
      dyz     :     0.009602
      dx2y2   :     0.031809
      dxy     :     0.037585
  9 H s       :     0.834591  s :     0.834591
      pz      :     0.015646  p :     0.024358
      px      :     0.004002
      py      :     0.004710
 10 H s       :     0.843796  s :     0.843796
      pz      :     0.007809  p :     0.023828
      px      :     0.006093
      py      :     0.009927
 11 O s       :     3.798896  s :     3.798896
      pz      :     1.569477  p :     4.039939
      px      :     1.337880
      py      :     1.132582
      dz2     :     0.002287  d :     0.019537
      dxz     :     0.005576
      dyz     :     0.000484
      dx2y2   :     0.006357
      dxy     :     0.004832

SPIN
  0 C s       :    -0.002397  s :    -0.002397
      pz      :    -0.000611  p :     0.037231
      px      :     0.039149
      py      :    -0.001306
      dz2     :     0.000011  d :     0.000978
      dxz     :     0.000349
      dyz     :     0.000003
      dx2y2   :     0.000041
      dxy     :     0.000574
  1 C s       :    -0.002133  s :    -0.002133
      pz      :    -0.000132  p :    -0.001368
      px      :     0.003534
      py      :    -0.004770
      dz2     :    -0.000024  d :     0.000985
      dxz     :     0.000166
      dyz     :    -0.000010
      dx2y2   :     0.000375
      dxy     :     0.000478
  2 O s       :    -0.003118  s :    -0.003118
      pz      :     0.006522  p :     0.087037
      px      :     0.048825
      py      :     0.031689
      dz2     :    -0.000005  d :     0.000051
      dxz     :     0.000009
      dyz     :     0.000020
      dx2y2   :    -0.000040
      dxy     :     0.000066
  3 H s       :     0.016613  s :     0.016613
      pz      :     0.000104  p :     0.000115
      px      :    -0.000035
      py      :     0.000047
  4 H s       :    -0.000353  s :    -0.000353
      pz      :     0.000001  p :     0.000018
      px      :     0.000027
      py      :    -0.000009
  5 C s       :     0.003970  s :     0.003970
      pz      :     0.011583  p :     0.134136
      px      :     0.056122
      py      :     0.066431
      dz2     :    -0.000027  d :     0.000850
      dxz     :     0.000187
      dyz     :    -0.000050
      dx2y2   :     0.000616
      dxy     :     0.000123
  6 H s       :     0.016738  s :     0.016738
      pz      :     0.000141  p :     0.000277
      px      :    -0.000145
      py      :     0.000281
  7 H s       :    -0.001249  s :    -0.001249
      pz      :     0.000010  p :     0.000094
      px      :     0.000095
      py      :    -0.000012
  8 C s       :    -0.013341  s :    -0.013341
      pz      :    -0.025962  p :    -0.066935
      px      :    -0.019368
      py      :    -0.021605
      dz2     :     0.000290  d :     0.017194
      dxz     :    -0.000448
      dyz     :     0.000540
      dx2y2   :     0.006655
      dxy     :     0.010157
  9 H s       :    -0.002417  s :    -0.002417
      pz      :     0.000046  p :     0.000478
      px      :     0.000296
      py      :     0.000136
 10 H s       :    -0.006078  s :    -0.006078
      pz      :    -0.000016  p :     0.000328
      px      :     0.000075
      py      :     0.000269
 11 O s       :     0.015810  s :     0.015810
      pz      :     0.037067  p :     0.766560
      px      :     0.034873
      py      :     0.694620
      dz2     :     0.000083  d :    -0.000072
      dxz     :    -0.000107
      dyz     :    -0.000008
      dx2y2   :    -0.000127
      dxy     :     0.000088


                     *******************************
                     * LOEWDIN POPULATION ANALYSIS *
                     *******************************

-------------------------------------------
LOEWDIN ATOMIC CHARGES AND SPIN POPULATIONS
-------------------------------------------
   0 C :   -0.008613    0.033791
   1 C :    0.119965    0.003353
   2 O :    0.013276    0.076110
   3 H :    0.068874    0.013202
   4 H :    0.050215   -0.000402
   5 C :    0.017069    0.117609
   6 H :    0.077337    0.014624
   7 H :    0.058320   -0.000305
   8 C :    0.198902   -0.004860
   9 H :    0.093802    0.000228
  10 H :    0.085989   -0.001668
  11 O :    0.224865    0.748318

----------------------------------------------------
LOEWDIN REDUCED ORBITAL CHARGES AND SPIN POPULATIONS
----------------------------------------------------
CHARGE
  0 C s       :     2.838607  s :     2.838607
      pz      :     1.089098  p :     3.080781
      px      :     0.961356
      py      :     1.030328
      dz2     :     0.022816  d :     0.089225
      dxz     :     0.011953
      dyz     :     0.012882
      dx2y2   :     0.027699
      dxy     :     0.013875
  1 C s       :     2.847559  s :     2.847559
      pz      :     1.088739  p :     2.900785
      px      :     0.841144
      py      :     0.970902
      dz2     :     0.028018  d :     0.131691
      dxz     :     0.025527
      dyz     :     0.013698
      dx2y2   :     0.029253
      dxy     :     0.035195
  2 O s       :     3.479657  s :     3.479657
      pz      :     1.638688  p :     4.474115
      px      :     1.237780
      py      :     1.597647
      dz2     :     0.004194  d :     0.032952
      dxz     :     0.004311
      dyz     :     0.003019
      dx2y2   :     0.004998
      dxy     :     0.016431
  3 H s       :     0.863179  s :     0.863179
      pz      :     0.023098  p :     0.067947
      px      :     0.029931
      py      :     0.014919
  4 H s       :     0.881709  s :     0.881709
      pz      :     0.044672  p :     0.068076
      px      :     0.011306
      py      :     0.012099
  5 C s       :     2.846731  s :     2.846731
      pz      :     1.084442  p :     3.048064
      px      :     1.005040
      py      :     0.958582
      dz2     :     0.020478  d :     0.088136
      dxz     :     0.013140
      dyz     :     0.010303
      dx2y2   :     0.022983
      dxy     :     0.021232
  6 H s       :     0.853734  s :     0.853734
      pz      :     0.020547  p :     0.068929
      px      :     0.022838
      py      :     0.025543
  7 H s       :     0.873521  s :     0.873521
      pz      :     0.042768  p :     0.068160
      px      :     0.011854
      py      :     0.013538
  8 C s       :     2.864161  s :     2.864161
      pz      :     0.744424  p :     2.686054
      px      :     0.950337
      py      :     0.991292
      dz2     :     0.019919  d :     0.250883
      dxz     :     0.058122
      dyz     :     0.016310
      dx2y2   :     0.071377
      dxy     :     0.085154
  9 H s       :     0.834883  s :     0.834883
      pz      :     0.045333  p :     0.071315
      px      :     0.013081
      py      :     0.012901
 10 H s       :     0.843139  s :     0.843139
      pz      :     0.022916  p :     0.070872
      px      :     0.019597
      py      :     0.028359
 11 O s       :     3.583225  s :     3.583225
      pz      :     1.554863  p :     4.159714
      px      :     1.463226
      py      :     1.141625
      dz2     :     0.004432  d :     0.032196
      dxz     :     0.006711
      dyz     :     0.000576
      dx2y2   :     0.011865
      dxy     :     0.008612

SPIN
  0 C s       :    -0.000039  s :    -0.000039
      pz      :    -0.000284  p :     0.031811
      px      :     0.032659
      py      :    -0.000564
      dz2     :    -0.000017  d :     0.002020
      dxz     :     0.000695
      dyz     :     0.000025
      dx2y2   :    -0.000079
      dxy     :     0.001395
  1 C s       :    -0.000618  s :    -0.000618
      pz      :     0.000831  p :     0.001534
      px      :     0.003994
      py      :    -0.003292
      dz2     :    -0.000047  d :     0.002437
      dxz     :     0.000364
      dyz     :     0.000012
      dx2y2   :     0.001073
      dxy     :     0.001035
  2 O s       :    -0.001234  s :    -0.001234
      pz      :     0.005844  p :     0.077916
      px      :     0.044461
      py      :     0.027611
      dz2     :    -0.000117  d :    -0.000572
      dxz     :    -0.000033
      dyz     :    -0.000002
      dx2y2   :    -0.000173
      dxy     :    -0.000247
  3 H s       :     0.013361  s :     0.013361
      pz      :     0.000078  p :    -0.000159
      px      :    -0.000240
      py      :     0.000003
  4 H s       :    -0.000381  s :    -0.000381
      pz      :     0.000005  p :    -0.000021
      px      :     0.000049
      py      :    -0.000076
  5 C s       :     0.003668  s :     0.003668
      pz      :     0.007505  p :     0.113430
      px      :     0.052108
      py      :     0.053817
      dz2     :    -0.000231  d :     0.000511
      dxz     :     0.000254
      dyz     :    -0.000242
      dx2y2   :     0.000871
      dxy     :    -0.000142
  6 H s       :     0.014000  s :     0.014000
      pz      :     0.000242  p :     0.000624
      px      :    -0.000079
      py      :     0.000461
  7 H s       :    -0.000841  s :    -0.000841
      pz      :     0.000107  p :     0.000537
      px      :     0.000464
      py      :    -0.000034
  8 C s       :    -0.003736  s :    -0.003736
      pz      :    -0.022368  p :    -0.041173
      px      :    -0.013809
      py      :    -0.004996
      dz2     :     0.000896  d :     0.040049
      dxz     :    -0.000211
      dyz     :     0.001123
      dx2y2   :     0.015395
      dxy     :     0.022846
  9 H s       :    -0.002089  s :    -0.002089
      pz      :     0.000374  p :     0.002317
      px      :     0.001065
      py      :     0.000878
 10 H s       :    -0.004054  s :    -0.004054
      pz      :     0.000158  p :     0.002386
      px      :     0.000615
      py      :     0.001613
 11 O s       :     0.010163  s :     0.010163
      pz      :     0.034155  p :     0.738922
      px      :     0.032235
      py      :     0.672533
      dz2     :    -0.000097  d :    -0.000767
      dxz     :    -0.000240
      dyz     :    -0.000024
      dx2y2   :    -0.000114
      dxy     :    -0.000291


                      *****************************
                      * MAYER POPULATION ANALYSIS *
                      *****************************

  NA   - Mulliken gross atomic population
  ZA   - Total nuclear charge
  QA   - Mulliken gross atomic charge
  VA   - Mayer's total valence
  BVA  - Mayer's bonded valence
  FA   - Mayer's free valence

  ATOM       NA         ZA         QA         VA         BVA        FA
  0 C      6.0571     6.0000    -0.0571     4.0940     4.0923     0.0016
  1 C      5.8125     6.0000     0.1875     3.8841     3.8840     0.0001
  2 O      8.2089     8.0000    -0.2089     2.3379     2.3298     0.0081
  3 H      0.8885     1.0000     0.1115     0.9800     0.9797     0.0003
  4 H      0.9073     1.0000     0.0927     0.9794     0.9794     0.0000
  5 C      6.0058     6.0000    -0.0058     3.9220     3.9043     0.0177
  6 H      0.8951     1.0000     0.1049     0.9803     0.9800     0.0003
  7 H      0.9099     1.0000     0.0901     0.9726     0.9726     0.0000
  8 C      5.7299     6.0000     0.2701     4.1083     4.1018     0.0065
  9 H      0.8589     1.0000     0.1411     0.9755     0.9755     0.0000
 10 H      0.8676     1.0000     0.1324     0.9795     0.9795     0.0000
 11 O      7.8584     8.0000     0.1416     2.5947     2.0642     0.5305

  Mayer bond orders larger than 0.100000
B(  0-C ,  1-C ) :   1.0840 B(  0-C ,  5-C ) :   1.0431 B(  0-C ,  6-H ) :   0.9141 
B(  0-C ,  7-H ) :   0.9425 B(  1-C ,  2-O ) :   0.8560 B(  1-C ,  3-H ) :   0.9318 
B(  1-C ,  4-H ) :   0.9512 B(  2-O ,  8-C ) :   1.2791 B(  2-O , 11-O ) :   0.1243 
B(  5-C ,  8-C ) :   0.9425 B(  5-C ,  9-H ) :   0.8953 B(  5-C , 10-H ) :   0.9177 
B(  8-C , 11-O ) :   1.7599 

-------
TIMINGS
-------

Total SCF time: 0 days 0 hours 1 min 36 sec 

Total time                  ....      96.204 sec
Sum of individual times     ....      94.842 sec  ( 98.6%)

Fock matrix formation       ....      92.499 sec  ( 96.1%)
  Split-RI-J                ....       8.400 sec  (  9.1% of F)
  Chain of spheres X        ....      58.717 sec  ( 63.5% of F)
  XC integration            ....      25.141 sec  ( 27.2% of F)
    Basis function eval.    ....       6.120 sec  ( 24.3% of XC)
    Density eval.           ....       8.062 sec  ( 32.1% of XC)
    XC-Functional eval.     ....       1.871 sec  (  7.4% of XC)
    XC-Potential eval.      ....       7.479 sec  ( 29.7% of XC)
Diagonalization             ....       0.139 sec  (  0.1%)
Density matrix formation    ....       0.014 sec  (  0.0%)
Population analysis         ....       0.033 sec  (  0.0%)
Initial guess               ....       0.331 sec  (  0.3%)
Orbital Transformation      ....       0.049 sec  (  0.1%)
Orbital Orthonormalization  ....       0.000 sec  (  0.0%)
DIIS solution               ....       0.230 sec  (  0.2%)
Grid generation             ....       1.546 sec  (  1.6%)

Maximum memory used throughout the entire SCF-calculation: 58.8 MB


-------------------------------------------------------------------------------
                          DFT DISPERSION CORRECTION                            
                                                                               
                              DFTD3 V3.1  Rev 1                                
                          USING Becke-Johnson damping                          
-------------------------------------------------------------------------------
The B3LYP functional is recognized
Active option DFTDOPT                   ...         4   

molecular C6(AA) [au] = 1224.182782 


            DFT-D V3
 parameters
 s6 scaling factor         :     1.0000 
 a1 scaling factor         :     0.3981 
 s8 scaling factor         :     1.9889 
 a2 scaling factor         :     4.4211 
 ad hoc parameters k1-k3   :    16.0000     1.3333    -4.0000 

 Edisp/kcal,au: -9.734970490359  -0.015513661314 
 E6   /kcal   :  -4.684690426 
 E8   /kcal   :  -5.050280065 
 % E8         :  51.877713135 

-------------------------   ----------------
Dispersion correction           -0.015513661
-------------------------   ----------------


-------------------------   --------------------
FINAL SINGLE POINT ENERGY      -305.743645405868
-------------------------   --------------------


                            ***************************************
                            *     ORCA property calculations      *
                            ***************************************

                                    ---------------------
                                    Active property flags
                                    ---------------------
   (+) Dipole Moment


------------------------------------------------------------------------------
                       ORCA ELECTRIC PROPERTIES CALCULATION
------------------------------------------------------------------------------

Dipole Moment Calculation                       ... on
Quadrupole Moment Calculation                   ... off
Polarizability Calculation                      ... off
GBWName                                         ... lactone_kation.gbw
Electron density                                ... lactone_kation.scfp
The origin for moment calculation is the CENTER OF MASS  = (-1.896781,  3.634736 -0.211629)

-------------
DIPOLE MOMENT
-------------
                                X             Y             Z
Electronic contribution:      5.07991      -3.76868      -0.75189
Nuclear contribution   :     -5.62640       4.74413       1.02176
                        -----------------------------------------
Total Dipole Moment    :     -0.54649       0.97544       0.26987
                        -----------------------------------------
Magnitude (a.u.)       :      1.15021
Magnitude (Debye)      :      2.92359



--------------------
Rotational spectrum 
--------------------
 
Rotational constants in cm-1:     0.245574     0.121029     0.086615 
Rotational constants in MHz :  7362.112846  3628.360382  2596.666858 

 Dipole components along the rotational axes: 
x,y,z [a.u.] :     0.807427     0.801325     0.170040 
x,y,z [Debye]:     2.052316     2.036807     0.432207 

 

Timings for individual modules:

Sum of individual times         ...       96.522 sec (=   1.609 min)
GTO integral calculation        ...        0.271 sec (=   0.005 min)   0.3 %
SCF iterations                  ...       96.251 sec (=   1.604 min)  99.7 %
                             ****ORCA TERMINATED NORMALLY****
TOTAL RUN TIME: 0 days 0 hours 1 minutes 36 seconds 937 msec
