
                                 *****************
                                 * O   R   C   A *
                                 *****************

                                            #,                                       
                                            ###                                      
                                            ####                                     
                                            #####                                    
                                            ######                                   
                                           ########,                                 
                                     ,,################,,,,,                         
                               ,,#################################,,                 
                          ,,##########################################,,             
                       ,#########################################, ''#####,          
                    ,#############################################,,   '####,        
                  ,##################################################,,,,####,       
                ,###########''''           ''''###############################       
              ,#####''   ,,,,##########,,,,          '''####'''          '####       
            ,##' ,,,,###########################,,,                        '##       
           ' ,,###''''                  '''############,,,                           
         ,,##''                                '''############,,,,        ,,,,,,###''
      ,#''                                            '''#######################'''  
     '                                                          ''''####''''         
             ,#######,   #######,   ,#######,      ##                                
            ,#'     '#,  ##    ##  ,#'     '#,    #''#        ######   ,####,        
            ##       ##  ##   ,#'  ##            #'  '#       #        #'  '#        
            ##       ##  #######   ##           ,######,      #####,   #    #        
            '#,     ,#'  ##    ##  '#,     ,#' ,#      #,         ##   #,  ,#        
             '#######'   ##     ##  '#######'  #'      '#     #####' # '####'        



                  #######################################################
                  #                        -***-                        #
                  #          Department of theory and spectroscopy      #
                  #    Directorship and core code : Frank Neese         #
                  #        Max Planck Institute fuer Kohlenforschung    #
                  #                Kaiser Wilhelm Platz 1               #
                  #                 D-45470 Muelheim/Ruhr               #
                  #                      Germany                        #
                  #                                                     #
                  #                  All rights reserved                #
                  #                        -***-                        #
                  #######################################################



                         Program Version 5.0.4 -  RELEASE  -

 With contributions from (in alphabetic order):
   Daniel Aravena         : Magnetic Suceptibility
   Michael Atanasov       : Ab Initio Ligand Field Theory (pilot matlab implementation)
   Alexander A. Auer      : GIAO ZORA, VPT2 properties, NMR spectrum
   Ute Becker             : Parallelization
   Giovanni Bistoni       : ED, misc. LED, open-shell LED, HFLD
   Martin Brehm           : Molecular dynamics
   Dmytro Bykov           : SCF Hessian
   Vijay G. Chilkuri      : MRCI spin determinant printing, contributions to CSF-ICE
   Dipayan Datta          : RHF DLPNO-CCSD density
   Achintya Kumar Dutta   : EOM-CC, STEOM-CC
   Dmitry Ganyushin       : Spin-Orbit,Spin-Spin,Magnetic field MRCI
   Miquel Garcia          : C-PCM and meta-GGA Hessian, CC/C-PCM, Gaussian charge scheme
   Yang Guo               : DLPNO-NEVPT2, F12-NEVPT2, CIM, IAO-localization
   Andreas Hansen         : Spin unrestricted coupled pair/coupled cluster methods
   Benjamin Helmich-Paris : MC-RPA, TRAH-SCF, COSX integrals
   Lee Huntington         : MR-EOM, pCC
   Robert Izsak           : Overlap fitted RIJCOSX, COSX-SCS-MP3, EOM
   Marcus Kettner         : VPT2
   Christian Kollmar      : KDIIS, OOCD, Brueckner-CCSD(T), CCSD density, CASPT2, CASPT2-K
   Simone Kossmann        : Meta GGA functionals, TD-DFT gradient, OOMP2, MP2 Hessian
   Martin Krupicka        : Initial AUTO-CI
   Lucas Lang             : DCDCAS
   Marvin Lechner         : AUTO-CI (C++ implementation), FIC-MRCC
   Dagmar Lenk            : GEPOL surface, SMD
   Dimitrios Liakos       : Extrapolation schemes; Compound Job, initial MDCI parallelization
   Dimitrios Manganas     : Further ROCIS development; embedding schemes
   Dimitrios Pantazis     : SARC Basis sets
   Anastasios Papadopoulos: AUTO-CI, single reference methods and gradients
   Taras Petrenko         : DFT Hessian,TD-DFT gradient, ASA, ECA, R-Raman, ABS, FL, XAS/XES, NRVS
   Peter Pinski           : DLPNO-MP2, DLPNO-MP2 Gradient
   Christoph Reimann      : Effective Core Potentials
   Marius Retegan         : Local ZFS, SOC
   Christoph Riplinger    : Optimizer, TS searches, QM/MM, DLPNO-CCSD(T), (RO)-DLPNO pert. Triples
   Tobias Risthaus        : Range-separated hybrids, TD-DFT gradient, RPA, STAB
   Michael Roemelt        : Original ROCIS implementation
   Masaaki Saitow         : Open-shell DLPNO-CCSD energy and density
   Barbara Sandhoefer     : DKH picture change effects
   Avijit Sen             : IP-ROCIS
   Kantharuban Sivalingam : CASSCF convergence, NEVPT2, FIC-MRCI
   Bernardo de Souza      : ESD, SOC TD-DFT
   Georgi Stoychev        : AutoAux, RI-MP2 NMR, DLPNO-MP2 response
   Willem Van den Heuvel  : Paramagnetic NMR
   Boris Wezisla          : Elementary symmetry handling
   Frank Wennmohs         : Technical directorship


 We gratefully acknowledge several colleagues who have allowed us to
 interface, adapt or use parts of their codes:
   Stefan Grimme, W. Hujo, H. Kruse, P. Pracht,  : VdW corrections, initial TS optimization,
                  C. Bannwarth, S. Ehlert          DFT functionals, gCP, sTDA/sTD-DF
   Ed Valeev, F. Pavosevic, A. Kumar             : LibInt (2-el integral package), F12 methods
   Garnet Chan, S. Sharma, J. Yang, R. Olivares  : DMRG
   Ulf Ekstrom                                   : XCFun DFT Library
   Mihaly Kallay                                 : mrcc  (arbitrary order and MRCC methods)
   Jiri Pittner, Ondrej Demel                    : Mk-CCSD
   Frank Weinhold                                : gennbo (NPA and NBO analysis)
   Christopher J. Cramer and Donald G. Truhlar   : smd solvation model
   Lars Goerigk                                  : TD-DFT with DH, B97 family of functionals
   V. Asgeirsson, H. Jonsson                     : NEB implementation
   FAccTs GmbH                                   : IRC, NEB, NEB-TS, DLPNO-Multilevel, CI-OPT
                                                   MM, QMMM, 2- and 3-layer-ONIOM, Crystal-QMMM,
                                                   LR-CPCM, SF, NACMEs, symmetry and pop. for TD-DFT,
                                                   nearIR, NL-DFT gradient (VV10), updates on ESD,
                                                   ML-optimized integration grids
   S Lehtola, MJT Oliveira, MAL Marques          : LibXC Library
   Liviu Ungur et al                             : ANISO software


 Your calculation uses the libint2 library for the computation of 2-el integrals
 For citations please refer to: http://libint.valeyev.net

 Your ORCA version has been built with support for libXC version: 5.1.0
 For citations please refer to: https://tddft.org/programs/libxc/

 This ORCA versions uses:
   CBLAS   interface :  Fast vector & matrix operations
   LAPACKE interface :  Fast linear algebra routines
   Shared memory     :  Shared parallel matrices


Your calculation utilizes the atom-pairwise dispersion correction
based on tight binding partial charges (D4)
Cite in your paper:
E.Caldeweyher, C.Bannwarth, S.Grimme, J.Chem.Phys., (2017), 147, 034112.
E.Caldeweyher, S.Ehlert, A.Hansen, H.Neugebauer, S.Grimme, J.Chem.Phys., (2018), in progress.
   

================================================================================

----- Orbital basis set information -----
Your calculation utilizes the basis: def2-SVP
   F. Weigend and R. Ahlrichs, Phys. Chem. Chem. Phys. 7, 3297 (2005).

----- AuxJ basis set information -----
Your calculation utilizes the auxiliary basis: def2/J
   F. Weigend, Phys. Chem. Chem. Phys. 8, 1057 (2006).

================================================================================
                                        WARNINGS
                       Please study these warnings very carefully!
================================================================================


WARNING: Geometry Optimization
  ===> : Switching off AutoStart
         For restart on a previous wavefunction, please use MOREAD

INFO   : the flag for use of the SHARK integral package has been found!

================================================================================
                                       INPUT FILE
================================================================================
NAME = educts_optfreq_8.inp
|  1> !B3LYP DEF2-SVP OPT FREQ D4 SOSCF
|  2> 
|  3> %geom 
|  4> convergence tight
|  5> maxiter 1000
|  6> end
|  7> 
|  8> * xyz 1 1
|  9>    C       -6.09482        0.65444        1.91488
| 10>    C       -6.58291        1.14340        0.67928
| 11>    C       -6.43936        0.40003       -0.46954
| 12>    C       -5.81127       -0.86138       -0.41969
| 13>    C       -5.29103       -1.35183        0.79010
| 14>    C       -5.43085       -0.61150        1.93646
| 15>    C       -6.26107        1.42562        3.16364
| 16>    H       -5.29135        1.68395        3.59469
| 17>    H       -6.73884        0.82157        3.91751
| 18>    H       -6.81767        2.33033        3.03463
| 19>    H       -7.06923        2.11075        0.65723
| 20>    H       -6.80990        0.77716       -1.40792
| 21>    H       -5.74441       -1.48101       -1.31093
| 22>    H       -4.79833       -2.31488        0.80431
| 23>    H       -5.04948       -0.97588        2.87643
| 24>    N       -9.16178       -1.39965      -13.84865
| 25>    O       -8.48959       -1.06640      -12.74168
| 26>    O       -8.12570       -0.31609      -14.71866
| 27> **                         ****END OF INPUT****
================================================================================

                       *****************************
                       * Geometry Optimization Run *
                       *****************************

Geometry optimization settings:
Update method            Update   .... BFGS
Choice of coordinates    CoordSys .... Z-matrix Internals
Initial Hessian          InHess   .... Almoef's Model

Convergence Tolerances:
Energy Change            TolE     ....  1.0000e-06 Eh
Max. Gradient            TolMAXG  ....  1.0000e-04 Eh/bohr
RMS Gradient             TolRMSG  ....  3.0000e-05 Eh/bohr
Max. Displacement        TolMAXD  ....  1.0000e-03 bohr
RMS Displacement         TolRMSD  ....  6.0000e-04 bohr
Strict Convergence                ....  False
------------------------------------------------------------------------------
                        ORCA OPTIMIZATION COORDINATE SETUP
------------------------------------------------------------------------------

The optimization will be done in new redundant internal coordinates
Making redundant internal coordinates   ...  (new redundants) done
Evaluating the initial hessian          ...  (Almloef) done
Evaluating the coordinates              ...  done
Calculating the B-matrix                .... done
Calculating the G-matrix                .... done
Diagonalizing the G-matrix              .... done
Small eigenvalue found = 2.492e-02
The first mode is                       ....   57
The number of degrees of freedom        ....   48

    -----------------------------------------------------------------
                    Redundant Internal Coordinates


    -----------------------------------------------------------------
         Definition                    Initial Value    Approx d2E/dq
    -----------------------------------------------------------------
      1. B(C   1,C   0)                  1.4156         0.568644   
      2. B(C   2,C   1)                  1.3759         0.658107   
      3. B(C   3,C   2)                  1.4100         0.580509   
      4. B(C   4,C   3)                  1.4053         0.590713   
      5. B(C   5,C   4)                  1.3718         0.668048   
      6. B(C   5,C   0)                  1.4297         0.540088   
      7. B(C   6,C   0)                  1.4771         0.453744   
      8. B(H   7,C   6)                  1.0922         0.357205   
      9. B(H   8,C   6)                  1.0777         0.376730   
     10. B(H   9,C   6)                  1.0700         0.387522   
     11. B(H  10,C   1)                  1.0829         0.369561   
     12. B(H  11,C   2)                  1.0771         0.377615   
     13. B(H  12,C   3)                  1.0875         0.363383   
     14. B(H  13,C   4)                  1.0819         0.371031   
     15. B(H  14,C   5)                  1.0778         0.376538   
     16. B(O  16,H  12)                 11.7631         0.000000   
     17. B(O  16,H  11)                 11.6049         0.000000   
     18. B(O  16,C   3)                 12.6114         0.000000   
     19. B(O  16,C   2)                 12.5283         0.000000   
     20. B(O  16,N  15)                  1.3373         0.608342   
     21. B(O  17,N  15)                  1.7333         0.141981   
     22. A(C   1,C   0,C   6)          121.2497         0.404294   
     23. A(C   1,C   0,C   5)          118.6298         0.416974   
     24. A(C   5,C   0,C   6)          120.1205         0.400639   
     25. A(C   0,C   1,H  10)          118.7598         0.349318   
     26. A(C   2,C   1,H  10)          120.8290         0.358071   
     27. A(C   0,C   1,C   2)          120.4112         0.431978   
     28. A(C   3,C   2,O  16)           90.1613         0.089031   
     29. A(C   1,C   2,O  16)          149.7772         0.089032   
     30. A(H  11,C   2,O  16)           29.6885         0.089025   
     31. A(C   3,C   2,H  11)          119.8208         0.351817   
     32. A(C   1,C   2,H  11)          120.1582         0.359387   
     33. A(C   1,C   2,C   3)          120.0204         0.433585   
     34. A(C   2,C   3,O  16)           83.4194         0.089029   
     35. A(C   2,C   3,C   4)          120.5021         0.425261   
     36. A(C   4,C   3,O  16)          156.0767         0.089029   
     37. A(C   4,C   3,H  12)          118.9405         0.350571   
     38. A(C   2,C   3,H  12)          120.5390         0.349541   
     39. A(H  12,C   3,O  16)           37.1640         0.089023   
     40. A(C   5,C   4,H  13)          121.0550         0.359228   
     41. A(C   3,C   4,H  13)          119.3792         0.351807   
     42. A(C   3,C   4,C   5)          119.5603         0.436122   
     43. A(C   0,C   5,C   4)          120.8376         0.429154   
     44. A(C   4,C   5,H  14)          120.6813         0.360131   
     45. A(C   0,C   5,H  14)          118.4790         0.347391   
     46. A(H   8,C   6,H   9)          109.1253         0.296328   
     47. A(H   7,C   6,H   9)          108.0259         0.293846   
     48. A(C   0,C   6,H   9)          113.4566         0.339024   
     49. A(H   7,C   6,H   8)          104.4837         0.292540   
     50. A(C   0,C   6,H   8)          110.4047         0.337430   
     51. A(C   0,C   6,H   7)          110.9293         0.334456   
     52. A(O  16,N  15,O  17)           87.6644         0.327038   
     53. A(C   2,O  16,N  15)          157.2627         0.089031   
     54. A(C   2,O  16,C   3)            6.4193         0.089000   
     55. A(C   3,O  16,N  15)          156.8669         0.089029   
     56. D(H  10,C   1,C   0,C   6)      1.1642         0.022177   
     57. D(H  10,C   1,C   0,C   5)   -178.8338         0.022177   
     58. D(C   2,C   1,C   0,C   5)      1.1452         0.022177   
     59. D(C   2,C   1,C   0,C   6)   -178.8567         0.022177   
     60. D(C   3,C   2,C   1,C   0)      0.4446         0.032846   
     61. D(O  16,C   2,C   1,H  10)     -2.8669         0.032846   
     62. D(C   3,C   2,C   1,H  10)   -179.5769         0.032846   
     63. D(O  16,C   2,C   1,C   0)    177.1545         0.032846   
     64. D(H  11,C   2,C   1,H  10)      0.1427         0.032846   
     65. D(H  11,C   2,C   1,C   0)   -179.8359         0.032846   
     66. D(H  12,C   3,C   2,C   1)    176.4498         0.027013   
     67. D(C   4,C   3,C   2,O  16)    179.6834         0.027013   
     68. D(H  12,C   3,C   2,H  11)     -3.2708         0.027013   
     69. D(C   4,C   3,C   2,C   1)     -1.9720         0.027013   
     70. D(C   4,C   3,C   2,H  11)    178.3075         0.027013   
     71. D(O  16,C   3,C   2,H  11)     -1.3759         0.027013   
     72. D(O  16,C   3,C   2,C   1)    178.3446         0.027013   
     73. D(H  12,C   3,C   2,O  16)     -1.8948         0.027013   
     74. D(H  13,C   4,C   3,O  16)      0.2243         0.026084   
     75. D(H  13,C   4,C   3,H  12)      2.5531         0.026084   
     76. D(H  13,C   4,C   3,C   2)   -179.0002         0.026084   
     77. D(C   5,C   4,C   3,O  16)   -178.9257         0.026084   
     78. D(C   5,C   4,C   3,H  12)   -176.5969         0.026084   
     79. D(C   5,C   4,C   3,C   2)      1.8498         0.026084   
     80. D(C   0,C   5,C   4,H  13)   -179.3571         0.031198   
     81. D(C   0,C   5,C   4,C   3)     -0.2218         0.031198   
     82. D(H  14,C   5,C   0,C   6)     -0.7395         0.019931   
     83. D(H  14,C   5,C   0,C   1)    179.2586         0.019931   
     84. D(C   4,C   5,C   0,C   6)    178.7372         0.019931   
     85. D(H  14,C   5,C   4,C   3)    179.2434         0.031198   
     86. D(C   4,C   5,C   0,C   1)     -1.2648         0.019931   
     87. D(H  14,C   5,C   4,H  13)      0.1080         0.031198   
     88. D(H   9,C   6,C   0,C   5)   -176.9025         0.015181   
     89. D(H   9,C   6,C   0,C   1)      3.0995         0.015181   
     90. D(H   8,C   6,C   0,C   5)    -54.0506         0.015181   
     91. D(H   8,C   6,C   0,C   1)    125.9514         0.015181   
     92. D(H   7,C   6,C   0,C   5)     61.2879         0.015181   
     93. D(H   7,C   6,C   0,C   1)   -118.7101         0.015181   
     94. D(C   3,O  16,N  15,O  17)    174.5678         0.038193   
     95. D(C   2,O  16,N  15,O  17)    158.0773         0.038193   
     96. D(C   2,O  16,C   3,H  12)    177.2980         0.001500   
     97. D(N  15,O  16,C   3,H  12)     76.1961         0.001500   
     98. D(N  15,O  16,C   3,C   4)     79.5708         0.001500   
     99. D(N  15,O  16,C   3,C   2)   -101.1018         0.001500   
    100. D(C   3,O  16,C   2,H  11)    177.5893         0.001500   
    101. D(C   2,O  16,C   3,C   4)   -179.3274         0.001500   
    102. D(C   3,O  16,C   2,C   1)   -177.1517         0.001500   
    103. D(N  15,O  16,C   2,H  11)    -88.3097         0.001500   
    104. D(N  15,O  16,C   2,C   3)     94.1010         0.001500   
    105. D(N  15,O  16,C   2,C   1)    -83.0508         0.001500   
    -----------------------------------------------------------------

Number of atoms                         .... 18
Number of degrees of freedom            .... 105

         *************************************************************
         *                GEOMETRY OPTIMIZATION CYCLE   1            *
         *************************************************************
---------------------------------
CARTESIAN COORDINATES (ANGSTROEM)
---------------------------------
  C     -6.094820    0.654440    1.914880
  C     -6.582910    1.143400    0.679280
  C     -6.439360    0.400030   -0.469540
  C     -5.811270   -0.861380   -0.419690
  C     -5.291030   -1.351830    0.790100
  C     -5.430850   -0.611500    1.936460
  C     -6.261070    1.425620    3.163640
  H     -5.291350    1.683950    3.594690
  H     -6.738840    0.821570    3.917510
  H     -6.817670    2.330330    3.034630
  H     -7.069230    2.110750    0.657230
  H     -6.809900    0.777160   -1.407920
  H     -5.744410   -1.481010   -1.310930
  H     -4.798330   -2.314880    0.804310
  H     -5.049480   -0.975880    2.876430
  N     -9.161780   -1.399650  -13.848650
  O     -8.489590   -1.066400  -12.741680
  O     -8.125700   -0.316090  -14.718660

----------------------------
CARTESIAN COORDINATES (A.U.)
----------------------------
  NO LB      ZA    FRAG     MASS         X           Y           Z
   0 C     6.0000    0    12.011  -11.517541    1.236712    3.618599
   1 C     6.0000    0    12.011  -12.439897    2.160713    1.283653
   2 C     6.0000    0    12.011  -12.168627    0.755947   -0.887302
   3 C     6.0000    0    12.011  -10.981709   -1.627772   -0.793099
   4 C     6.0000    0    12.011   -9.998598   -2.554588    1.493073
   5 C     6.0000    0    12.011  -10.262819   -1.155568    3.659379
   6 C     6.0000    0    12.011  -11.831708    2.694031    5.978413
   7 H     1.0000    0     1.008   -9.999202    3.182204    6.792980
   8 H     1.0000    0     1.008  -12.734562    1.552542    7.403021
   9 H     1.0000    0     1.008  -12.883529    4.403686    5.734620
  10 H     1.0000    0     1.008  -13.358909    3.988739    1.241985
  11 H     1.0000    0     1.008  -12.868846    1.468620   -2.660583
  12 H     1.0000    0     1.008  -10.855362   -2.798703   -2.477299
  13 H     1.0000    0     1.008   -9.067530   -4.374489    1.519926
  14 H     1.0000    0     1.008   -9.542134   -1.844146    5.435665
  15 N     7.0000    0    14.007  -17.313255   -2.644955  -26.170156
  16 O     8.0000    0    15.999  -16.043000   -2.015204  -24.078286
  17 O     8.0000    0    15.999  -15.355348   -0.597324  -27.814236

--------------------------------
INTERNAL COORDINATES (ANGSTROEM)
--------------------------------
 C      0   0   0     0.000000000000     0.00000000     0.00000000
 C      1   0   0     1.415634518405     0.00000000     0.00000000
 C      2   1   0     1.375860803933   120.41120088     0.00000000
 C      3   2   1     1.410013212243   120.02036297     0.44456075
 C      4   3   2     1.405269619753   120.50210968   358.02804576
 C      5   4   3     1.371779643711   119.56029786     1.84981257
 C      1   2   3     1.477077923638   121.24969691   181.14325603
 H      7   1   2     1.092197495785   110.92925849   241.28993070
 H      7   1   2     1.077710792513   110.40467746   125.95143755
 H      7   1   2     1.070022113884   113.45657011     3.09953251
 H      2   1   3     1.082940149500   118.75979466   180.02097900
 H      3   2   1     1.077071934877   120.15821592   180.16413626
 H      4   3   2     1.087529463555   120.53896016   176.44976426
 H      5   4   3     1.081859749043   119.37915100   180.99976215
 H      6   5   4     1.077849461752   120.68129786   179.24335277
 N     12   3   2    12.846851919572   147.92373745   187.40176816
 O     16  12   3     1.337264947383    20.63147805   274.24999063
 O     16  12   3     1.733344005124   105.70637449   244.36643929

---------------------------
INTERNAL COORDINATES (A.U.)
---------------------------
 C      0   0   0     0.000000000000     0.00000000     0.00000000
 C      1   0   0     2.675161545511     0.00000000     0.00000000
 C      2   1   0     2.600000117831   120.41120088     0.00000000
 C      3   2   1     2.664538816350   120.02036297     0.44456075
 C      4   3   2     2.655574725652   120.50210968   358.02804576
 C      5   4   3     2.592287842702   119.56029786     1.84981257
 C      1   2   3     2.791272754138   121.24969691   181.14325603
 H      7   1   2     2.063954151189   110.92925849   241.28993070
 H      7   1   2     2.036578249422   110.40467746   125.95143755
 H      7   1   2     2.022048752480   113.45657011     3.09953251
 H      2   1   3     2.046460301984   118.75979466   180.02097900
 H      3   2   1     2.035370983450   120.15821592   180.16413626
 H      4   3   2     2.055132848689   120.53896016   176.44976426
 H      5   4   3     2.044418641005   119.37915100   180.99976215
 H      6   5   4     2.036840296307   120.68129786   179.24335277
 N     12   3   2    24.277031811031   147.92373745   187.40176816
 O     16  12   3     2.527064519047    20.63147805   274.24999063
 O     16  12   3     3.275545465559   105.70637449   244.36643929

---------------------
BASIS SET INFORMATION
---------------------
There are 4 groups of distinct atoms

 Group   1 Type C   : 7s4p1d contracted to 3s2p1d pattern {511/31/1}
 Group   2 Type H   : 4s1p contracted to 2s1p pattern {31/1}
 Group   3 Type N   : 7s4p1d contracted to 3s2p1d pattern {511/31/1}
 Group   4 Type O   : 7s4p1d contracted to 3s2p1d pattern {511/31/1}

Atom   0C    basis set group =>   1
Atom   1C    basis set group =>   1
Atom   2C    basis set group =>   1
Atom   3C    basis set group =>   1
Atom   4C    basis set group =>   1
Atom   5C    basis set group =>   1
Atom   6C    basis set group =>   1
Atom   7H    basis set group =>   2
Atom   8H    basis set group =>   2
Atom   9H    basis set group =>   2
Atom  10H    basis set group =>   2
Atom  11H    basis set group =>   2
Atom  12H    basis set group =>   2
Atom  13H    basis set group =>   2
Atom  14H    basis set group =>   2
Atom  15N    basis set group =>   3
Atom  16O    basis set group =>   4
Atom  17O    basis set group =>   4
---------------------------------
AUXILIARY/J BASIS SET INFORMATION
---------------------------------
There are 4 groups of distinct atoms

 Group   1 Type C   : 12s5p4d2f1g contracted to 6s4p3d1f1g pattern {711111/2111/211/2/1}
 Group   2 Type H   : 5s2p1d contracted to 3s1p1d pattern {311/2/1}
 Group   3 Type N   : 12s5p4d2f1g contracted to 6s4p3d1f1g pattern {711111/2111/211/2/1}
 Group   4 Type O   : 12s5p4d2f1g contracted to 6s4p3d1f1g pattern {711111/2111/211/2/1}

Atom   0C    basis set group =>   1
Atom   1C    basis set group =>   1
Atom   2C    basis set group =>   1
Atom   3C    basis set group =>   1
Atom   4C    basis set group =>   1
Atom   5C    basis set group =>   1
Atom   6C    basis set group =>   1
Atom   7H    basis set group =>   2
Atom   8H    basis set group =>   2
Atom   9H    basis set group =>   2
Atom  10H    basis set group =>   2
Atom  11H    basis set group =>   2
Atom  12H    basis set group =>   2
Atom  13H    basis set group =>   2
Atom  14H    basis set group =>   2
Atom  15N    basis set group =>   3
Atom  16O    basis set group =>   4
Atom  17O    basis set group =>   4
------------------------------------------------------------------------------
                           ORCA GTO INTEGRAL CALCULATION
                           -- RI-GTO INTEGRALS CHOSEN --
------------------------------------------------------------------------------
------------------------------------------------------------------------------
                   ___                                                        
                  /   \      - P O W E R E D   B Y -                         
                 /     \                                                     
                 |  |  |   _    _      __       _____    __    __             
                 |  |  |  | |  | |    /  \     |  _  \  |  |  /  |          
                  \  \/   | |  | |   /    \    | | | |  |  | /  /          
                 / \  \   | |__| |  /  /\  \   | |_| |  |  |/  /          
                |  |  |   |  __  | /  /__\  \  |    /   |      \           
                |  |  |   | |  | | |   __   |  |    \   |  |\   \          
                \     /   | |  | | |  |  |  |  | |\  \  |  | \   \       
                 \___/    |_|  |_| |__|  |__|  |_| \__\ |__|  \__/        
                                                                              
                      - O R C A' S   B I G   F R I E N D -                    
                                      &                                       
                       - I N T E G R A L  F E E D E R -                       
                                                                              
 v1 FN, 2020, v2 2021                                                         
------------------------------------------------------------------------------


Reading SHARK input file educts_optfreq_8.SHARKINP.tmp ... ok
----------------------
SHARK INTEGRAL PACKAGE
----------------------

Number of atoms                             ...     18
Number of basis functions                   ...    180
Number of shells                            ...     84
Maximum angular momentum                    ...      2
Integral batch strategy                     ... SHARK/LIBINT Hybrid
RI-J (if used) integral strategy            ... SPLIT-RIJ (Revised 2003 algorithm where possible)
Printlevel                                  ...      1
Contraction scheme used                     ... SEGMENTED contraction
Coulomb Range Separation                    ... NOT USED
Exchange Range Separation                   ... NOT USED
Finite Nucleus Model                        ... NOT USED
Auxiliary Coulomb fitting basis             ... AVAILABLE
   # of basis functions in Aux-J            ...    578
   # of shells in Aux-J                     ...    190
   Maximum angular momentum in Aux-J        ...      4
Auxiliary J/K fitting basis                 ... NOT available
Auxiliary Correlation fitting basis         ... NOT available
Auxiliary 'external' fitting basis          ... NOT available
Integral threshold                          ...     2.500000e-11
Primitive cut-off                           ...     2.500000e-12
Primitive pair pre-selection threshold      ...     2.500000e-12

Calculating pre-screening integrals         ... done (  0.2 sec) Dimension = 84
Organizing shell pair data                  ... done (  0.1 sec)
Shell pair information
Total number of shell pairs                 ...      3570
Shell pairs after pre-screening             ...      2301
Total number of primitive shell pairs       ...     13034
Primitive shell pairs kept                  ...      6346
          la=0 lb=0:    720 shell pairs
          la=1 lb=0:    837 shell pairs
          la=1 lb=1:    262 shell pairs
          la=2 lb=0:    280 shell pairs
          la=2 lb=1:    168 shell pairs
          la=2 lb=2:     34 shell pairs

Calculating one electron integrals          ... done (  0.1 sec)
Calculating RI/J V-Matrix + Cholesky decomp.... done (  0.1 sec)
Calculating Nuclear repulsion               ... done (  0.0 sec) ENN=    364.729442710376 Eh

SHARK setup successfully completed in   0.9 seconds

Maximum memory used throughout the entire GTOINT-calculation: 19.3 MB
-------------------------------------------------------------------------------
                                 ORCA SCF
-------------------------------------------------------------------------------

------------
SCF SETTINGS
------------
Hamiltonian:
 Density Functional     Method          .... DFT(GTOs)
 Exchange Functional    Exchange        .... B88
   X-Alpha parameter    XAlpha          ....  0.666667
   Becke's b parameter  XBeta           ....  0.004200
 Correlation Functional Correlation     .... LYP
 LDA part of GGA corr.  LDAOpt          .... VWN-5
 Gradients option       PostSCFGGA      .... off
 Hybrid DFT is turned on
   Fraction HF Exchange ScalHFX         ....  0.200000
   Scaling of DF-GGA-X  ScalDFX         ....  0.720000
   Scaling of DF-GGA-C  ScalDFC         ....  0.810000
   Scaling of DF-LDA-C  ScalLDAC        ....  1.000000
   Perturbative correction              ....  0.000000
   Density functional embedding theory  .... OFF
   NL short-range parameter             ....  4.800000
 RI-approximation to the Coulomb term is turned on
   Number of AuxJ basis functions       .... 578
   RIJ-COSX (HFX calculated with COS-X)).... on


General Settings:
 Integral files         IntName         .... educts_optfreq_8
 Hartree-Fock type      HFTyp           .... RHF
 Total Charge           Charge          ....    1
 Multiplicity           Mult            ....    1
 Number of Electrons    NEL             ....   72
 Basis Dimension        Dim             ....  180
 Nuclear Repulsion      ENuc            ....    364.7294427104 Eh

Convergence Acceleration:
 DIIS                   CNVDIIS         .... on
   Start iteration      DIISMaxIt       ....    12
   Startup error        DIISStart       ....  0.200000
   # of expansion vecs  DIISMaxEq       ....     5
   Bias factor          DIISBfac        ....   1.050
   Max. coefficient     DIISMaxC        ....  10.000
 Trust-Rad. Augm. Hess. CNVTRAH         .... auto
   Auto Start mean grad. ratio tolernc. ....  1.125000
   Auto Start start iteration           ....    20
   Auto Start num. interpolation iter.  ....    10
   Max. Number of Micro iterations      ....    16
   Max. Number of Macro iterations      .... Maxiter - #DIIS iter
   Number of Davidson start vectors     ....     2
   Converg. threshold I  (grad. norm)   ....   1.000e-05
   Converg. threshold II (energy diff.) ....   1.000e-08
   Grad. Scal. Fac. for Micro threshold ....   0.100
   Minimum threshold for Micro iter.    ....   0.010
   NR start threshold (gradient norm)   ....   0.001
   Initial trust radius                 ....   0.400
   Minimum AH scaling param. (alpha)    ....   1.000
   Maximum AH scaling param. (alpha)    .... 1000.000
   Orbital update algorithm             .... Taylor
   White noise on init. David. guess    .... on
   Maximum white noise                  ....   0.010
   Quad. conv. algorithm                .... NR
 SOSCF                  CNVSOSCF        .... on
   Start iteration      SOSCFMaxIt      ....   150
   Startup grad/error   SOSCFStart      ....  0.003300
 Level Shifting         CNVShift        .... on
   Level shift para.    LevelShift      ....    0.2500
   Turn off err/grad.   ShiftErr        ....    0.0010
 Zerner damping         CNVZerner       .... off
 Static damping         CNVDamp         .... on
   Fraction old density DampFac         ....    0.7000
   Max. Damping (<1)    DampMax         ....    0.9800
   Min. Damping (>=0)   DampMin         ....    0.0000
   Turn off err/grad.   DampErr         ....    0.1000
 Fernandez-Rico         CNVRico         .... off

SCF Procedure:
 Maximum # iterations   MaxIter         ....   125
 SCF integral mode      SCFMode         .... Direct
   Integral package                     .... SHARK and LIBINT hybrid scheme
 Reset frequency        DirectResetFreq ....    20
 Integral Threshold     Thresh          ....  2.500e-11 Eh
 Primitive CutOff       TCut            ....  2.500e-12 Eh

Convergence Tolerance:
 Convergence Check Mode ConvCheckMode   .... Total+1el-Energy
 Convergence forced     ConvForced      .... 0
 Energy Change          TolE            ....  1.000e-08 Eh
 1-El. energy change                    ....  1.000e-05 Eh
 Orbital Gradient       TolG            ....  1.000e-05
 Orbital Rotation angle TolX            ....  1.000e-05
 DIIS Error             TolErr          ....  5.000e-07


Diagonalization of the overlap matrix:
Smallest eigenvalue                        ... 3.074e-04
Time for diagonalization                   ...    0.011 sec
Threshold for overlap eigenvalues          ... 1.000e-08
Number of eigenvalues below threshold      ... 0
Time for construction of square roots      ...    0.026 sec
Total time needed                          ...    0.038 sec

Time for model grid setup =    0.989 sec

------------------------------
INITIAL GUESS: MODEL POTENTIAL
------------------------------
Loading Hartree-Fock densities                     ... done
Calculating cut-offs                               ... done
Initializing the effective Hamiltonian             ... done
Setting up the integral package (SHARK)            ... done
Starting the Coulomb interaction                   ... done (   1.0 sec)
Reading the grid                                   ... done
Mapping shells                                     ... done
Starting the XC term evaluation                    ... done (   1.3 sec)
  promolecular density results
     # of electrons  =     72.999018950
     EX              =    -61.062313712
     EC              =     -2.451476930
     EX+EC           =    -63.513790641
Transforming the Hamiltonian                       ... done (   0.0 sec)
Diagonalizing the Hamiltonian                      ... done (   0.0 sec)
Back transforming the eigenvectors                 ... done (   0.0 sec)
Now organizing SCF variables                       ... done
                      ------------------
                      INITIAL GUESS DONE (   3.3 sec)
                      ------------------
-------------------
DFT GRID GENERATION
-------------------

General Integration Accuracy     IntAcc      ... 4.388
Radial Grid Type                 RadialGrid  ... OptM3 with GC (2021)
Angular Grid (max. ang.)         AngularGrid ... 4 (Lebedev-302)
Angular grid pruning method      GridPruning ... 4 (adaptive)
Weight generation scheme         WeightScheme... Becke
Basis function cutoff            BFCut       ... 1.0000e-11
Integration weight cutoff        WCut        ... 1.0000e-14
Angular grids for H and He will be reduced by one unit
Partially contracted basis set               ... off
Rotationally invariant grid construction     ... off

Total number of grid points                  ...    86338
Total number of batches                      ...     1360
Average number of points per batch           ...       63
Average number of grid points per atom       ...     4797
Time for grid setup =    3.896 sec

--------------------
COSX GRID GENERATION
--------------------

GRIDX 1
-------
General Integration Accuracy     IntAcc      ... 3.816
Radial Grid Type                 RadialGrid  ... OptM3 with GC (2021)
Angular Grid (max. ang.)         AngularGrid ... 1 (Lebedev-50)
Angular grid pruning method      GridPruning ... 4 (adaptive)
Weight generation scheme         WeightScheme... Becke
Basis function cutoff            BFCut       ... 1.0000e-11
Integration weight cutoff        WCut        ... 1.0000e-14
Angular grids for H and He will be reduced by one unit
Partially contracted basis set               ... on
Rotationally invariant grid construction     ... off

Total number of grid points                  ...    11007
Total number of batches                      ...      179
Average number of points per batch           ...       61
Average number of grid points per atom       ...      612
UseSFitting                                  ... on

GRIDX 2
-------
General Integration Accuracy     IntAcc      ... 4.020
Radial Grid Type                 RadialGrid  ... OptM3 with GC (2021)
Angular Grid (max. ang.)         AngularGrid ... 2 (Lebedev-110)
Angular grid pruning method      GridPruning ... 4 (adaptive)
Weight generation scheme         WeightScheme... Becke
Basis function cutoff            BFCut       ... 1.0000e-11
Integration weight cutoff        WCut        ... 1.0000e-14
Angular grids for H and He will be reduced by one unit
Partially contracted basis set               ... on
Rotationally invariant grid construction     ... off

Total number of grid points                  ...    24376
Total number of batches                      ...      390
Average number of points per batch           ...       62
Average number of grid points per atom       ...     1354
UseSFitting                                  ... on

GRIDX 3
-------
General Integration Accuracy     IntAcc      ... 4.338
Radial Grid Type                 RadialGrid  ... OptM3 with GC (2021)
Angular Grid (max. ang.)         AngularGrid ... 3 (Lebedev-194)
Angular grid pruning method      GridPruning ... 4 (adaptive)
Weight generation scheme         WeightScheme... Becke
Basis function cutoff            BFCut       ... 1.0000e-11
Integration weight cutoff        WCut        ... 1.0000e-14
Angular grids for H and He will be reduced by one unit
Partially contracted basis set               ... on
Rotationally invariant grid construction     ... off

Total number of grid points                  ...    53796
Total number of batches                      ...      849
Average number of points per batch           ...       63
Average number of grid points per atom       ...     2989
UseSFitting                                  ... on

Time for X-Grid setup             =    5.435 sec

--------------
SCF ITERATIONS
--------------
ITER       Energy         Delta-E        Max-DP      RMS-DP      [F,P]     Damp
               ***  Starting incremental Fock matrix formation  ***
  0   -475.0737511166   0.000000000000 0.25549662  0.00455238  0.1725117 0.7000
  1   -475.2382132481  -0.164462131484 0.05801696  0.00166834  0.0889185 0.7000
                               ***Turning on DIIS***
  2   -475.3616012943  -0.123388046240 0.14396991  0.00360792  0.0333272 0.0000
  3   -475.3261166438   0.035484650506 0.03824896  0.00075806  0.0918322 0.0000
  4   -475.3512966468  -0.025180002936 0.03670100  0.00061920  0.0644062 0.0000
  5   -475.3646368426  -0.013340195865 0.67080554  0.00835074  0.0503955 0.0000
  6   -474.7153024885   0.649334354165 0.00641301  0.00010837  0.4186408 0.7000
  7   -474.7307559372  -0.015453448729 0.00660646  0.00013562  0.4089944 0.7000
  8   -474.7375463688  -0.006790431621 0.00724426  0.00014630  0.4037113 0.7000
  9   -474.7496720856  -0.012125716780 0.01469279  0.00025917  0.3945179 0.7000
 10   -474.7737064205  -0.024034334925 0.26763012  0.00571361  0.3700609 0.7000
 11   -474.9897708354  -0.216064414911 0.26058322  0.00746075  0.0882338 0.0000
 12   -475.1420863049  -0.152315469501 0.01791358  0.00044898  0.2978481 0.7000
 13   -475.1838851806  -0.041798875716 0.02129469  0.00049860  0.2669960 0.7000
 14   -475.2262565994  -0.042371418779 0.02072890  0.00046144  0.2307024 0.7000
 15   -475.2616152326  -0.035358633163 0.20904743  0.00266289  0.1961005 0.7000
 16   -475.4092757351  -0.147660502503 0.08988961  0.00192911  0.1288225 0.7000
 17   -475.4049582082   0.004317526836 0.05386368  0.00139414  0.1517114 0.7000
 18   -475.3430096944   0.061948513830 0.03722068  0.00100715  0.1442227 0.7000
 19   -475.2736782333   0.069331461098 0.02518965  0.00072769  0.1367083 0.7000
               *** Restarting incremental Fock matrix formation ***
                                   *** Resetting DIIS ***

 WARNING: the maximum gradient error descreased on average only by a factor   1.0
          during the last 20 iterations

                      *** Initiating the TRAH-SCF procedure ***


TRAH GRIDX
----------

General Integration Accuracy     IntAcc      ... 3.067
Radial Grid Type                 RadialGrid  ... OptM3 with GC (2021)
Angular Grid (max. ang.)         AngularGrid ... 1 (Lebedev-50)
Angular grid pruning method      GridPruning ... 4 (adaptive)
Weight generation scheme         WeightScheme... Becke
Basis function cutoff            BFCut       ... 1.0000e-11
Integration weight cutoff        WCut        ... 1.0000e-14
Angular grids for H and He will be reduced by one unit
Partially contracted basis set               ... on
Rotationally invariant grid construction     ... off

Total number of grid points                  ...     5821
Total number of batches                      ...      102
Average number of points per batch           ...       57
Average number of grid points per atom       ...      323


TRAH GRID
---------

General Integration Accuracy     IntAcc      ... 3.467
Radial Grid Type                 RadialGrid  ... OptM3 with GC (2021)
Angular Grid (max. ang.)         AngularGrid ... 1 (Lebedev-50)
Angular grid pruning method      GridPruning ... 4 (adaptive)
Weight generation scheme         WeightScheme... Becke
Basis function cutoff            BFCut       ... 1.0000e-11
Integration weight cutoff        WCut        ... 1.0000e-14
Angular grids for H and He will be reduced by one unit
Partially contracted basis set               ... off
Rotationally invariant grid construction     ... off

Total number of grid points                  ...    12717
Total number of batches                      ...      207
Average number of points per batch           ...       61
Average number of grid points per atom       ...      707

 --------------------------------------------------------------------------------------------
   Iter.        energy            ||Error||_2        Shift      TRadius  Mac/Mic        Rej.
 --------------------------------------------------------------------------------------------
WARNING: 112 diagonal Hessian elements are negative!
    0       -475.035972496372     1.256483e+00                     0.400 (TRAH MAcro)   No
WARNING : negative HOMO - LUMO gap : -0.773472
    0     dE    -7.537073e-02     6.001655e-01    -1.4866e-01      0.118 (TRAH MIcro)
    0     dE    -8.883858e-02     3.901390e-01    -1.7306e-01      0.163 (TRAH MIcro)
    0     dE    -1.680352e-01     1.938063e+00    -1.4075e+00      0.352 (TRAH MIcro)
    0     dE    -1.858270e-01     2.064378e-01    -3.0638e+00      0.282 (TRAH MIcro)
    0     dE    -6.691267e-02     2.162954e-01    -7.1820e+00      0.076 (TRAH MIcro)
    0     dE    -6.783370e-02     1.574761e-02    -7.2500e+00      0.076 (TRAH MIcro)
    0     dE    -6.783607e-02     3.084332e-03    -7.2506e+00      0.076 (TRAH MIcro)
WARNING: 82 diagonal Hessian elements are negative!
    1       -475.103755049533     5.509128e-01                     0.480 (TRAH MAcro)   No
WARNING : negative HOMO - LUMO gap : -0.679921
    1     dE    -1.709121e-02     2.187136e-01    -3.4052e-02      0.062 (TRAH MIcro)
    1     dE    -2.187016e-02     1.340860e-01    -4.3317e-02      0.099 (TRAH MIcro)
    1     dE    -3.820702e-02     3.997488e+00    -7.9314e-02      0.480 (TRAH MIcro)
    1     dE    -3.086581e-01     6.870214e-01    -2.5430e+00      0.480 (TRAH MIcro)
    1     dE    -1.568361e-02     6.262401e-02    -5.9422e+00      0.041 (TRAH MIcro)
    1     dE    -1.593718e-02     1.087126e-02    -6.0041e+00      0.041 (TRAH MIcro)
    1     dE    -1.594429e-02     4.250562e-03    -6.0054e+00      0.041 (TRAH MIcro)
WARNING: 73 diagonal Hessian elements are negative!
    2       -475.119697996307     2.464960e-01                     0.576 (TRAH MAcro)   No
WARNING : negative HOMO - LUMO gap : -0.637097
    2     dE    -4.396588e-03     1.298267e-01    -8.7820e-03      0.036 (TRAH MIcro)
    2     dE    -6.497275e-03     6.542199e-02    -1.2933e-02      0.069 (TRAH MIcro)
    2     dE    -6.865257e-03     2.992387e-02    -1.3650e-02      0.077 (TRAH MIcro)
    2     dE    -6.930907e-03     1.618654e-02    -1.3776e-02      0.079 (TRAH MIcro)
    2     dE    -6.954742e-03     2.598441e-02    -1.3820e-02      0.081 (TRAH MIcro)
    2     dE    -5.459574e-03     3.011387e-02    -2.1917e+00      0.037 (TRAH MIcro)
    2     dE    -5.637668e-03     2.017892e-02    -2.2186e+00      0.038 (TRAH MIcro)
    2     dE    -2.474470e-02     2.056350e-01    -2.3057e+00      0.134 (TRAH MIcro)
    2     dE    -4.091040e-03     8.342839e-03    -5.5379e+00      0.023 (TRAH MIcro)
WARNING: 71 diagonal Hessian elements are negative!
    3       -475.123789126483     1.258713e-01                     0.691 (TRAH MAcro)   No
WARNING : negative HOMO - LUMO gap : -0.618353
    3     dE    -1.650513e-03     8.225582e-02    -3.2988e-03      0.026 (TRAH MIcro)
    3     dE    -2.634600e-03     4.450095e-02    -5.2538e-03      0.054 (TRAH MIcro)
    3     dE    -2.804960e-03     2.780822e-02    -5.5900e-03      0.060 (TRAH MIcro)
    3     dE    -2.925594e-03     1.064092e-01    -5.8237e-03      0.069 (TRAH MIcro)
    3     dE    -1.829758e-03     1.998096e-02    -2.5714e+00      0.021 (TRAH MIcro)
    3     dE    -1.856383e-03     5.760081e-03    -2.6065e+00      0.021 (TRAH MIcro)
WARNING: 67 diagonal Hessian elements are negative!
    4       -475.125645369300     5.624820e-02                     0.829 (TRAH MAcro)   No
WARNING : negative HOMO - LUMO gap : -0.607028
    4     dE    -5.575664e-04     8.389440e-02    -1.1147e-03      0.020 (TRAH MIcro)
    4     dE    -2.235855e-01     4.663836e+00    -6.2791e-01      0.829 (TRAH MIcro)
    4     dE    -1.687270e-01     3.881557e-01    -2.3547e+00      0.377 (TRAH MIcro)
    4     dE    -3.654283e-01     1.098353e-01    -2.4560e+00      0.545 (TRAH MIcro)
    4     dE    -3.786176e-01     3.661998e-02    -2.4603e+00      0.554 (TRAH MIcro)
    4     dE    -3.836279e-01     9.718133e-03    -2.4609e+00      0.558 (TRAH MIcro)
    4     dE    -3.852001e-01     5.473304e-03    -2.4609e+00      0.559 (TRAH MIcro)
WARNING: 6 diagonal Hessian elements are negative!
    5       -475.357845547637     8.584348e-01                     0.829 (TRAH MAcro)   No
WARNING : negative HOMO - LUMO gap : -0.141635
    5     dE    -6.770351e-02     1.289766e+00    -1.3144e-01      0.174 (TRAH MIcro)
    5     dE    -1.502376e-01     8.802399e-01    -2.5511e-01      0.422 (TRAH MIcro)
    5     dE    -1.853686e-01     4.820960e-01    -3.0085e-01      0.482 (TRAH MIcro)
    5     dE    -2.250332e-01     4.925900e-01    -3.3580e-01      0.583 (TRAH MIcro)
    5     dE    -3.173039e-01     6.966327e-01    -4.0476e-01      0.829 (TRAH MIcro)
    5     dE    -2.682033e-01     1.318493e-01    -6.2140e-01      0.641 (TRAH MIcro)
    5     dE    -3.140274e-01     7.413821e-02    -6.2743e-01      0.741 (TRAH MIcro)
    5     dE    -3.246285e-01     2.782825e-02    -6.2860e-01      0.762 (TRAH MIcro)
    5     dE    -3.270620e-01     1.955800e-02    -6.2887e-01      0.767 (TRAH MIcro)
    5     dE    -3.275688e-01     6.832846e-03    -6.2893e-01      0.768 (TRAH MIcro)
WARNING: 15 diagonal Hessian elements are negative!
    6       -475.419269393487     7.361750e-01                     0.581 (TRAH MAcro)   No
WARNING : negative HOMO - LUMO gap : -0.171664
    6     dE    -3.562838e-02     5.247639e-01    -7.0607e-02      0.096 (TRAH MIcro)
    6     dE    -1.149944e-01     4.741395e-01    -1.8771e-01      0.580 (TRAH MIcro)
    6     dE    -1.310318e-01     1.239778e-01    -2.8363e-01      0.581 (TRAH MIcro)
    6     dE    -1.352820e-01     9.663503e-02    -2.8257e-01      0.581 (TRAH MIcro)
    6     dE    -1.359921e-01     6.288165e-02    -2.7681e-01      0.581 (TRAH MIcro)
    6     dE    -1.364891e-01     3.202065e-02    -2.6979e-01      0.581 (TRAH MIcro)
    6     dE    -1.366405e-01     2.226890e-02    -2.6942e-01      0.581 (TRAH MIcro)
    6     dE    -1.367196e-01     1.692584e-02    -2.7095e-01      0.581 (TRAH MIcro)
    6     dE    -1.367672e-01     1.504542e-02    -2.7147e-01      0.581 (TRAH MIcro)
    6     dE    -1.368116e-01     1.750504e-02    -2.7214e-01      0.581 (TRAH MIcro)
    6     dE    -9.822585e-02     1.673369e-01    -5.2067e-01      0.348 (TRAH MIcro)
    6     dE    -9.768810e-02     7.386938e-02    -5.4099e-01      0.324 (TRAH MIcro)
    6     dE    -9.993890e-02     9.040399e-02    -5.4466e-01      0.333 (TRAH MIcro)
    6     dE    -7.762267e-02     7.292781e-02    -9.6314e-01      0.215 (TRAH MIcro)
WARNING: 1 diagonal Hessian elements are negative!
    7       -475.487603432570     1.445017e-01                     0.697 (TRAH MAcro)   No
WARNING : negative HOMO - LUMO gap : -0.004096
    7     dE    -1.945929e-03     2.843072e-01    -3.8890e-03      0.027 (TRAH MIcro)
    7     dE    -1.134903e-02     3.613200e-01    -2.1702e-02      0.214 (TRAH MIcro)
    7     dE    -2.155385e-02     3.852989e-01    -3.7238e-02      0.397 (TRAH MIcro)
    7     dE    -2.839363e-02     1.956763e-01    -4.5100e-02      0.509 (TRAH MIcro)
    7     dE    -3.079218e-02     1.084088e-01    -4.7299e-02      0.550 (TRAH MIcro)
    7     dE    -3.209914e-02     4.332045e-02    -4.8262e-02      0.575 (TRAH MIcro)
    7     dE    -3.232197e-02     1.102640e-02    -4.8390e-02      0.580 (TRAH MIcro)
    7     dE    -3.235351e-02     6.325696e-03    -4.8405e-02      0.580 (TRAH MIcro)
 ---------------------------------
          TRAH Step control 
 ---------------------------------
  predicted energy change = -0.032354
  actual energy  change   = 0.001907
  energy change ratio     = -0.058956
  old trust radius        = 0.696730
  new trust radius        = 0.487711
  reject step?            =  1
    8       -475.487603432570     7.361750e-01                     0.488 (TRAH MAcro)  Yes
WARNING: 1 diagonal Hessian elements are negative!
    9       -475.487603432570     1.445017e-01                     0.488 (TRAH MAcro)   No
WARNING : negative HOMO - LUMO gap : -0.004096
    9     dE    -1.948151e-03     2.856837e-01    -3.8934e-03      0.027 (TRAH MIcro)
    9     dE    -1.136168e-02     3.581954e-01    -2.1724e-02      0.214 (TRAH MIcro)
    9     dE    -2.155862e-02     3.783102e-01    -3.7245e-02      0.397 (TRAH MIcro)
    9     dE    -2.786421e-02     1.825086e-01    -5.2253e-02      0.488 (TRAH MIcro)
    9     dE    -2.897995e-02     8.498081e-02    -6.5647e-02      0.488 (TRAH MIcro)
    9     dE    -2.936347e-02     2.821555e-02    -7.1873e-02      0.488 (TRAH MIcro)
    9     dE    -2.940655e-02     8.372429e-03    -7.2730e-02      0.488 (TRAH MIcro)
WARNING: 2 diagonal Hessian elements are negative!
   10       -475.497839631517     4.082233e-01                     0.488 (TRAH MAcro)   No
WARNING : negative HOMO - LUMO gap : -0.044644
   10     dE    -8.724466e-03     2.543698e-01    -1.7414e-02      0.045 (TRAH MIcro)
   10     dE    -1.264591e-02     6.712444e-02    -2.5114e-02      0.084 (TRAH MIcro)
   10     dE    -1.309880e-02     5.147187e-02    -2.5967e-02      0.094 (TRAH MIcro)
   10     dE    -1.334215e-02     2.216097e-02    -2.6404e-02      0.103 (TRAH MIcro)
   10     dE    -1.342049e-02     2.484923e-02    -2.6532e-02      0.108 (TRAH MIcro)
   10     dE    -1.349499e-02     2.244523e-02    -2.6636e-02      0.115 (TRAH MIcro)
   10     dE    -1.998291e-02     4.192930e-01    -4.8464e-02      0.488 (TRAH MIcro)
   10     dE    -1.353236e-02     1.584843e-02    -2.1555e-01      0.104 (TRAH MIcro)
   10     dE    -1.654272e-02     3.183403e-02    -2.1664e-01      0.195 (TRAH MIcro)
   10     dE    -3.874269e-02     4.228564e-02    -2.2032e-01      0.488 (TRAH MIcro)
   10     dE    -1.278440e-02     1.151608e-02    -5.4198e-01      0.075 (TRAH MIcro)
   10     dE    -1.278488e-02     2.180686e-03    -5.4219e-01      0.075 (TRAH MIcro)
   11       -475.510209809606     2.811364e-02                     0.585 (TRAH MAcro)   No
WARNING : small    HOMO - LUMO gap : 0.004034
   11     dE    -1.041671e-04     3.326635e-02    -2.0832e-04      0.007 (TRAH MIcro)
   11     dE    -1.141018e-04     2.668872e-02    -2.2819e-04      0.009 (TRAH MIcro)
   11     dE    -1.475446e-04     2.153794e-02    -2.9504e-04      0.012 (TRAH MIcro)
   11     dE    -1.630638e-04     6.236500e-03    -3.2606e-04      0.014 (TRAH MIcro)
   11     dE    -1.662781e-04     4.810088e-03    -3.3247e-04      0.016 (TRAH MIcro)
   11     dE    -1.672222e-04     2.426402e-03    -3.3435e-04      0.017 (TRAH MIcro)
   12       -475.510376524122     2.472951e-03                     0.702 (TRAH MAcro)   No
WARNING : small    HOMO - LUMO gap : 0.006939
   12     dE    -5.901332e-08     1.605312e-03    -1.1808e-07      0.000 (TRAH MIcro)
   12     dE    -1.071647e-07     1.648418e-03    -2.1433e-07      0.000 (TRAH MIcro)
   12     dE    -2.409277e-07     1.051712e-03    -4.8186e-07      0.001 (TRAH MIcro)
   12     dE    -3.816383e-07     7.969249e-04    -7.6328e-07      0.001 (TRAH MIcro)
   12     dE    -4.560082e-07     4.078965e-04    -9.1201e-07      0.002 (TRAH MIcro)
   12     dE    -4.679264e-07     1.536767e-04    -9.3585e-07      0.002 (TRAH MIcro)
   13       -475.510376990097     1.529615e-04                           (NR   MAcro)
WARNING : small    HOMO - LUMO gap : 0.006923
   13     dE    -1.800514e-09     9.307376e-05                           (NR   MIcro)
   13     dE    -2.030620e-09     7.885256e-05                           (NR   MIcro)
   13     dE    -2.668370e-09     3.398154e-05                           (NR   MIcro)
   13     dE    -2.782816e-09     1.647024e-05                           (NR   MIcro)
   13     dE    -2.810942e-09     1.165390e-05                           (NR   MIcro)
   13     dE    -2.823386e-09     9.746119e-06                           (NR   MIcro)
   13     dE    -2.832383e-09     4.067224e-06                           (NR   MIcro)
   13     dE    -2.833943e-09     1.964107e-06                           (NR   MIcro)
   13     dE    -2.834348e-09     8.478713e-07                           (NR   MIcro)
   14       -475.510376993072     8.594375e-07                           (NR   MAcro)
WARNING : small    HOMO - LUMO gap : 0.006923

               *****************************************************
               *                     SUCCESS                       *
               *           SCF CONVERGED AFTER 142 CYCLES          *
               *****************************************************

Old exchange energy                            =    -12.203661483 Eh
New exchange energy                            =    -12.203653350 Eh
Exchange energy change after final integration =      0.000008133 Eh
Total energy after final integration           =   -475.510368860 Eh
Final COS-X integration done in                =    35.241 sec

----------------
TOTAL SCF ENERGY
----------------

Total Energy       :         -475.51036886 Eh          -12939.29496 eV

Components:
Nuclear Repulsion  :          364.72944271 Eh            9924.79270 eV
Electronic Energy  :         -840.23981157 Eh          -22864.08766 eV
One Electron Energy:        -1356.09171678 Eh          -36901.13163 eV
Two Electron Energy:          515.85190521 Eh           14037.04397 eV
Max COSX asymmetry :            0.00000342 Eh               0.00009 eV

Virial components:
Potential Energy   :         -946.66264063 Eh          -25760.00006 eV
Kinetic Energy     :          471.15227177 Eh           12820.70511 eV
Virial Ratio       :            2.00924987


DFT components:
N(Alpha)           :       36.000032736207 electrons
N(Beta)            :       36.000032736207 electrons
N(Total)           :       72.000065472414 electrons
E(X)               :      -48.807190722035 Eh       
E(C)               :       -2.862500437000 Eh       
E(XC)              :      -51.669691159035 Eh       
DFET-embed. en.    :        0.000000000000 Eh       

---------------
SCF CONVERGENCE
---------------

  Last Energy change         ...   -2.9754e-09  Tolerance :   1.0000e-08
  Last Orbital Gradient      ...    8.5944e-07  Tolerance :   1.0000e-05
  Last Orbital Rotation      ...    8.0864e-05

             **** THE GBW FILE WAS UPDATED (educts_optfreq_8.gbw) ****
             **** DENSITY educts_optfreq_8.scfp WAS UPDATED ****
             **** ENERGY FILE WAS UPDATED (educts_optfreq_8.en.tmp) ****
             **** THE GBW FILE WAS UPDATED (educts_optfreq_8.gbw) ****
             **** DENSITY educts_optfreq_8.scfp WAS UPDATED ****
----------------
ORBITAL ENERGIES
----------------

  NO   OCC          E(Eh)            E(eV) 
   0   2.0000     -19.427975      -528.6621 
   1   2.0000     -19.370966      -527.1108 
   2   2.0000     -14.693786      -399.8383 
   3   2.0000     -10.386100      -282.6202 
   4   2.0000     -10.374392      -282.3016 
   5   2.0000     -10.355959      -281.8000 
   6   2.0000     -10.354436      -281.7585 
   7   2.0000     -10.351800      -281.6868 
   8   2.0000     -10.350481      -281.6509 
   9   2.0000     -10.326503      -280.9984 
  10   2.0000      -1.279038       -34.8044 
  11   2.0000      -1.047016       -28.4908 
  12   2.0000      -1.020664       -27.7737 
  13   2.0000      -0.932420       -25.3724 
  14   2.0000      -0.906470       -24.6663 
  15   2.0000      -0.839607       -22.8469 
  16   2.0000      -0.838705       -22.8223 
  17   2.0000      -0.764238       -20.7960 
  18   2.0000      -0.742279       -20.1984 
  19   2.0000      -0.671547       -18.2737 
  20   2.0000      -0.629719       -17.1355 
  21   2.0000      -0.624531       -16.9944 
  22   2.0000      -0.614216       -16.7137 
  23   2.0000      -0.608114       -16.5476 
  24   2.0000      -0.605325       -16.4717 
  25   2.0000      -0.585203       -15.9242 
  26   2.0000      -0.572843       -15.5879 
  27   2.0000      -0.571864       -15.5612 
  28   2.0000      -0.538583       -14.6556 
  29   2.0000      -0.515633       -14.0311 
  30   2.0000      -0.510069       -13.8797 
  31   2.0000      -0.499495       -13.5920 
  32   2.0000      -0.470546       -12.8042 
  33   2.0000      -0.454217       -12.3599 
  34   2.0000      -0.421345       -11.4654 
  35   2.0000      -0.392357       -10.6766 
  36   0.0000      -0.385434       -10.4882 
  37   0.0000      -0.308345        -8.3905 
  38   0.0000      -0.218191        -5.9373 
  39   0.0000      -0.176688        -4.8079 
  40   0.0000      -0.162541        -4.4230 
  41   0.0000      -0.065285        -1.7765 
  42   0.0000      -0.040726        -1.1082 
  43   0.0000      -0.031146        -0.8475 
  44   0.0000      -0.024729        -0.6729 
  45   0.0000      -0.005934        -0.1615 
  46   0.0000       0.007514         0.2045 
  47   0.0000       0.009583         0.2608 
  48   0.0000       0.025113         0.6834 
  49   0.0000       0.035020         0.9530 
  50   0.0000       0.040053         1.0899 
  51   0.0000       0.083818         2.2808 
  52   0.0000       0.135334         3.6826 
  53   0.0000       0.146559         3.9881 
  54   0.0000       0.148606         4.0438 
  55   0.0000       0.173437         4.7195 
  56   0.0000       0.203217         5.5298 
  57   0.0000       0.244772         6.6606 
  58   0.0000       0.264396         7.1946 
  59   0.0000       0.268198         7.2980 
  60   0.0000       0.286850         7.8056 
  61   0.0000       0.294067         8.0020 
  62   0.0000       0.307014         8.3543 
  63   0.0000       0.326572         8.8865 
  64   0.0000       0.339944         9.2503 
  65   0.0000       0.348056         9.4711 
  66   0.0000       0.386227        10.5098 
  67   0.0000       0.388049        10.5594 
  68   0.0000       0.420962        11.4550 
  69   0.0000       0.428748        11.6668 
  70   0.0000       0.451149        12.2764 
  71   0.0000       0.463425        12.6104 
  72   0.0000       0.481837        13.1114 
  73   0.0000       0.494300        13.4506 
  74   0.0000       0.500400        13.6166 
  75   0.0000       0.513202        13.9649 
  76   0.0000       0.531643        14.4668 
  77   0.0000       0.532253        14.4833 
  78   0.0000       0.533139        14.5075 
  79   0.0000       0.542377        14.7588 
  80   0.0000       0.544340        14.8123 
  81   0.0000       0.551816        15.0157 
  82   0.0000       0.559438        15.2231 
  83   0.0000       0.577908        15.7257 
  84   0.0000       0.587517        15.9871 
  85   0.0000       0.593239        16.1429 
  86   0.0000       0.601797        16.3757 
  87   0.0000       0.615545        16.7498 
  88   0.0000       0.637336        17.3428 
  89   0.0000       0.667338        18.1592 
  90   0.0000       0.695000        18.9119 
  91   0.0000       0.696638        18.9565 
  92   0.0000       0.740000        20.1364 
  93   0.0000       0.762521        20.7493 
  94   0.0000       0.776813        21.1382 
  95   0.0000       0.820202        22.3188 
  96   0.0000       0.820778        22.3345 
  97   0.0000       0.821007        22.3407 
  98   0.0000       0.898185        24.4408 
  99   0.0000       0.918461        24.9926 
 100   0.0000       0.937228        25.5033 
 101   0.0000       0.966056        26.2877 
 102   0.0000       0.971621        26.4391 
 103   0.0000       1.054561        28.6961 
 104   0.0000       1.079977        29.3877 
 105   0.0000       1.090215        29.6663 
 106   0.0000       1.109500        30.1910 
 107   0.0000       1.125333        30.6219 
 108   0.0000       1.146033        31.1851 
 109   0.0000       1.149441        31.2779 
 110   0.0000       1.191408        32.4199 
 111   0.0000       1.319045        35.8930 
 112   0.0000       1.361160        37.0390 
 113   0.0000       1.381817        37.6012 
 114   0.0000       1.415035        38.5051 
 115   0.0000       1.491232        40.5785 
 116   0.0000       1.532844        41.7108 
 117   0.0000       1.534766        41.7631 
 118   0.0000       1.568070        42.6694 
 119   0.0000       1.577263        42.9195 
 120   0.0000       1.594055        43.3764 
 121   0.0000       1.601363        43.5753 
 122   0.0000       1.615059        43.9480 
 123   0.0000       1.619357        44.0650 
 124   0.0000       1.632866        44.4326 
 125   0.0000       1.674622        45.5688 
 126   0.0000       1.680491        45.7285 
 127   0.0000       1.688343        45.9421 
 128   0.0000       1.713783        46.6344 
 129   0.0000       1.728542        47.0360 
 130   0.0000       1.729431        47.0602 
 131   0.0000       1.767711        48.1019 
 132   0.0000       1.796421        48.8831 
 133   0.0000       1.832496        49.8647 
 134   0.0000       1.841730        50.1160 
 135   0.0000       1.873923        50.9920 
 136   0.0000       1.883311        51.2475 
 137   0.0000       1.898772        51.6682 
 138   0.0000       1.905694        51.8566 
 139   0.0000       1.916164        52.1415 
 140   0.0000       1.967148        53.5288 
 141   0.0000       1.978832        53.8468 
 142   0.0000       1.986908        54.0665 
 143   0.0000       2.025767        55.1239 
 144   0.0000       2.078872        56.5690 
 145   0.0000       2.122799        57.7643 
 146   0.0000       2.139547        58.2200 
 147   0.0000       2.153730        58.6060 
 148   0.0000       2.160011        58.7769 
 149   0.0000       2.184299        59.4378 
 150   0.0000       2.208336        60.0919 
 151   0.0000       2.318968        63.1023 
 152   0.0000       2.331254        63.4366 
 153   0.0000       2.353896        64.0528 
 154   0.0000       2.408156        65.5293 
 155   0.0000       2.417802        65.7917 
 156   0.0000       2.445808        66.5538 
 157   0.0000       2.451398        66.7059 
 158   0.0000       2.460034        66.9409 
 159   0.0000       2.463616        67.0384 
 160   0.0000       2.475204        67.3537 
 161   0.0000       2.494724        67.8849 
 162   0.0000       2.511659        68.3457 
 163   0.0000       2.549061        69.3635 
 164   0.0000       2.585849        70.3645 
 165   0.0000       2.592130        70.5354 
 166   0.0000       2.616693        71.2038 
 167   0.0000       2.693918        73.3052 
 168   0.0000       2.724997        74.1509 
 169   0.0000       2.748389        74.7875 
 170   0.0000       2.793760        76.0221 
 171   0.0000       2.804290        76.3086 
 172   0.0000       2.818820        76.7040 
 173   0.0000       2.844532        77.4036 
 174   0.0000       2.904370        79.0319 
 175   0.0000       2.930687        79.7481 
 176   0.0000       3.001292        81.6693 
 177   0.0000       3.114061        84.7379 
 178   0.0000       3.345658        91.0400 
 179   0.0000       3.468630        94.3862 

                    ********************************
                    * MULLIKEN POPULATION ANALYSIS *
                    ********************************

-----------------------
MULLIKEN ATOMIC CHARGES
-----------------------
   0 C :   -0.041250
   1 C :    0.041850
   2 C :    0.061581
   3 C :    0.082154
   4 C :    0.050932
   5 C :    0.051318
   6 C :    0.101965
   7 H :    0.081423
   8 H :    0.072439
   9 H :    0.046305
  10 H :    0.027473
  11 H :    0.037817
  12 H :    0.055470
  13 H :    0.041262
  14 H :    0.026179
  15 N :    0.332885
  16 O :   -0.008192
  17 O :   -0.061611
Sum of atomic charges:    1.0000000

--------------------------------
MULLIKEN REDUCED ORBITAL CHARGES
--------------------------------
  0 C s       :     3.124563  s :     3.124563
      pz      :     1.030861  p :     2.871421
      px      :     0.854818
      py      :     0.985743
      dz2     :     0.011921  d :     0.045267
      dxz     :     0.008407
      dyz     :     0.012234
      dx2y2   :     0.006343
      dxy     :     0.006362
  1 C s       :     3.209372  s :     3.209372
      pz      :     0.935197  p :     2.714882
      px      :     0.918849
      py      :     0.860836
      dz2     :     0.010545  d :     0.033897
      dxz     :     0.006151
      dyz     :     0.009606
      dx2y2   :     0.003541
      dxy     :     0.004055
  2 C s       :     3.173109  s :     3.173109
      pz      :     0.899186  p :     2.730428
      px      :     0.908799
      py      :     0.922443
      dz2     :     0.009177  d :     0.034882
      dxz     :     0.005482
      dyz     :     0.010199
      dx2y2   :     0.004839
      dxy     :     0.005185
  3 C s       :     3.193242  s :     3.193242
      pz      :     0.924549  p :     2.688945
      px      :     0.845815
      py      :     0.918580
      dz2     :     0.008527  d :     0.035659
      dxz     :     0.005107
      dyz     :     0.011173
      dx2y2   :     0.005612
      dxy     :     0.005239
  4 C s       :     3.167732  s :     3.167732
      pz      :     0.946482  p :     2.746442
      px      :     0.916466
      py      :     0.883494
      dz2     :     0.010607  d :     0.034894
      dxz     :     0.006472
      dyz     :     0.009859
      dx2y2   :     0.003716
      dxy     :     0.004240
  5 C s       :     3.217763  s :     3.217763
      pz      :     0.866860  p :     2.697035
      px      :     0.906783
      py      :     0.923392
      dz2     :     0.009329  d :     0.033885
      dxz     :     0.005584
      dyz     :     0.009395
      dx2y2   :     0.004490
      dxy     :     0.005086
  6 C s       :     2.915784  s :     2.915784
      pz      :     0.949187  p :     2.954710
      px      :     1.018138
      py      :     0.987385
      dz2     :     0.005446  d :     0.027540
      dxz     :     0.004645
      dyz     :     0.007538
      dx2y2   :     0.004301
      dxy     :     0.005610
  7 H s       :     0.893044  s :     0.893044
      pz      :     0.006532  p :     0.025533
      px      :     0.012972
      py      :     0.006029
  8 H s       :     0.901565  s :     0.901565
      pz      :     0.010199  p :     0.025997
      px      :     0.007937
      py      :     0.007861
  9 H s       :     0.928983  s :     0.928983
      pz      :     0.004297  p :     0.024712
      px      :     0.007880
      py      :     0.012535
 10 H s       :     0.949092  s :     0.949092
      pz      :     0.003222  p :     0.023435
      px      :     0.006571
      py      :     0.013643
 11 H s       :     0.938517  s :     0.938517
      pz      :     0.013187  p :     0.023665
      px      :     0.005456
      py      :     0.005023
 12 H s       :     0.921539  s :     0.921539
      pz      :     0.012018  p :     0.022992
      px      :     0.003503
      py      :     0.007472
 13 H s       :     0.935230  s :     0.935230
      pz      :     0.003258  p :     0.023508
      px      :     0.006582
      py      :     0.013669
 14 H s       :     0.950163  s :     0.950163
      pz      :     0.012987  p :     0.023658
      px      :     0.005628
      py      :     0.005043
 15 N s       :     3.882991  s :     3.882991
      pz      :     0.864044  p :     2.742505
      px      :     0.964984
      py      :     0.913476
      dz2     :     0.010430  d :     0.041619
      dxz     :     0.012676
      dyz     :     0.009345
      dx2y2   :     0.004098
      dxy     :     0.005070
 16 O s       :     3.929186  s :     3.929186
      pz      :     1.263456  p :     4.061082
      px      :     1.380607
      py      :     1.417019
      dz2     :     0.005141  d :     0.017924
      dxz     :     0.005928
      dyz     :     0.004029
      dx2y2   :     0.001490
      dxy     :     0.001337
 17 O s       :     3.982514  s :     3.982514
      pz      :     0.972704  p :     4.074677
      px      :     1.552650
      py      :     1.549323
      dz2     :     0.000646  d :     0.004420
      dxz     :     0.000927
      dyz     :     0.000978
      dx2y2   :     0.000439
      dxy     :     0.001429


                     *******************************
                     * LOEWDIN POPULATION ANALYSIS *
                     *******************************

----------------------
LOEWDIN ATOMIC CHARGES
----------------------
   0 C :    0.094168
   1 C :    0.019447
   2 C :    0.031454
   3 C :    0.107185
   4 C :    0.015491
   5 C :    0.039463
   6 C :   -0.019028
   7 H :    0.075742
   8 H :    0.068331
   9 H :    0.044847
  10 H :    0.049669
  11 H :    0.051704
  12 H :    0.056288
  13 H :    0.053545
  14 H :    0.048612
  15 N :    0.269418
  16 O :    0.047405
  17 O :   -0.053740

-------------------------------
LOEWDIN REDUCED ORBITAL CHARGES
-------------------------------
  0 C s       :     2.876360  s :     2.876360
      pz      :     1.066181  p :     2.922091
      px      :     0.844198
      py      :     1.011712
      dz2     :     0.029876  d :     0.107381
      dxz     :     0.017870
      dyz     :     0.030902
      dx2y2   :     0.013753
      dxy     :     0.014980
  1 C s       :     2.862297  s :     2.862297
      pz      :     1.048103  p :     3.028798
      px      :     0.951509
      py      :     1.029186
      dz2     :     0.030457  d :     0.089458
      dxz     :     0.015140
      dyz     :     0.027134
      dx2y2   :     0.007542
      dxy     :     0.009184
  2 C s       :     2.861119  s :     2.861119
      pz      :     1.060876  p :     3.016812
      px      :     0.930802
      py      :     1.025134
      dz2     :     0.025100  d :     0.090615
      dxz     :     0.012341
      dyz     :     0.028074
      dx2y2   :     0.011841
      dxy     :     0.013258
  3 C s       :     2.879562  s :     2.879562
      pz      :     1.053174  p :     2.924497
      px      :     0.854024
      py      :     1.017299
      dz2     :     0.022363  d :     0.088756
      dxz     :     0.011859
      dyz     :     0.028925
      dx2y2   :     0.012630
      dxy     :     0.012979
  4 C s       :     2.858812  s :     2.858812
      pz      :     1.055893  p :     3.034591
      px      :     0.949388
      py      :     1.029310
      dz2     :     0.030039  d :     0.091106
      dxz     :     0.016098
      dyz     :     0.027602
      dx2y2   :     0.007768
      dxy     :     0.009600
  5 C s       :     2.864422  s :     2.864422
      pz      :     1.061151  p :     3.007091
      px      :     0.932717
      py      :     1.013223
      dz2     :     0.025656  d :     0.089024
      dxz     :     0.012710
      dyz     :     0.026524
      dx2y2   :     0.011063
      dxy     :     0.013071
  6 C s       :     2.813928  s :     2.813928
      pz      :     1.016871  p :     3.132225
      px      :     1.061732
      py      :     1.053622
      dz2     :     0.014892  d :     0.072874
      dxz     :     0.011974
      dyz     :     0.020875
      dx2y2   :     0.010500
      dxy     :     0.014634
  7 H s       :     0.856371  s :     0.856371
      pz      :     0.017677  p :     0.067887
      px      :     0.035623
      py      :     0.014586
  8 H s       :     0.861347  s :     0.861347
      pz      :     0.028430  p :     0.070323
      px      :     0.020017
      py      :     0.021875
  9 H s       :     0.885102  s :     0.885102
      pz      :     0.012604  p :     0.070052
      px      :     0.021855
      py      :     0.035593
 10 H s       :     0.880280  s :     0.880280
      pz      :     0.010534  p :     0.070051
      px      :     0.019981
      py      :     0.039535
 11 H s       :     0.877617  s :     0.877617
      pz      :     0.037877  p :     0.070680
      px      :     0.016868
      py      :     0.015934
 12 H s       :     0.874214  s :     0.874214
      pz      :     0.035395  p :     0.069498
      px      :     0.011274
      py      :     0.022829
 13 H s       :     0.876630  s :     0.876630
      pz      :     0.010807  p :     0.069825
      px      :     0.019763
      py      :     0.039255
 14 H s       :     0.880377  s :     0.880377
      pz      :     0.037695  p :     0.071011
      px      :     0.017352
      py      :     0.015964
 15 N s       :     3.702877  s :     3.702877
      pz      :     0.980197  p :     2.958139
      px      :     1.032265
      py      :     0.945677
      dz2     :     0.018596  d :     0.069565
      dxz     :     0.023627
      dyz     :     0.015332
      dx2y2   :     0.005128
      dxy     :     0.006884
 16 O s       :     3.749303  s :     3.749303
      pz      :     1.347371  p :     4.173768
      px      :     1.408229
      py      :     1.418168
      dz2     :     0.008427  d :     0.029524
      dxz     :     0.011215
      dyz     :     0.005846
      dx2y2   :     0.001909
      dxy     :     0.002128
 17 O s       :     3.924498  s :     3.924498
      pz      :     0.984624  p :     4.123331
      px      :     1.570872
      py      :     1.567835
      dz2     :     0.000870  d :     0.005911
      dxz     :     0.001281
      dyz     :     0.001308
      dx2y2   :     0.000479
      dxy     :     0.001974


                      *****************************
                      * MAYER POPULATION ANALYSIS *
                      *****************************

  NA   - Mulliken gross atomic population
  ZA   - Total nuclear charge
  QA   - Mulliken gross atomic charge
  VA   - Mayer's total valence
  BVA  - Mayer's bonded valence
  FA   - Mayer's free valence

  ATOM       NA         ZA         QA         VA         BVA        FA
[...]
      8       0.026664  -0.171003   0.007051   0.217336   0.000133   0.000050
      9       0.020863   0.033440   0.002089   0.040272   0.000098  -0.000027
     10      -0.032356  -0.134056  -0.004617  -0.082016  -0.000178   0.000016
     11      -0.074125   0.092242  -0.003871  -0.091354  -0.000213  -0.000067
     12      -0.013089  -0.052352  -0.003940  -0.066425   0.000011   0.000047
     13      -0.020224   0.114302   0.005781   0.087652  -0.000254  -0.000060
     14       0.150139   0.100595   0.014648   0.274728   0.000460   0.000122
     15      -0.024822   0.050481   0.003018   0.102979  -0.000219   0.000446
     16       0.073778  -0.097380  -0.004484  -0.212231   0.000190   0.000201
     17      -0.003895  -0.130227  -0.011139  -0.231349   0.000204   0.000343
     18      -0.018398  -0.001257  -0.000724   0.011451   0.033836  -0.076204
     19       0.045960   0.009095  -0.000866  -0.021267   0.014825  -0.021737
     20       0.064152  -0.016441   0.002014  -0.034397  -0.048161  -0.032699
     21      -0.046829   0.032367   0.009236  -0.013885   0.325978   0.615955
     22      -0.200325   0.041772   0.019054   0.020361  -0.038905  -0.104428
     23       0.052571  -0.045843  -0.003467  -0.003383   0.284499   0.601438
     24       0.084957  -0.032858  -0.012697   0.006624  -0.681471   0.358013
     25      -0.105401   0.035648   0.008146   0.016063  -0.407506   0.226943
     26       0.085444  -0.047671  -0.007691  -0.001231   0.320488  -0.198114
     27      -0.010970  -0.031056   0.001776   0.008926  -0.053203  -0.048128
     28       0.014707   0.017925   0.001473  -0.018270   0.265393   0.137849
     29      -0.225311   0.129211   0.014443   0.008510  -0.033596  -0.018847
     30       0.068727   0.005679   0.001896   0.000342   0.000988   0.000349
     31      -0.032472   0.098022  -0.006235  -0.132207  -0.002474  -0.001850
     32      -0.436665  -0.300383   0.002706   0.333835  -0.000248  -0.000173
     33       0.146529  -0.108007   0.008080   0.119276  -0.000212   0.001044
     34      -0.333471   0.313034  -0.020183  -0.321881   0.000051   0.000446
     35      -0.241224   0.008980  -0.008566  -0.070529  -0.001389  -0.000331
     36       0.019624  -0.146802  -0.000193   0.031451   0.000725  -0.000448
     37      -0.018203   0.553813   0.005357  -0.038299  -0.000814  -0.000367
     38      -0.102670  -0.317221  -0.011211  -0.145622  -0.001557  -0.000349
     39       0.060824  -0.024721   0.001038  -0.004801   0.000455   0.000151
     40       0.002112   0.154262   0.009032   0.135695  -0.001292  -0.000524
     41      -0.455892  -0.208422  -0.030336  -0.307944  -0.000654  -0.000202
     42       0.136193  -0.117261  -0.004947  -0.136508   0.000436  -0.001085
     43      -0.305209   0.311175   0.015603   0.364737   0.001243   0.000624
     44      -0.242056   0.091344  -0.001345   0.086516  -0.003572  -0.002851
     45      -0.001166  -0.001122   0.424764  -0.008407  -0.000216  -0.000033
     46      -0.001483  -0.001417   0.535850  -0.010574  -0.000269  -0.000041
     47      -0.000768  -0.000778   0.297473  -0.006031  -0.000158  -0.000024
     48       0.000236   0.000348  -0.138134   0.004023   0.000135   0.000020
     49      -0.000123   0.000213  -0.097992   0.005623   0.000236   0.000036
     50       0.002035   0.001242  -0.434664   0.000399  -0.000194  -0.000029
     51       0.000787   0.000635  -0.233759   0.003330   0.000053   0.000008
     52       0.001420   0.001027  -0.371153   0.003634  -0.000000  -0.000000
     53      -0.001361  -0.000565   0.174175   0.004852   0.000331   0.000050
                 48         49         50         51         52         53    
      0       0.000403  -0.000624  -0.000454  -0.000186  -0.000379  -0.000303
      1      -0.000359   0.001742   0.001862  -0.000012   0.001553   0.000432
      2      -0.001693   0.000392  -0.001394   0.001564  -0.001148   0.001285
      3       0.000849  -0.003923   0.016339  -0.018100   0.011048  -0.009057
      4      -0.002932   0.011891  -0.048539   0.053330  -0.031405   0.025679
      5      -0.000259  -0.000913   0.001007  -0.000039  -0.002924   0.002533
      6      -0.000068   0.000752  -0.002370   0.001865   0.001978  -0.002705
      7       0.000238  -0.008687   0.021374  -0.007281  -0.024557   0.025767
      8      -0.000063   0.016567  -0.036879   0.004637   0.047895  -0.045544
      9      -0.000051   0.008623  -0.009830  -0.015757   0.000103   0.011251
     10       0.000153  -0.014557   0.015917   0.026652   0.001906  -0.018783
     11       0.000008  -0.027455   0.033046   0.050100  -0.005658  -0.036363
     12      -0.000011  -0.011542   0.000150   0.006185   0.019388   0.016797
     13      -0.000097   0.034443   0.000724  -0.016782  -0.056205  -0.049362
     14       0.000183  -0.001434  -0.002950  -0.003490  -0.001690   0.000268
     15       0.000294   0.003750   0.001859   0.001141   0.000108   0.000186
     16      -0.000371  -0.033870  -0.019082  -0.012387  -0.008669  -0.007675
     17       0.000137   0.058580   0.034924   0.023145   0.021407   0.018260
     18      -0.021875   0.000056   0.000532  -0.000336   0.000250  -0.000077
     19       0.085416   0.000166  -0.002076   0.001512  -0.000952   0.000605
     20      -0.024933   0.000194   0.000623  -0.000202   0.000278  -0.000263
     21       0.175047  -0.001743  -0.004272   0.001168  -0.001745   0.001294
     22      -0.017423  -0.000572   0.000327  -0.000869   0.000199  -0.000652
     23       0.160205  -0.002638  -0.004119  -0.000024  -0.001493   0.000618
     24      -0.134727   0.001162   0.003524  -0.000642   0.001322  -0.001283
     25      -0.065317  -0.000259   0.001435  -0.001024   0.000565  -0.001225
     26       0.054830  -0.000794  -0.001448  -0.000341  -0.000389   0.000329
     27       0.212917   0.001114  -0.005225   0.004450  -0.002262   0.001736
     28      -0.923366  -0.004103   0.022125  -0.018151   0.009540  -0.006945
     29       0.102674  -0.000959  -0.001946   0.000238  -0.000829  -0.000159
     30      -0.010392   0.045741  -0.189146   0.204836  -0.116951   0.093333
     31       0.030282  -0.135091   0.558051  -0.603923   0.344037  -0.274455
     32       0.002261   0.000535  -0.001026   0.000102   0.001922  -0.001849
     33       0.000306  -0.011104   0.025994  -0.006196  -0.030404   0.029812
     34      -0.001930   0.107408  -0.246293   0.048835   0.293464  -0.282376
     35       0.003672  -0.190916   0.434346  -0.078553  -0.521181   0.497477
     36       0.000716  -0.098772   0.115355   0.178143  -0.010765  -0.122205
     37      -0.001233   0.165225  -0.192196  -0.298173   0.015833   0.204281
     38      -0.002067   0.318154  -0.373825  -0.573869   0.040351   0.394302
     39      -0.000053   0.139631   0.003534  -0.066314  -0.214128  -0.184177
     40      -0.000239  -0.409726  -0.011443   0.193101   0.627079   0.540000
     41      -0.000029   0.000229   0.002525   0.003438   0.002148   0.000263
     42      -0.000021  -0.041376  -0.023954  -0.015315  -0.012274  -0.010243
     43       0.001582   0.382847   0.223318   0.143624   0.119245   0.099459
     44      -0.004344  -0.670908  -0.392627  -0.253179  -0.213543  -0.178125
     45      -0.000072  -0.000008  -0.000003  -0.000027   0.000002  -0.000016
     46      -0.000091  -0.000010  -0.000003  -0.000034   0.000003  -0.000020
     47      -0.000054  -0.000006  -0.000002  -0.000019   0.000002  -0.000012
     48       0.000046   0.000005   0.000002   0.000017  -0.000001   0.000010
     49       0.000080   0.000009   0.000003   0.000030  -0.000002   0.000017
     50      -0.000067  -0.000007  -0.000003  -0.000025   0.000002  -0.000015
     51       0.000017   0.000002   0.000000   0.000007  -0.000001   0.000004
     52      -0.000001   0.000000   0.000000  -0.000000   0.000000   0.000000
     53       0.000114   0.000012   0.000004   0.000042  -0.000003   0.000025


-----------
IR SPECTRUM
-----------

 Mode   freq       eps      Int      T**2         TX        TY        TZ
       cm**-1   L/(mol*cm) km/mol    a.u.
----------------------------------------------------------------------------
 10:      3.18   0.000000    0.00  0.000000  ( 0.000000  0.000000  0.000000)
 11:      4.06   0.000000    0.00  0.000000  ( 0.000000  0.000000  0.000000)
 12:     24.10   0.000689    3.48  0.008925  ( 0.091353  0.005028  0.023542)
 13:    172.61   0.000227    1.15  0.000411  (-0.018290 -0.008350 -0.002538)
 14:    347.95   0.000956    4.83  0.000858  ( 0.006144 -0.006742  0.027829)
 15:    371.98   0.000002    0.01  0.000001  (-0.000889  0.000686 -0.000159)
 16:    425.96   0.000107    0.54  0.000078  ( 0.007218  0.002356 -0.004532)
 17:    515.55   0.021894  110.64  0.013252  (-0.019588 -0.015290 -0.112405)
 18:    534.91   0.009506   48.04  0.005545  (-0.018188  0.006230 -0.071944)
 19:    609.42   0.004174   21.09  0.002137  (-0.043565 -0.013490  0.007585)
 20:    709.88   1.386236  7005.47  0.609387  (-0.161892 -0.082949 -0.759143)
 21:    751.26   0.006347   32.08  0.002637  ( 0.047499  0.017504  0.008607)
 22:    790.32   0.001009    5.10  0.000399  (-0.009397 -0.001177 -0.017575)
 23:    816.21   0.000114    0.58  0.000044  ( 0.005889  0.001654  0.002520)
 24:    834.91   0.043878  221.74  0.016400  ( 0.004627  0.032859 -0.123690)
 25:    936.35   0.001707    8.63  0.000569  (-0.007085  0.000740  0.022765)
 26:    968.30   0.035288  178.33  0.011373  ( 0.010887  0.009757  0.105636)
 27:   1001.77   0.013065   66.02  0.004070  ( 0.004708  0.000160  0.063621)
 28:   1004.66   0.003282   16.59  0.001020  ( 0.030771  0.005034  0.006881)
 29:   1013.59   0.002767   13.98  0.000852  (-0.012263  0.005785 -0.025846)
 30:   1020.21   0.000066    0.33  0.000020  (-0.003787 -0.001039  0.002180)
 31:   1038.70   0.000032    0.16  0.000010  ( 0.002413  0.001110  0.001605)
 32:   1091.57   0.003321   16.78  0.000949  ( 0.008400 -0.025301  0.015452)
 33:   1152.36   0.009017   45.57  0.002442  (-0.003411 -0.006178 -0.048909)
 34:   1198.32   0.057432  290.24  0.014956  (-0.019348 -0.011493 -0.120207)
 35:   1258.06   0.054875  277.31  0.013612  ( 0.013882  0.014301  0.114955)
 36:   1289.46   0.041289  208.66  0.009992  (-0.001944 -0.012526 -0.099155)
 37:   1340.45   0.057843  292.32  0.013466  (-0.002269  0.008997  0.115672)
 38:   1384.44   0.000465    2.35  0.000105  (-0.009264  0.003908  0.001908)
 39:   1399.28   0.002960   14.96  0.000660  (-0.024136  0.001716 -0.008635)
 40:   1414.96   0.005491   27.75  0.001211  ( 0.006619 -0.024304  0.024012)
 41:   1451.09   0.021342  107.85  0.004590  (-0.002057  0.000164 -0.067716)
 42:   1483.70   0.049721  251.27  0.010458  ( 0.010831 -0.032111 -0.096485)
 43:   1522.39   0.005236   26.46  0.001073  (-0.007225  0.024567 -0.020436)
 44:   1530.32   0.083901  424.00  0.017109  ( 0.036045  0.026392  0.122936)
 45:   1674.41   0.321776  1626.12  0.059970  ( 0.043169  0.021712  0.240073)
 46:   2979.45   0.120605  609.49  0.012632  ( 0.003581  0.016803  0.111071)
 47:   3033.96   0.004077   20.60  0.000419  ( 0.008573  0.004311  0.018090)
 48:   3157.31   0.017942   90.67  0.001773  ( 0.002054  0.008652  0.041161)
 49:   3197.45   0.000147    0.74  0.000014  ( 0.000086  0.001702  0.003388)
 50:   3201.32   0.000021    0.11  0.000002  ( 0.000251  0.000790 -0.001162)
 51:   3206.48   0.001052    5.32  0.000102  ( 0.002643  0.000036  0.009768)
 52:   3215.50   0.000676    3.42  0.000066  (-0.001958  0.006500 -0.004418)
 53:   3219.66   0.000991    5.01  0.000096  ( 0.000351  0.001963  0.009593)

* The epsilon (eps) is given for a Dirac delta lineshape.
** The dipole moment derivative (T) already includes vibrational overlap.

The first frequency considered to be a vibration is 10
The total number of vibrations considered is 44


--------------------------
THERMOCHEMISTRY AT 298.15K
--------------------------

Temperature         ... 298.15 K
Pressure            ... 1.00 atm
Total Mass          ... 138.15 AMU

Throughout the following assumptions are being made:
  (1) The electronic state is orbitally nondegenerate
  (2) There are no thermally accessible electronically excited states
  (3) Hindered rotations indicated by low frequency modes are not
      treated as such but are treated as vibrations and this may
      cause some error
  (4) All equations used are the standard statistical mechanics
      equations for an ideal gas
  (5) All vibrations are strictly harmonic

freq.       3.18  E(vib)   ...       0.59 
freq.       4.06  E(vib)   ...       0.59 
freq.      24.10  E(vib)   ...       0.56 
freq.     172.61  E(vib)   ...       0.38 
freq.     347.95  E(vib)   ...       0.23 
freq.     371.98  E(vib)   ...       0.21 
freq.     425.96  E(vib)   ...       0.18 
freq.     515.55  E(vib)   ...       0.13 
freq.     534.91  E(vib)   ...       0.13 
freq.     609.42  E(vib)   ...       0.10 
freq.     709.88  E(vib)   ...       0.07 
freq.     751.26  E(vib)   ...       0.06 
freq.     790.32  E(vib)   ...       0.05 
freq.     816.21  E(vib)   ...       0.05 
freq.     834.91  E(vib)   ...       0.04 
freq.     936.35  E(vib)   ...       0.03 
freq.     968.30  E(vib)   ...       0.03 
freq.    1001.77  E(vib)   ...       0.02 
freq.    1004.66  E(vib)   ...       0.02 
freq.    1013.59  E(vib)   ...       0.02 
freq.    1020.21  E(vib)   ...       0.02 
freq.    1038.70  E(vib)   ...       0.02 
freq.    1091.57  E(vib)   ...       0.02 
freq.    1152.36  E(vib)   ...       0.01 
freq.    1198.32  E(vib)   ...       0.01 
freq.    1258.06  E(vib)   ...       0.01 
freq.    1289.46  E(vib)   ...       0.01 
freq.    1340.45  E(vib)   ...       0.01 
freq.    1384.44  E(vib)   ...       0.00 
freq.    1399.28  E(vib)   ...       0.00 
freq.    1414.96  E(vib)   ...       0.00 
freq.    1451.09  E(vib)   ...       0.00 
freq.    1483.70  E(vib)   ...       0.00 
freq.    1522.39  E(vib)   ...       0.00 
freq.    1530.32  E(vib)   ...       0.00 
freq.    1674.41  E(vib)   ...       0.00 
freq.    2979.45  E(vib)   ...       0.00 
freq.    3033.96  E(vib)   ...       0.00 
freq.    3157.31  E(vib)   ...       0.00 
freq.    3197.45  E(vib)   ...       0.00 
freq.    3201.32  E(vib)   ...       0.00 
freq.    3206.48  E(vib)   ...       0.00 
freq.    3215.50  E(vib)   ...       0.00 
freq.    3219.66  E(vib)   ...       0.00 

------------
INNER ENERGY
------------

The inner energy is: U= E(el) + E(ZPE) + E(vib) + E(rot) + E(trans)
    E(el)   - is the total energy from the electronic structure calculation
              = E(kin-el) + E(nuc-el) + E(el-el) + E(nuc-nuc)
    E(ZPE)  - the the zero temperature vibrational energy from the frequency calculation
    E(vib)  - the the finite temperature correction to E(ZPE) due to population
              of excited vibrational states
    E(rot)  - is the rotational thermal energy
    E(trans)- is the translational thermal energy

Summary of contributions to the inner energy U:
Electronic energy                ...   -475.62633123 Eh
Zero point energy                ...      0.13281223 Eh      83.34 kcal/mol
Thermal vibrational correction   ...      0.00575165 Eh       3.61 kcal/mol
Thermal rotational correction    ...      0.00141627 Eh       0.89 kcal/mol
Thermal translational correction ...      0.00141627 Eh       0.89 kcal/mol
-----------------------------------------------------------------------
Total thermal energy                   -475.48493480 Eh


Summary of corrections to the electronic energy:
(perhaps to be used in another calculation)
Total thermal correction                  0.00858420 Eh       5.39 kcal/mol
Non-thermal (ZPE) correction              0.13281223 Eh      83.34 kcal/mol
-----------------------------------------------------------------------
Total correction                          0.14139643 Eh      88.73 kcal/mol


--------
ENTHALPY
--------

The enthalpy is H = U + kB*T
                kB is Boltzmann's constant
Total free energy                 ...   -475.48493480 Eh 
Thermal Enthalpy correction       ...      0.00094421 Eh       0.59 kcal/mol
-----------------------------------------------------------------------
Total Enthalpy                    ...   -475.48399059 Eh


Note: Only C1 symmetry has been detected, increase convergence thresholds 
      if your molecule has a higher symmetry. Symmetry factor of 1.0 is   
      used for the rotational entropy correction. 
 

Note: Rotational entropy computed according to Herzberg 
Infrared and Raman Spectra, Chapter V,1, Van Nostrand Reinhold, 1945 
Point Group:  C1, Symmetry Number:   1  
Rotational constants in cm-1:     0.111510     0.001740     0.001723 

Vibrational entropy computed according to the QRRHO of S. Grimme
Chem.Eur.J. 2012 18 9955


-------
ENTROPY
-------

The entropy contributions are T*S = T*(S(el)+S(vib)+S(rot)+S(trans))
     S(el)   - electronic entropy
     S(vib)  - vibrational entropy
     S(rot)  - rotational entropy
     S(trans)- translational entropy
The entropies will be listed as multiplied by the temperature to get
units of energy

Electronic entropy                ...      0.00000000 Eh      0.00 kcal/mol
Vibrational entropy               ...      0.01230837 Eh      7.72 kcal/mol
Rotational entropy                ...      0.01655025 Eh     10.39 kcal/mol
Translational entropy             ...      0.01932890 Eh     12.13 kcal/mol
-----------------------------------------------------------------------
Final entropy term                ...      0.04818751 Eh     30.24 kcal/mol

In case the symmetry of your molecule has not been determined correctly
or in case you have a reason to use a different symmetry number we print 
out the resulting rotational entropy values for sn=1,12 :
 --------------------------------------------------------
|  sn= 1 | S(rot)=       0.01655025 Eh     10.39 kcal/mol|
|  sn= 2 | S(rot)=       0.01589579 Eh      9.97 kcal/mol|
|  sn= 3 | S(rot)=       0.01551296 Eh      9.73 kcal/mol|
|  sn= 4 | S(rot)=       0.01524133 Eh      9.56 kcal/mol|
|  sn= 5 | S(rot)=       0.01503065 Eh      9.43 kcal/mol|
|  sn= 6 | S(rot)=       0.01485850 Eh      9.32 kcal/mol|
|  sn= 7 | S(rot)=       0.01471296 Eh      9.23 kcal/mol|
|  sn= 8 | S(rot)=       0.01458688 Eh      9.15 kcal/mol|
|  sn= 9 | S(rot)=       0.01447567 Eh      9.08 kcal/mol|
|  sn=10 | S(rot)=       0.01437619 Eh      9.02 kcal/mol|
|  sn=11 | S(rot)=       0.01428620 Eh      8.96 kcal/mol|
|  sn=12 | S(rot)=       0.01420405 Eh      8.91 kcal/mol|
 --------------------------------------------------------


-------------------
GIBBS FREE ENERGY
-------------------

The Gibbs free energy is G = H - T*S

Total enthalpy                    ...   -475.48399059 Eh 
Total entropy correction          ...     -0.04818751 Eh    -30.24 kcal/mol
-----------------------------------------------------------------------
Final Gibbs free energy         ...   -475.53217810 Eh

For completeness - the Gibbs free energy minus the electronic energy
G-E(el)                           ...      0.09415313 Eh     59.08 kcal/mol


Timings for individual modules:

Sum of individual times         ...   180996.090 sec (=3016.602 min)
GTO integral calculation        ...       92.280 sec (=   1.538 min)   0.1 %
SCF iterations                  ...   174499.023 sec (=2908.317 min)  96.4 %
SCF Gradient evaluation         ...     5303.674 sec (=  88.395 min)   2.9 %
Geometry relaxation             ...       39.307 sec (=   0.655 min)   0.0 %
Analytical frequency calculation...     1061.806 sec (=  17.697 min)   0.6 %
                             ****ORCA TERMINATED NORMALLY****
TOTAL RUN TIME: 2 days 2 hours 18 minutes 22 seconds 838 msec
