
                                 *****************
                                 * O   R   C   A *
                                 *****************

                                            #,                                       
                                            ###                                      
                                            ####                                     
                                            #####                                    
                                            ######                                   
                                           ########,                                 
                                     ,,################,,,,,                         
                               ,,#################################,,                 
                          ,,##########################################,,             
                       ,#########################################, ''#####,          
                    ,#############################################,,   '####,        
                  ,##################################################,,,,####,       
                ,###########''''           ''''###############################       
              ,#####''   ,,,,##########,,,,          '''####'''          '####       
            ,##' ,,,,###########################,,,                        '##       
           ' ,,###''''                  '''############,,,                           
         ,,##''                                '''############,,,,        ,,,,,,###''
      ,#''                                            '''#######################'''  
     '                                                          ''''####''''         
             ,#######,   #######,   ,#######,      ##                                
            ,#'     '#,  ##    ##  ,#'     '#,    #''#        ######   ,####,        
            ##       ##  ##   ,#'  ##            #'  '#       #        #'  '#        
            ##       ##  #######   ##           ,######,      #####,   #    #        
            '#,     ,#'  ##    ##  '#,     ,#' ,#      #,         ##   #,  ,#        
             '#######'   ##     ##  '#######'  #'      '#     #####' # '####'        



                  #######################################################
                  #                        -***-                        #
                  #          Department of theory and spectroscopy      #
                  #    Directorship and core code : Frank Neese         #
                  #        Max Planck Institute fuer Kohlenforschung    #
                  #                Kaiser Wilhelm Platz 1               #
                  #                 D-45470 Muelheim/Ruhr               #
                  #                      Germany                        #
                  #                                                     #
                  #                  All rights reserved                #
                  #                        -***-                        #
                  #######################################################



                         Program Version 5.0.4 -  RELEASE  -

 With contributions from (in alphabetic order):
   Daniel Aravena         : Magnetic Suceptibility
   Michael Atanasov       : Ab Initio Ligand Field Theory (pilot matlab implementation)
   Alexander A. Auer      : GIAO ZORA, VPT2 properties, NMR spectrum
   Ute Becker             : Parallelization
   Giovanni Bistoni       : ED, misc. LED, open-shell LED, HFLD
   Martin Brehm           : Molecular dynamics
   Dmytro Bykov           : SCF Hessian
   Vijay G. Chilkuri      : MRCI spin determinant printing, contributions to CSF-ICE
   Dipayan Datta          : RHF DLPNO-CCSD density
   Achintya Kumar Dutta   : EOM-CC, STEOM-CC
   Dmitry Ganyushin       : Spin-Orbit,Spin-Spin,Magnetic field MRCI
   Miquel Garcia          : C-PCM and meta-GGA Hessian, CC/C-PCM, Gaussian charge scheme
   Yang Guo               : DLPNO-NEVPT2, F12-NEVPT2, CIM, IAO-localization
   Andreas Hansen         : Spin unrestricted coupled pair/coupled cluster methods
   Benjamin Helmich-Paris : MC-RPA, TRAH-SCF, COSX integrals
   Lee Huntington         : MR-EOM, pCC
   Robert Izsak           : Overlap fitted RIJCOSX, COSX-SCS-MP3, EOM
   Marcus Kettner         : VPT2
   Christian Kollmar      : KDIIS, OOCD, Brueckner-CCSD(T), CCSD density, CASPT2, CASPT2-K
   Simone Kossmann        : Meta GGA functionals, TD-DFT gradient, OOMP2, MP2 Hessian
   Martin Krupicka        : Initial AUTO-CI
   Lucas Lang             : DCDCAS
   Marvin Lechner         : AUTO-CI (C++ implementation), FIC-MRCC
   Dagmar Lenk            : GEPOL surface, SMD
   Dimitrios Liakos       : Extrapolation schemes; Compound Job, initial MDCI parallelization
   Dimitrios Manganas     : Further ROCIS development; embedding schemes
   Dimitrios Pantazis     : SARC Basis sets
   Anastasios Papadopoulos: AUTO-CI, single reference methods and gradients
   Taras Petrenko         : DFT Hessian,TD-DFT gradient, ASA, ECA, R-Raman, ABS, FL, XAS/XES, NRVS
   Peter Pinski           : DLPNO-MP2, DLPNO-MP2 Gradient
   Christoph Reimann      : Effective Core Potentials
   Marius Retegan         : Local ZFS, SOC
   Christoph Riplinger    : Optimizer, TS searches, QM/MM, DLPNO-CCSD(T), (RO)-DLPNO pert. Triples
   Tobias Risthaus        : Range-separated hybrids, TD-DFT gradient, RPA, STAB
   Michael Roemelt        : Original ROCIS implementation
   Masaaki Saitow         : Open-shell DLPNO-CCSD energy and density
   Barbara Sandhoefer     : DKH picture change effects
   Avijit Sen             : IP-ROCIS
   Kantharuban Sivalingam : CASSCF convergence, NEVPT2, FIC-MRCI
   Bernardo de Souza      : ESD, SOC TD-DFT
   Georgi Stoychev        : AutoAux, RI-MP2 NMR, DLPNO-MP2 response
   Willem Van den Heuvel  : Paramagnetic NMR
   Boris Wezisla          : Elementary symmetry handling
   Frank Wennmohs         : Technical directorship


 We gratefully acknowledge several colleagues who have allowed us to
 interface, adapt or use parts of their codes:
   Stefan Grimme, W. Hujo, H. Kruse, P. Pracht,  : VdW corrections, initial TS optimization,
                  C. Bannwarth, S. Ehlert          DFT functionals, gCP, sTDA/sTD-DF
   Ed Valeev, F. Pavosevic, A. Kumar             : LibInt (2-el integral package), F12 methods
   Garnet Chan, S. Sharma, J. Yang, R. Olivares  : DMRG
   Ulf Ekstrom                                   : XCFun DFT Library
   Mihaly Kallay                                 : mrcc  (arbitrary order and MRCC methods)
   Jiri Pittner, Ondrej Demel                    : Mk-CCSD
   Frank Weinhold                                : gennbo (NPA and NBO analysis)
   Christopher J. Cramer and Donald G. Truhlar   : smd solvation model
   Lars Goerigk                                  : TD-DFT with DH, B97 family of functionals
   V. Asgeirsson, H. Jonsson                     : NEB implementation
   FAccTs GmbH                                   : IRC, NEB, NEB-TS, DLPNO-Multilevel, CI-OPT
                                                   MM, QMMM, 2- and 3-layer-ONIOM, Crystal-QMMM,
                                                   LR-CPCM, SF, NACMEs, symmetry and pop. for TD-DFT,
                                                   nearIR, NL-DFT gradient (VV10), updates on ESD,
                                                   ML-optimized integration grids
   S Lehtola, MJT Oliveira, MAL Marques          : LibXC Library
   Liviu Ungur et al                             : ANISO software


 Your calculation uses the libint2 library for the computation of 2-el integrals
 For citations please refer to: http://libint.valeyev.net

 Your ORCA version has been built with support for libXC version: 5.1.0
 For citations please refer to: https://tddft.org/programs/libxc/

 This ORCA versions uses:
   CBLAS   interface :  Fast vector & matrix operations
   LAPACKE interface :  Fast linear algebra routines
   Shared memory     :  Shared parallel matrices


================================================================================

----- Orbital basis set information -----
Your calculation utilizes the basis: def2-SVP
   F. Weigend and R. Ahlrichs, Phys. Chem. Chem. Phys. 7, 3297 (2005).

----- AuxJ basis set information -----
Your calculation utilizes the auxiliary basis: def2/J
   F. Weigend, Phys. Chem. Chem. Phys. 8, 1057 (2006).

================================================================================
                                        WARNINGS
                       Please study these warnings very carefully!
================================================================================

WARNING: Old DensityContainer found on disk!
         Will remove this file - 
         If you want to keep old densities, please start your calculation with a different basename. 


WARNING: Geometry Optimization
  ===> : Switching off AutoStart
         For restart on a previous wavefunction, please use MOREAD

INFO   : the flag for use of the SHARK integral package has been found!

================================================================================
                                       INPUT FILE
================================================================================
NAME = testh2o.inp
|  1> !B3LYP DEF2-SVP OPT FREQ
|  2> 
|  3> * xyz 0 1
|  4> O 0 0 0
|  5> H -1 1 0
|  6> H 1 0 0
|  7> **                         ****END OF INPUT****
================================================================================

                       *****************************
                       * Geometry Optimization Run *
                       *****************************

Geometry optimization settings:
Update method            Update   .... BFGS
Choice of coordinates    CoordSys .... Z-matrix Internals
Initial Hessian          InHess   .... Almoef's Model

Convergence Tolerances:
Energy Change            TolE     ....  5.0000e-06 Eh
Max. Gradient            TolMAXG  ....  3.0000e-04 Eh/bohr
RMS Gradient             TolRMSG  ....  1.0000e-04 Eh/bohr
Max. Displacement        TolMAXD  ....  4.0000e-03 bohr
RMS Displacement         TolRMSD  ....  2.0000e-03 bohr
Strict Convergence                ....  False
------------------------------------------------------------------------------
                        ORCA OPTIMIZATION COORDINATE SETUP
------------------------------------------------------------------------------

The optimization will be done in new redundant internal coordinates
Making redundant internal coordinates   ...  (new redundants) done
Evaluating the initial hessian          ...  (Almloef) done
Evaluating the coordinates              ...  done
Calculating the B-matrix                .... done
Calculating the G-matrix                .... done
Diagonalizing the G-matrix              .... done
The first mode is                       ....    0
The number of degrees of freedom        ....    3

    -----------------------------------------------------------------
                    Redundant Internal Coordinates


    -----------------------------------------------------------------
         Definition                    Initial Value    Approx d2E/dq
    -----------------------------------------------------------------
      1. B(H   1,O   0)                  1.4142         0.098016   
      2. B(H   2,O   0)                  1.0000         0.448900   
      3. A(H   1,O   0,H   2)          135.0000         0.243377   
    -----------------------------------------------------------------

Number of atoms                         .... 3
Number of degrees of freedom            .... 3

         *************************************************************
         *                GEOMETRY OPTIMIZATION CYCLE   1            *
         *************************************************************
---------------------------------
CARTESIAN COORDINATES (ANGSTROEM)
---------------------------------
  O      0.000000    0.000000    0.000000
  H     -1.000000    1.000000    0.000000
  H      1.000000    0.000000    0.000000

----------------------------
CARTESIAN COORDINATES (A.U.)
----------------------------
  NO LB      ZA    FRAG     MASS         X           Y           Z
   0 O     8.0000    0    15.999    0.000000    0.000000    0.000000
   1 H     1.0000    0     1.008   -1.889726    1.889726    0.000000
   2 H     1.0000    0     1.008    1.889726    0.000000    0.000000

--------------------------------
INTERNAL COORDINATES (ANGSTROEM)
--------------------------------
 O      0   0   0     0.000000000000     0.00000000     0.00000000
 H      1   0   0     1.414213562373     0.00000000     0.00000000
 H      1   2   0     1.000000000000   135.00000000     0.00000000

---------------------------
INTERNAL COORDINATES (A.U.)
---------------------------
 O      0   0   0     0.000000000000     0.00000000     0.00000000
 H      1   0   0     2.672476327762     0.00000000     0.00000000
 H      1   2   0     1.889726133921   135.00000000     0.00000000

---------------------
BASIS SET INFORMATION
---------------------
There are 2 groups of distinct atoms

 Group   1 Type O   : 7s4p1d contracted to 3s2p1d pattern {511/31/1}
 Group   2 Type H   : 4s1p contracted to 2s1p pattern {31/1}

Atom   0O    basis set group =>   1
Atom   1H    basis set group =>   2
Atom   2H    basis set group =>   2
---------------------------------
AUXILIARY/J BASIS SET INFORMATION
---------------------------------
There are 2 groups of distinct atoms

 Group   1 Type O   : 12s5p4d2f1g contracted to 6s4p3d1f1g pattern {711111/2111/211/2/1}
 Group   2 Type H   : 5s2p1d contracted to 3s1p1d pattern {311/2/1}

Atom   0O    basis set group =>   1
Atom   1H    basis set group =>   2
Atom   2H    basis set group =>   2
------------------------------------------------------------------------------
                           ORCA GTO INTEGRAL CALCULATION
                           -- RI-GTO INTEGRALS CHOSEN --
------------------------------------------------------------------------------
------------------------------------------------------------------------------
                   ___                                                        
                  /   \      - P O W E R E D   B Y -                         
                 /     \                                                     
                 |  |  |   _    _      __       _____    __    __             
                 |  |  |  | |  | |    /  \     |  _  \  |  |  /  |          
                  \  \/   | |  | |   /    \    | | | |  |  | /  /          
                 / \  \   | |__| |  /  /\  \   | |_| |  |  |/  /          
                |  |  |   |  __  | /  /__\  \  |    /   |      \           
                |  |  |   | |  | | |   __   |  |    \   |  |\   \          
                \     /   | |  | | |  |  |  |  | |\  \  |  | \   \       
                 \___/    |_|  |_| |__|  |__|  |_| \__\ |__|  \__/        
                                                                              
                      - O R C A' S   B I G   F R I E N D -                    
                                      &                                       
                       - I N T E G R A L  F E E D E R -                       
                                                                              
 v1 FN, 2020, v2 2021                                                         
------------------------------------------------------------------------------


Reading SHARK input file testh2o.SHARKINP.tmp ... ok
----------------------
SHARK INTEGRAL PACKAGE
----------------------

Number of atoms                             ...      3
Number of basis functions                   ...     24
Number of shells                            ...     12
Maximum angular momentum                    ...      2
Integral batch strategy                     ... SHARK/LIBINT Hybrid
RI-J (if used) integral strategy            ... SPLIT-RIJ (Revised 2003 algorithm where possible)
Printlevel                                  ...      1
Contraction scheme used                     ... SEGMENTED contraction
Coulomb Range Separation                    ... NOT USED
Exchange Range Separation                   ... NOT USED
Finite Nucleus Model                        ... NOT USED
Auxiliary Coulomb fitting basis             ... AVAILABLE
   # of basis functions in Aux-J            ...     71
   # of shells in Aux-J                     ...     25
   Maximum angular momentum in Aux-J        ...      4
Auxiliary J/K fitting basis                 ... NOT available
Auxiliary Correlation fitting basis         ... NOT available
Auxiliary 'external' fitting basis          ... NOT available
Integral threshold                          ...     2.500000e-11
Primitive cut-off                           ...     2.500000e-12
Primitive pair pre-selection threshold      ...     2.500000e-12

Calculating pre-screening integrals         ... done (  0.1 sec) Dimension = 12
Organizing shell pair data                  ... done (  0.0 sec)
Shell pair information
Total number of shell pairs                 ...        78
Shell pairs after pre-screening             ...        78
Total number of primitive shell pairs       ...       272
Primitive shell pairs kept                  ...       259
          la=0 lb=0:     28 shell pairs
          la=1 lb=0:     28 shell pairs
          la=1 lb=1:     10 shell pairs
          la=2 lb=0:      7 shell pairs
          la=2 lb=1:      4 shell pairs
          la=2 lb=2:      1 shell pairs

Calculating one electron integrals          ... done (  0.0 sec)
Calculating RI/J V-Matrix + Cholesky decomp.... done (  0.0 sec)
Calculating Nuclear repulsion               ... done (  0.0 sec) ENN=      7.463551247887 Eh

SHARK setup successfully completed in   0.2 seconds

Maximum memory used throughout the entire GTOINT-calculation: 8.7 MB
-------------------------------------------------------------------------------
                                 ORCA SCF
-------------------------------------------------------------------------------

------------
SCF SETTINGS
------------
Hamiltonian:
 Density Functional     Method          .... DFT(GTOs)
 Exchange Functional    Exchange        .... B88
   X-Alpha parameter    XAlpha          ....  0.666667
   Becke's b parameter  XBeta           ....  0.004200
 Correlation Functional Correlation     .... LYP
 LDA part of GGA corr.  LDAOpt          .... VWN-5
 Gradients option       PostSCFGGA      .... off
 Hybrid DFT is turned on
   Fraction HF Exchange ScalHFX         ....  0.200000
   Scaling of DF-GGA-X  ScalDFX         ....  0.720000
   Scaling of DF-GGA-C  ScalDFC         ....  0.810000
   Scaling of DF-LDA-C  ScalLDAC        ....  1.000000
   Perturbative correction              ....  0.000000
   Density functional embedding theory  .... OFF
   NL short-range parameter             ....  4.800000
 RI-approximation to the Coulomb term is turned on
   Number of AuxJ basis functions       .... 71
   RIJ-COSX (HFX calculated with COS-X)).... on


General Settings:
 Integral files         IntName         .... testh2o
 Hartree-Fock type      HFTyp           .... RHF
 Total Charge           Charge          ....    0
 Multiplicity           Mult            ....    1
 Number of Electrons    NEL             ....   10
 Basis Dimension        Dim             ....   24
 Nuclear Repulsion      ENuc            ....      7.4635512479 Eh

Convergence Acceleration:
 DIIS                   CNVDIIS         .... on
   Start iteration      DIISMaxIt       ....    12
   Startup error        DIISStart       ....  0.200000
   # of expansion vecs  DIISMaxEq       ....     5
   Bias factor          DIISBfac        ....   1.050
   Max. coefficient     DIISMaxC        ....  10.000
 Trust-Rad. Augm. Hess. CNVTRAH         .... auto
   Auto Start mean grad. ratio tolernc. ....  1.125000
   Auto Start start iteration           ....    20
   Auto Start num. interpolation iter.  ....    10
   Max. Number of Micro iterations      ....    16
   Max. Number of Macro iterations      .... Maxiter - #DIIS iter
   Number of Davidson start vectors     ....     2
   Converg. threshold I  (grad. norm)   ....   1.000e-05
   Converg. threshold II (energy diff.) ....   1.000e-08
   Grad. Scal. Fac. for Micro threshold ....   0.100
   Minimum threshold for Micro iter.    ....   0.010
   NR start threshold (gradient norm)   ....   0.001
   Initial trust radius                 ....   0.400
   Minimum AH scaling param. (alpha)    ....   1.000
   Maximum AH scaling param. (alpha)    .... 1000.000
   Orbital update algorithm             .... Taylor
   White noise on init. David. guess    .... on
   Maximum white noise                  ....   0.010
   Quad. conv. algorithm                .... NR
 SOSCF                  CNVSOSCF        .... on
   Start iteration      SOSCFMaxIt      ....   150
   Startup grad/error   SOSCFStart      ....  0.003300
 Level Shifting         CNVShift        .... on
   Level shift para.    LevelShift      ....    0.2500
   Turn off err/grad.   ShiftErr        ....    0.0010
 Zerner damping         CNVZerner       .... off
 Static damping         CNVDamp         .... on
   Fraction old density DampFac         ....    0.7000
   Max. Damping (<1)    DampMax         ....    0.9800
   Min. Damping (>=0)   DampMin         ....    0.0000
   Turn off err/grad.   DampErr         ....    0.1000
 Fernandez-Rico         CNVRico         .... off

SCF Procedure:
 Maximum # iterations   MaxIter         ....   125
 SCF integral mode      SCFMode         .... Direct
   Integral package                     .... SHARK and LIBINT hybrid scheme
 Reset frequency        DirectResetFreq ....    20
 Integral Threshold     Thresh          ....  2.500e-11 Eh
 Primitive CutOff       TCut            ....  2.500e-12 Eh

Convergence Tolerance:
 Convergence Check Mode ConvCheckMode   .... Total+1el-Energy
 Convergence forced     ConvForced      .... 0
 Energy Change          TolE            ....  1.000e-08 Eh
 1-El. energy change                    ....  1.000e-05 Eh
 Orbital Gradient       TolG            ....  1.000e-05
 Orbital Rotation angle TolX            ....  1.000e-05
 DIIS Error             TolErr          ....  5.000e-07


Diagonalization of the overlap matrix:
Smallest eigenvalue                        ... 5.668e-02
Time for diagonalization                   ...    0.005 sec
Threshold for overlap eigenvalues          ... 1.000e-08
Number of eigenvalues below threshold      ... 0
Time for construction of square roots      ...    0.003 sec
Total time needed                          ...    0.008 sec

Time for model grid setup =    0.018 sec

------------------------------
INITIAL GUESS: MODEL POTENTIAL
------------------------------
Loading Hartree-Fock densities                     ... done
Calculating cut-offs                               ... done
Initializing the effective Hamiltonian             ... done
Setting up the integral package (SHARK)            ... done
Starting the Coulomb interaction                   ... done (   0.0 sec)
Reading the grid                                   ... done
Mapping shells                                     ... done
Starting the XC term evaluation                    ... done (   0.0 sec)
  promolecular density results
     # of electrons  =      9.998535133
     EX              =     -8.703668951
     EC              =     -0.327608752
     EX+EC           =     -9.031277703
Transforming the Hamiltonian                       ... done (   0.0 sec)
Diagonalizing the Hamiltonian                      ... done (   0.0 sec)
Back transforming the eigenvectors                 ... done (   0.0 sec)
Now organizing SCF variables                       ... done
                      ------------------
                      INITIAL GUESS DONE (   0.1 sec)
                      ------------------
-------------------
DFT GRID GENERATION
-------------------

General Integration Accuracy     IntAcc      ... 4.388
Radial Grid Type                 RadialGrid  ... OptM3 with GC (2021)
Angular Grid (max. ang.)         AngularGrid ... 4 (Lebedev-302)
Angular grid pruning method      GridPruning ... 4 (adaptive)
Weight generation scheme         WeightScheme... Becke
Basis function cutoff            BFCut       ... 1.0000e-11
Integration weight cutoff        WCut        ... 1.0000e-14
Angular grids for H and He will be reduced by one unit
Partially contracted basis set               ... off
Rotationally invariant grid construction     ... off

Total number of grid points                  ...    12764
Total number of batches                      ...      201
Average number of points per batch           ...       63
Average number of grid points per atom       ...     4255
Time for grid setup =    0.116 sec

--------------------
COSX GRID GENERATION
--------------------

GRIDX 1
-------
General Integration Accuracy     IntAcc      ... 3.816
Radial Grid Type                 RadialGrid  ... OptM3 with GC (2021)
Angular Grid (max. ang.)         AngularGrid ... 1 (Lebedev-50)
Angular grid pruning method      GridPruning ... 4 (adaptive)
Weight generation scheme         WeightScheme... Becke
Basis function cutoff            BFCut       ... 1.0000e-11
Integration weight cutoff        WCut        ... 1.0000e-14
Angular grids for H and He will be reduced by one unit
Partially contracted basis set               ... on
Rotationally invariant grid construction     ... off

Total number of grid points                  ...     1650
Total number of batches                      ...       27
Average number of points per batch           ...       61
Average number of grid points per atom       ...      550
UseSFitting                                  ... on

GRIDX 2
-------
General Integration Accuracy     IntAcc      ... 4.020
Radial Grid Type                 RadialGrid  ... OptM3 with GC (2021)
Angular Grid (max. ang.)         AngularGrid ... 2 (Lebedev-110)
Angular grid pruning method      GridPruning ... 4 (adaptive)
Weight generation scheme         WeightScheme... Becke
Basis function cutoff            BFCut       ... 1.0000e-11
Integration weight cutoff        WCut        ... 1.0000e-14
Angular grids for H and He will be reduced by one unit
Partially contracted basis set               ... on
Rotationally invariant grid construction     ... off

Total number of grid points                  ...     3500
Total number of batches                      ...       56
Average number of points per batch           ...       62
Average number of grid points per atom       ...     1167
UseSFitting                                  ... on

GRIDX 3
-------
General Integration Accuracy     IntAcc      ... 4.338
Radial Grid Type                 RadialGrid  ... OptM3 with GC (2021)
Angular Grid (max. ang.)         AngularGrid ... 3 (Lebedev-194)
Angular grid pruning method      GridPruning ... 4 (adaptive)
Weight generation scheme         WeightScheme... Becke
Basis function cutoff            BFCut       ... 1.0000e-11
Integration weight cutoff        WCut        ... 1.0000e-14
Angular grids for H and He will be reduced by one unit
Partially contracted basis set               ... on
Rotationally invariant grid construction     ... off

Total number of grid points                  ...     7783
Total number of batches                      ...      123
Average number of points per batch           ...       63
Average number of grid points per atom       ...     2594
UseSFitting                                  ... on

Time for X-Grid setup             =    0.226 sec

--------------
SCF ITERATIONS
--------------
ITER       Energy         Delta-E        Max-DP      RMS-DP      [F,P]     Damp
               ***  Starting incremental Fock matrix formation  ***
  0    -76.0729982546   0.000000000000 0.12983552  0.01177103  0.3434413 0.7000
  1    -76.1477799430  -0.074781688358 0.08274398  0.00696510  0.1231346 0.7000
                               ***Turning on DIIS***
  2    -76.1676372545  -0.019857311507 0.09458589  0.00836794  0.0223214 0.0000
  3    -76.2037607398  -0.036123485353 0.01372936  0.00122746  0.1029857 0.7000
  4    -76.2074989584  -0.003738218583 0.04981181  0.00448018  0.0796131 0.0000
  5    -76.2140168293  -0.006517870892 0.00618129  0.00064223  0.0077991 0.0000
                      *** Initiating the SOSCF procedure ***
                           *** Shutting down DIIS ***
                      *** Re-Reading the Fockian *** 
                      *** Removing any level shift *** 
ITER      Energy       Delta-E        Grad      Rot      Max-DP    RMS-DP
  6    -76.21412455  -0.0001077203  0.000824  0.000824  0.001462  0.000189
               *** Restarting incremental Fock matrix formation ***
  7    -76.21402739   0.0000971608  0.000414  0.001175  0.001193  0.000158
  8    -76.21402927  -0.0000018847  0.000554  0.001761  0.001534  0.000159
  9    -76.21402993  -0.0000006563  0.000298  0.000978  0.000640  0.000085
 10    -76.21403047  -0.0000005367  0.000031  0.000037  0.000083  0.000009
 11    -76.21403047  -0.0000000071  0.000015  0.000017  0.000033  0.000003
                 **** Energy Check signals convergence ****
              ***Rediagonalizing the Fockian in SOSCF/NRSCF***

               *****************************************************
               *                     SUCCESS                       *
               *           SCF CONVERGED AFTER  12 CYCLES          *
               *****************************************************

Old exchange energy                            =     -1.753284623 Eh
New exchange energy                            =     -1.753352152 Eh
Exchange energy change after final integration =     -0.000067530 Eh
Total energy after final integration           =    -76.214098006 Eh
Final COS-X integration done in                =     0.720 sec

----------------
TOTAL SCF ENERGY
----------------

Total Energy       :          -76.21409801 Eh           -2073.89104 eV

Components:
Nuclear Repulsion  :            7.46355125 Eh             203.09355 eV
Electronic Energy  :          -83.67764925 Eh           -2276.98460 eV
One Electron Energy:         -119.95942427 Eh           -3264.26189 eV
Two Electron Energy:           36.28177501 Eh             987.27729 eV
Max COSX asymmetry :            0.00000539 Eh               0.00015 eV

Virial components:
Potential Energy   :         -151.63187466 Eh           -4126.11308 eV
Kinetic Energy     :           75.41777666 Eh            2052.22204 eV
Virial Ratio       :            2.01055880


DFT components:
N(Alpha)           :        5.000001505816 electrons
N(Beta)            :        5.000001505816 electrons
N(Total)           :       10.000003011632 electrons
E(X)               :       -7.008043802674 Eh       
E(C)               :       -0.395047931370 Eh       
E(XC)              :       -7.403091734043 Eh       
DFET-embed. en.    :        0.000000000000 Eh       

---------------
SCF CONVERGENCE
---------------

  Last Energy change         ...   -2.2502e-09  Tolerance :   1.0000e-08
  Last MAX-Density change    ...    4.4409e-16  Tolerance :   1.0000e-07
  Last RMS-Density change    ...    4.5093e-17  Tolerance :   5.0000e-09
  Last Orbital Gradient      ...    4.2826e-07  Tolerance :   1.0000e-05
  Last Orbital Rotation      ...    1.4335e-06  Tolerance :   1.0000e-05

             **** THE GBW FILE WAS UPDATED (testh2o.gbw) ****
             **** DENSITY testh2o.scfp WAS UPDATED ****
             **** ENERGY FILE WAS UPDATED (testh2o.en.tmp) ****
             **** THE GBW FILE WAS UPDATED (testh2o.gbw) ****
             **** DENSITY testh2o.scfp WAS UPDATED ****
----------------
ORBITAL ENERGIES
----------------

  NO   OCC          E(Eh)            E(eV) 
   0   2.0000     -19.119223      -520.2605 
   1   2.0000      -0.901723       -24.5371 
   2   2.0000      -0.463114       -12.6020 
   3   2.0000      -0.294648        -8.0178 
   4   2.0000      -0.264671        -7.2021 
   5   0.0000      -0.069194        -1.8829 
   6   0.0000       0.094097         2.5605 
   7   0.0000       0.412927        11.2363 
   8   0.0000       0.590619        16.0716 
   9   0.0000       0.915288        24.9062 
  10   0.0000       0.920577        25.0502 
  11   0.0000       1.057941        28.7880 
  12   0.0000       1.091880        29.7116 
  13   0.0000       1.330562        36.2064 
  14   0.0000       1.386643        37.7325 
  15   0.0000       1.530130        41.6370 
  16   0.0000       1.560643        42.4673 
  17   0.0000       1.888666        51.3932 
  18   0.0000       2.162006        58.8312 
  19   0.0000       2.692194        73.2583 
  20   0.0000       2.746746        74.7428 
  21   0.0000       2.972052        80.8737 
  22   0.0000       3.219709        87.6127 
  23   0.0000       3.672738        99.9403 

                    ********************************
                    * MULLIKEN POPULATION ANALYSIS *
                    ********************************

-----------------------
MULLIKEN ATOMIC CHARGES
-----------------------
   0 O :   -0.462833
   1 H :    0.261755
   2 H :    0.201078
Sum of atomic charges:   -0.0000000

--------------------------------
MULLIKEN REDUCED ORBITAL CHARGES
--------------------------------
  0 O s       :     3.803519  s :     3.803519
      pz      :     1.977484  p :     4.654480
      px      :     1.198811
      py      :     1.478185
      dz2     :     0.001312  d :     0.004835
      dxz     :     0.000380
      dyz     :     0.000247
      dx2y2   :     0.002203
      dxy     :     0.000694
  1 H s       :     0.718684  s :     0.718684
      pz      :     0.003736  p :     0.019562
      px      :     0.007666
      py      :     0.008160
  2 H s       :     0.736481  s :     0.736481
      pz      :     0.018154  p :     0.062441
      px      :     0.032552
      py      :     0.011735


                     *******************************
                     * LOEWDIN POPULATION ANALYSIS *
                     *******************************

----------------------
LOEWDIN ATOMIC CHARGES
----------------------
   0 O :   -0.324236
   1 H :    0.229987
   2 H :    0.094248

-------------------------------
LOEWDIN REDUCED ORBITAL CHARGES
-------------------------------
  0 O s       :     3.599352  s :     3.599352
      pz      :     1.944989  p :     4.716053
      px      :     1.297675
      py      :     1.473388
      dz2     :     0.002111  d :     0.008831
      dxz     :     0.000092
      dyz     :     0.000225
      dx2y2   :     0.005347
      dxy     :     0.001056
  1 H s       :     0.728265  s :     0.728265
      pz      :     0.007312  p :     0.041748
      px      :     0.015955
      py      :     0.018482
  2 H s       :     0.737927  s :     0.737927
      pz      :     0.047382  p :     0.167824
      px      :     0.090345
      py      :     0.030098


                      *****************************
                      * MAYER POPULATION ANALYSIS *
                      *****************************

  NA   - Mulliken gross atomic population
  ZA   - Total nuclear charge
  QA   - Mulliken gross atomic charge
  VA   - Mayer's total valence
  BVA  - Mayer's bonded valence
  FA   - Mayer's free valence

  ATOM       NA         ZA         QA         VA         BVA        FA
  0 O      8.4628     8.0000    -0.4628     1.8521     1.8521    -0.0000
  1 H      0.7382     1.0000     0.2618     0.9339     0.9339     0.0000
  2 H      0.7989     1.0000     0.2011     0.9856     0.9856     0.0000

  Mayer bond orders larger than 0.100000
B(  0-O ,  1-H ) :   0.9002 B(  0-O ,  2-H ) :   0.9519 

-------
TIMINGS
-------

Total SCF time: 0 days 0 hours 0 min 9 sec 

Total time                  ....       9.709 sec
Sum of individual times     ....       9.263 sec  ( 95.4%)

Fock matrix formation       ....       8.490 sec  ( 87.4%)
  Split-RI-J                ....       0.790 sec  (  9.3% of F)
  Chain of spheres X        ....       4.278 sec  ( 50.4% of F)
  XC integration            ....       3.202 sec  ( 37.7% of F)
    Basis function eval.    ....       0.615 sec  ( 19.2% of XC)
    Density eval.           ....       0.461 sec  ( 14.4% of XC)
    XC-Functional eval.     ....       0.518 sec  ( 16.2% of XC)
    XC-Potential eval.      ....       0.162 sec  (  5.1% of XC)
Diagonalization             ....       0.007 sec  (  0.1%)
Density matrix formation    ....       0.000 sec  (  0.0%)
Population analysis         ....       0.053 sec  (  0.5%)
Initial guess               ....       0.043 sec  (  0.4%)
Orbital Transformation      ....       0.000 sec  (  0.0%)
Orbital Orthonormalization  ....       0.000 sec  (  0.0%)
DIIS solution               ....       0.259 sec  (  2.7%)
SOSCF solution              ....       0.051 sec  (  0.5%)
Grid generation             ....       0.360 sec  (  3.7%)

Maximum memory used throughout the entire SCF-calculation: 43.4 MB

-------------------------   --------------------
FINAL SINGLE POINT ENERGY       -76.214098005943
-------------------------   --------------------

------------------------------------------------------------------------------
                         ORCA SCF GRADIENT CALCULATION
------------------------------------------------------------------------------

 ... reading COSX grid (gridx3)
Gradient of the Kohn-Sham DFT energy:
Kohn-Sham wavefunction type      ... RKS
Hartree-Fock exchange scaling    ...    0.200
Number of operators              ...    1
Number of atoms                  ...    3
Basis set dimensions             ...   24
Integral neglect threshold       ... 2.5e-11
Integral primitive cutoff        ... 2.5e-12
SHARK Integral package           ... ON

Nuc. rep. gradient       (SHARK) ... done (  0.0 sec)
HCore & Overlap gradient (SHARK) ... done (  0.0 sec)
RI-J gradient            (SHARK) ... done (  0.5 sec)
COSX-gradient                    ... done (  0.5 sec)
Exchange-correlation gradient    ... done

------------------
CARTESIAN GRADIENT
------------------

   1   O   :    0.076418028   -0.023537680   -0.000000006
   2   H   :   -0.104067658    0.063813314   -0.000000000
   3   H   :    0.027610495   -0.040263290   -0.000000000

Difference to translation invariance:
           :   -0.0000391350    0.0000123436   -0.0000000062

Difference to rotation invariance:
           :   -0.0000000002    0.0000000007   -0.0000169043

Norm of the cartesian gradient     ...    0.1538812070
RMS gradient                       ...    0.0512937357
MAX gradient                       ...    0.1040676583

-------
TIMINGS
-------

Total SCF gradient time            ...        1.975 sec

One electron gradient       ....       0.030 sec  (  1.5%)
RI-J Coulomb gradient       ....       0.513 sec  ( 26.0%)
COSX gradient               ....       0.461 sec  ( 23.3%)
XC gradient                 ....       0.479 sec  ( 24.3%)

Maximum memory used throughout the entire SCFGRAD-calculation: 33.0 MB
------------------------------------------------------------------------------
                         ORCA GEOMETRY RELAXATION STEP
------------------------------------------------------------------------------

Reading the OPT-File                    .... done
Getting information on internals        .... done
Copying old internal coords+grads       .... done
Making the new internal coordinates     .... (new redundants).... done
Validating the new internal coordinates .... (new redundants).... done
Calculating the B-matrix                .... done
Calculating the G,G- and P matrices     .... done
Transforming gradient to internals      .... done
Projecting the internal gradient        .... done
Number of atoms                         ....   3
Number of internal coordinates          ....   3
Current Energy                          ....   -76.214098006 Eh
Current gradient norm                   ....     0.153881207 Eh/bohr
Maximum allowed component of the step   ....  0.300
Current trust radius                    ....  0.300
Evaluating the initial hessian          ....  (Almloef) done
Projecting the Hessian                  .... done
Forming the augmented Hessian           .... done
Diagonalizing the augmented Hessian     .... done
Last element of RFO vector              ....  0.832817294
Lowest eigenvalues of augmented Hessian:
 -0.092563886  0.159141666  0.272822939
Length of the computed step             ....  0.664669159
Warning: the length of the step is outside the trust region - taking restricted step instead
The input lambda is                     ....    -0.092564
   iter:   1  x=   -0.172777  g=    4.385627 f(x)=     0.351785
   iter:   2  x=   -0.259490  g=    1.585984 f(x)=     0.137525
   iter:   3  x=   -0.322188  g=    0.711992 f(x)=     0.044640
   iter:   4  x=   -0.342696  g=    0.447088 f(x)=     0.009169
   iter:   5  x=   -0.344251  g=    0.389763 f(x)=     0.000606
   iter:   6  x=   -0.344259  g=    0.385830 f(x)=     0.000003
   iter:   7  x=   -0.344259  g=    0.385810 f(x)=     0.000000
   iter:   8  x=   -0.344259  g=    0.385810 f(x)=    -0.000000
The output lambda is                    ....    -0.344259 (8 iterations)
The final length of the internal step   ....  0.300000000
Converting the step to cartesian space:
 Initial RMS(Int)=    0.1732050808
Transforming coordinates:
 Iter   0:  RMS(Cart)=    0.1006454397 RMS(Int)=    0.1722472339
 Iter   1:  RMS(Cart)=    0.0027177676 RMS(Int)=    0.0063491493
 Iter   2:  RMS(Cart)=    0.0002380053 RMS(Int)=    0.0004561373
 Iter   3:  RMS(Cart)=    0.0000109257 RMS(Int)=    0.0000181194
 Iter   4:  RMS(Cart)=    0.0000009035 RMS(Int)=    0.0000020717
 Iter   5:  RMS(Cart)=    0.0000000603 RMS(Int)=    0.0000001013
done
Storing new coordinates                 .... done

                                .--------------------.
          ----------------------|Geometry convergence|-------------------------
          Item                value                   Tolerance       Converged
          ---------------------------------------------------------------------
          RMS gradient        0.0829454870            0.0001000000      NO
          MAX gradient        0.1186956964            0.0003000000      NO
          RMS step            0.1732050808            0.0020000000      NO
          MAX step            0.2683754514            0.0040000000      NO
          ........................................................
          Max(Bonds)      0.1420      Max(Angles)    7.42
          Max(Dihed)        0.00      Max(Improp)    0.00
          ---------------------------------------------------------------------

The optimization has not yet converged - more geometry cycles are needed


    ---------------------------------------------------------------------------
                         Redundant Internal Coordinates
                            (Angstroem and degrees)

        Definition                    Value    dE/dq     Step     New-Value
    ----------------------------------------------------------------------------
     1. B(H   1,O   0)                1.4142  0.118696 -0.1420    1.2722   
     2. B(H   2,O   0)                1.0000  0.027626 -0.0184    0.9816   
     3. A(H   1,O   0,H   2)          135.00  0.076079   -7.42    127.58   
    ----------------------------------------------------------------------------

         *************************************************************
         *                GEOMETRY OPTIMIZATION CYCLE   2            *
         *************************************************************
---------------------------------
CARTESIAN COORDINATES (ANGSTROEM)
---------------------------------
  O     -0.045802   -0.006578    0.000000
  H     -0.887743    0.947160    0.000000
  H      0.933545    0.059418    0.000000

----------------------------
CARTESIAN COORDINATES (A.U.)
----------------------------
  NO LB      ZA    FRAG     MASS         X           Y           Z
   0 O     8.0000    0    15.999   -0.086554   -0.012431    0.000000
   1 H     1.0000    0     1.008   -1.677590    1.789874    0.000000
   2 H     1.0000    0     1.008    1.764144    0.112284    0.000000

--------------------------------
INTERNAL COORDINATES (ANGSTROEM)
--------------------------------
 O      0   0   0     0.000000000000     0.00000000     0.00000000
 H      1   0   0     1.272195389219     0.00000000     0.00000000
 H      1   2   0     0.981568363998   127.58214704     0.00000000

---------------------------
INTERNAL COORDINATES (A.U.)
---------------------------
 O      0   0   0     0.000000000000     0.00000000     0.00000000
 H      1   0   0     2.404100874461     0.00000000     0.00000000
 H      1   2   0     1.854895389678   127.58214704     0.00000000

------------------------------------------------------------------------------
                   ___                                                        
                  /   \      - P O W E R E D   B Y -                         
                 /     \                                                     
                 |  |  |   _    _      __       _____    __    __             
                 |  |  |  | |  | |    /  \     |  _  \  |  |  /  |          
                  \  \/   | |  | |   /    \    | | | |  |  | /  /          
                 / \  \   | |__| |  /  /\  \   | |_| |  |  |/  /          
                |  |  |   |  __  | /  /__\  \  |    /   |      \           
                |  |  |   | |  | | |   __   |  |    \   |  |\   \          
                \     /   | |  | | |  |  |  |  | |\  \  |  | \   \       
                 \___/    |_|  |_| |__|  |__|  |_| \__\ |__|  \__/        
                                                                              
                      - O R C A' S   B I G   F R I E N D -                    
                                      &                                       
                       - I N T E G R A L  F E E D E R -                       
                                                                              
 v1 FN, 2020, v2 2021                                                         
------------------------------------------------------------------------------


Reading SHARK input file testh2o.SHARKINP.tmp ... ok
----------------------
SHARK INTEGRAL PACKAGE
----------------------

Number of atoms                             ...      3
Number of basis functions                   ...     24
Number of shells                            ...     12
Maximum angular momentum                    ...      2
Integral batch strategy                     ... SHARK/LIBINT Hybrid
RI-J (if used) integral strategy            ... SPLIT-RIJ (Revised 2003 algorithm where possible)
Printlevel                                  ...      1
Contraction scheme used                     ... SEGMENTED contraction
Coulomb Range Separation                    ... NOT USED
Exchange Range Separation                   ... NOT USED
Finite Nucleus Model                        ... NOT USED
Auxiliary Coulomb fitting basis             ... AVAILABLE
   # of basis functions in Aux-J            ...     71
   # of shells in Aux-J                     ...     25
   Maximum angular momentum in Aux-J        ...      4
Auxiliary J/K fitting basis                 ... NOT available
Auxiliary Correlation fitting basis         ... NOT available
Auxiliary 'external' fitting basis          ... NOT available
Integral threshold                          ...     2.500000e-11
Primitive cut-off                           ...     2.500000e-12
Primitive pair pre-selection threshold      ...     2.500000e-12

Calculating pre-screening integrals         ... done (  0.1 sec) Dimension = 12
Organizing shell pair data                  ... done (  0.0 sec)
Shell pair information
Total number of shell pairs                 ...        78
Shell pairs after pre-screening             ...        78
Total number of primitive shell pairs       ...       272
Primitive shell pairs kept                  ...       263
          la=0 lb=0:     28 shell pairs
          la=1 lb=0:     28 shell pairs
          la=1 lb=1:     10 shell pairs
          la=2 lb=0:      7 shell pairs
          la=2 lb=1:      4 shell pairs
          la=2 lb=2:      1 shell pairs

Calculating one electron integrals          ... done (  0.0 sec)
Calculating RI/J V-Matrix + Cholesky decomp.... done (  0.0 sec)
Calculating Nuclear repulsion               ... done (  0.0 sec) ENN=      7.901736309313 Eh

SHARK setup successfully completed in   0.2 seconds

Maximum memory used throughout the entire GTOINT-calculation: 8.7 MB

Diagonalization of the overlap matrix:
Smallest eigenvalue                        ... 5.313e-02
Time for diagonalization                   ...    0.005 sec
Threshold for overlap eigenvalues          ... 1.000e-08
Number of eigenvalues below threshold      ... 0
Time for construction of square roots      ...    0.003 sec
Total time needed                          ...    0.008 sec

-------------------
DFT GRID GENERATION
-------------------

General Integration Accuracy     IntAcc      ... 4.388
Radial Grid Type                 RadialGrid  ... OptM3 with GC (2021)
Angular Grid (max. ang.)         AngularGrid ... 4 (Lebedev-302)
Angular grid pruning method      GridPruning ... 4 (adaptive)
Weight generation scheme         WeightScheme... Becke
Basis function cutoff            BFCut       ... 1.0000e-11
Integration weight cutoff        WCut        ... 1.0000e-14
Angular grids for H and He will be reduced by one unit
Partially contracted basis set               ... off
Rotationally invariant grid construction     ... off

Total number of grid points                  ...    12758
Total number of batches                      ...      201
Average number of points per batch           ...       63
Average number of grid points per atom       ...     4253
Time for grid setup =    0.122 sec

--------------------
COSX GRID GENERATION
--------------------

GRIDX 1
-------
General Integration Accuracy     IntAcc      ... 3.816
Radial Grid Type                 RadialGrid  ... OptM3 with GC (2021)
Angular Grid (max. ang.)         AngularGrid ... 1 (Lebedev-50)
Angular grid pruning method      GridPruning ... 4 (adaptive)
Weight generation scheme         WeightScheme... Becke
Basis function cutoff            BFCut       ... 1.0000e-11
Integration weight cutoff        WCut        ... 1.0000e-14
Angular grids for H and He will be reduced by one unit
Partially contracted basis set               ... on
Rotationally invariant grid construction     ... off

Total number of grid points                  ...     1652
Total number of batches                      ...       27
Average number of points per batch           ...       61
Average number of grid points per atom       ...      551
UseSFitting                                  ... on

GRIDX 2
-------
General Integration Accuracy     IntAcc      ... 4.020
Radial Grid Type                 RadialGrid  ... OptM3 with GC (2021)
Angular Grid (max. ang.)         AngularGrid ... 2 (Lebedev-110)
Angular grid pruning method      GridPruning ... 4 (adaptive)
Weight generation scheme         WeightScheme... Becke
Basis function cutoff            BFCut       ... 1.0000e-11
Integration weight cutoff        WCut        ... 1.0000e-14
Angular grids for H and He will be reduced by one unit
Partially contracted basis set               ... on
Rotationally invariant grid construction     ... off

Total number of grid points                  ...     3502
Total number of batches                      ...       56
Average number of points per batch           ...       62
Average number of grid points per atom       ...     1167
UseSFitting                                  ... on

GRIDX 3
-------
General Integration Accuracy     IntAcc      ... 4.338
Radial Grid Type                 RadialGrid  ... OptM3 with GC (2021)
Angular Grid (max. ang.)         AngularGrid ... 3 (Lebedev-194)
Angular grid pruning method      GridPruning ... 4 (adaptive)
Weight generation scheme         WeightScheme... Becke
Basis function cutoff            BFCut       ... 1.0000e-11
Integration weight cutoff        WCut        ... 1.0000e-14
Angular grids for H and He will be reduced by one unit
Partially contracted basis set               ... on
Rotationally invariant grid construction     ... off

Total number of grid points                  ...     7788
Total number of batches                      ...      123
Average number of points per batch           ...       63
Average number of grid points per atom       ...     2596
UseSFitting                                  ... on

Time for X-Grid setup             =    0.212 sec

--------------
SCF ITERATIONS
--------------
ITER       Energy         Delta-E        Max-DP      RMS-DP      [F,P]     Damp
               ***  Starting incremental Fock matrix formation  ***
  0    -76.2541103680   0.000000000000 0.00868024  0.00098186  0.0262610 0.7000
                      *** Initiating the SOSCF procedure ***
                      *** Re-Reading the Fockian *** 
                      *** Removing any level shift *** 
ITER      Energy       Delta-E        Grad      Rot      Max-DP    RMS-DP
  1    -76.25487104  -0.0007606736  0.002934  0.002934  0.023193  0.002719
               *** Restarting incremental Fock matrix formation ***
  2    -76.25648782  -0.0016167799  0.007606  0.007326  0.015695  0.001598
  3    -76.25627747   0.0002103511  0.010945  0.007343  0.011800  0.001061
  4    -76.25666578  -0.0003883133  0.000308  0.000552  0.000858  0.000081
  5    -76.25666654  -0.0000007521  0.000135  0.000194  0.000249  0.000029
  6    -76.25666672  -0.0000001854  0.000008  0.000014  0.000014  0.000002
                 **** Energy Check signals convergence ****
              ***Rediagonalizing the Fockian in SOSCF/NRSCF***

               *****************************************************
               *                     SUCCESS                       *
               *           SCF CONVERGED AFTER   7 CYCLES          *
               *****************************************************

Old exchange energy                            =     -1.763527759 Eh
New exchange energy                            =     -1.763522443 Eh
Exchange energy change after final integration =      0.000005316 Eh
Total energy after final integration           =    -76.256661405 Eh
Final COS-X integration done in                =     0.462 sec
Total Energy       :          -76.25666140 Eh           -2075.04925 eV
  Last Energy change         ...    3.4441e-10  Tolerance :   1.0000e-08
  Last MAX-Density change    ...    5.4123e-16  Tolerance :   1.0000e-07
             **** THE GBW FILE WAS UPDATED (testh2o.gbw) ****
             **** DENSITY testh2o.scfp WAS UPDATED ****
             **** ENERGY FILE WAS UPDATED (testh2o.en.tmp) ****
             **** THE GBW FILE WAS UPDATED (testh2o.gbw) ****
             **** DENSITY testh2o.scfp WAS UPDATED ****
Total SCF time: 0 days 0 hours 0 min 5 sec 

Maximum memory used throughout the entire SCF-calculation: 43.4 MB

-------------------------   --------------------
FINAL SINGLE POINT ENERGY       -76.256661404638
-------------------------   --------------------

------------------------------------------------------------------------------
                         ORCA SCF GRADIENT CALCULATION
------------------------------------------------------------------------------

 ... reading COSX grid (gridx3)
Gradient of the Kohn-Sham DFT energy:
Kohn-Sham wavefunction type      ... RKS
Hartree-Fock exchange scaling    ...    0.200
Number of operators              ...    1
Number of atoms                  ...    3
Basis set dimensions             ...   24
Integral neglect threshold       ... 2.5e-11
Integral primitive cutoff        ... 2.5e-12
SHARK Integral package           ... ON

Nuc. rep. gradient       (SHARK) ... done (  0.0 sec)
HCore & Overlap gradient (SHARK) ... done (  0.0 sec)
RI-J gradient            (SHARK) ... done (  0.1 sec)
COSX-gradient                    ... done (  0.4 sec)
Exchange-correlation gradient    ... done

------------------
CARTESIAN GRADIENT
------------------

   1   O   :    0.083914390   -0.041723481   -0.000000023
   2   H   :   -0.100921917    0.074711496   -0.000000000
   3   H   :    0.017016943   -0.032907372   -0.000000000

Difference to translation invariance:
           :    0.0000094156    0.0000806424   -0.0000000233

Difference to rotation invariance:
           :   -0.0000000000   -0.0000000018   -0.0000073426

Norm of the cartesian gradient     ...    0.1610030625
RMS gradient                       ...    0.0536676875
MAX gradient                       ...    0.1009219171

-------
TIMINGS
-------

Total SCF gradient time            ...        1.242 sec

One electron gradient       ....       0.022 sec  (  1.8%)
RI-J Coulomb gradient       ....       0.144 sec  ( 11.6%)
COSX gradient               ....       0.373 sec  ( 30.0%)
XC gradient                 ....       0.230 sec  ( 18.5%)

Maximum memory used throughout the entire SCFGRAD-calculation: 33.0 MB
------------------------------------------------------------------------------
                         ORCA GEOMETRY RELAXATION STEP
------------------------------------------------------------------------------

Reading the OPT-File                    .... done
Getting information on internals        .... done
Copying old internal coords+grads       .... done
Making the new internal coordinates     .... (new redundants).... done
Validating the new internal coordinates .... (new redundants).... done
Calculating the B-matrix                .... done
Calculating the G,G- and P matrices     .... done
Transforming gradient to internals      .... done
Projecting the internal gradient        .... done
Number of atoms                         ....   3
Number of internal coordinates          ....   3
Current Energy                          ....   -76.256661405 Eh
Current gradient norm                   ....     0.161003062 Eh/bohr
Maximum allowed component of the step   ....  0.300
Current trust radius                    ....  0.300
Updating the Hessian (BFGS)             .... done
Forming the augmented Hessian           .... done
Diagonalizing the augmented Hessian     .... done
Last element of RFO vector              ....  0.713829940
Lowest eigenvalues of augmented Hessian:
 -0.135499638  0.139226941  0.300750877
Length of the computed step             ....  0.981072722
Warning: the length of the step is outside the trust region - taking restricted step instead
The input lambda is                     ....    -0.135500
   iter:   1  x=   -0.199147  g=   13.708350 f(x)=     0.872504
   iter:   2  x=   -0.281099  g=    4.464476 f(x)=     0.365872
   iter:   3  x=   -0.368803  g=    1.621648 f(x)=     0.142226
   iter:   4  x=   -0.432240  g=    0.727234 f(x)=     0.046133
   iter:   5  x=   -0.453249  g=    0.454537 f(x)=     0.009550
   iter:   6  x=   -0.454886  g=    0.394884 f(x)=     0.000646
   iter:   7  x=   -0.454895  g=    0.390687 f(x)=     0.000003
   iter:   8  x=   -0.454895  g=    0.390664 f(x)=     0.000000
   iter:   9  x=   -0.454895  g=    0.390664 f(x)=     0.000000
The output lambda is                    ....    -0.454895 (9 iterations)
The final length of the internal step   ....  0.300000000
Converting the step to cartesian space:
 Initial RMS(Int)=    0.1732050808
Transforming coordinates:
 Iter   0:  RMS(Cart)=    0.0980327229 RMS(Int)=    0.1723150981
 Iter   1:  RMS(Cart)=    0.0027411813 RMS(Int)=    0.0065474114
 Iter   2:  RMS(Cart)=    0.0002209182 RMS(Int)=    0.0004690685
 Iter   3:  RMS(Cart)=    0.0000102524 RMS(Int)=    0.0000156365
 Iter   4:  RMS(Cart)=    0.0000006536 RMS(Int)=    0.0000016036
 Iter   5:  RMS(Cart)=    0.0000000477 RMS(Int)=    0.0000000977
done
Storing new coordinates                 .... done

                                .--------------------.
          ----------------------|Geometry convergence|-------------------------
          Item                value                   Tolerance       Converged
          ---------------------------------------------------------------------
          Energy change      -0.0425633987            0.0000050000      NO
          RMS gradient        0.0801486265            0.0001000000      NO
          MAX gradient        0.1227817448            0.0003000000      NO
          RMS step            0.1732050808            0.0020000000      NO
          MAX step            0.2736617774            0.0040000000      NO
          ........................................................
          Max(Bonds)      0.1448      Max(Angles)    6.92
          Max(Dihed)        0.00      Max(Improp)    0.00
          ---------------------------------------------------------------------

The optimization has not yet converged - more geometry cycles are needed


    ---------------------------------------------------------------------------
                         Redundant Internal Coordinates
                            (Angstroem and degrees)

        Definition                    Value    dE/dq     Step     New-Value
    ----------------------------------------------------------------------------
     1. B(H   1,O   0)                1.2722  0.122782 -0.1448    1.1274   
     2. B(H   2,O   0)                0.9816  0.014761 -0.0121    0.9695   
     3. A(H   1,O   0,H   2)          127.58  0.063073   -6.92    120.66   
    ----------------------------------------------------------------------------

         *************************************************************
         *                GEOMETRY OPTIMIZATION CYCLE   3            *
         *************************************************************
---------------------------------
CARTESIAN COORDINATES (ANGSTROEM)
---------------------------------
  O     -0.091865   -0.003336    0.000000
  H     -0.778756    0.890625    0.000000
  H      0.870622    0.112711    0.000000

----------------------------
CARTESIAN COORDINATES (A.U.)
----------------------------
  NO LB      ZA    FRAG     MASS         X           Y           Z
   0 O     8.0000    0    15.999   -0.173601   -0.006304    0.000000
   1 H     1.0000    0     1.008   -1.471636    1.683037    0.000000
   2 H     1.0000    0     1.008    1.645236    0.212993    0.000000

--------------------------------
INTERNAL COORDINATES (ANGSTROEM)
--------------------------------
 O      0   0   0     0.000000000000     0.00000000     0.00000000
 H      1   0   0     1.127379814876     0.00000000     0.00000000
 H      1   2   0     0.969457705138   120.66251766     0.00000000

---------------------------
INTERNAL COORDINATES (A.U.)
---------------------------
 O      0   0   0     0.000000000000     0.00000000     0.00000000
 H      1   0   0     2.130439099026     0.00000000     0.00000000
 H      1   2   0     1.832009561130   120.66251766     0.00000000

------------------------------------------------------------------------------
                   ___                                                        
                  /   \      - P O W E R E D   B Y -                         
                 /     \                                                     
                 |  |  |   _    _      __       _____    __    __             
                 |  |  |  | |  | |    /  \     |  _  \  |  |  /  |          
                  \  \/   | |  | |   /    \    | | | |  |  | /  /          
                 / \  \   | |__| |  /  /\  \   | |_| |  |  |/  /          
                |  |  |   |  __  | /  /__\  \  |    /   |      \           
                |  |  |   | |  | | |   __   |  |    \   |  |\   \          
                \     /   | |  | | |  |  |  |  | |\  \  |  | \   \       
                 \___/    |_|  |_| |__|  |__|  |_| \__\ |__|  \__/        
                                                                              
                      - O R C A' S   B I G   F R I E N D -                    
                                      &                                       
                       - I N T E G R A L  F E E D E R -                       
                                                                              
 v1 FN, 2020, v2 2021                                                         
------------------------------------------------------------------------------


Reading SHARK input file testh2o.SHARKINP.tmp ... ok
----------------------
SHARK INTEGRAL PACKAGE
----------------------

Number of atoms                             ...      3
Number of basis functions                   ...     24
Number of shells                            ...     12
Maximum angular momentum                    ...      2
Integral batch strategy                     ... SHARK/LIBINT Hybrid
RI-J (if used) integral strategy            ... SPLIT-RIJ (Revised 2003 algorithm where possible)
Printlevel                                  ...      1
Contraction scheme used                     ... SEGMENTED contraction
Coulomb Range Separation                    ... NOT USED
Exchange Range Separation                   ... NOT USED
Finite Nucleus Model                        ... NOT USED
Auxiliary Coulomb fitting basis             ... AVAILABLE
   # of basis functions in Aux-J            ...     71
   # of shells in Aux-J                     ...     25
   Maximum angular momentum in Aux-J        ...      4
Auxiliary J/K fitting basis                 ... NOT available
Auxiliary Correlation fitting basis         ... NOT available
Auxiliary 'external' fitting basis          ... NOT available
Integral threshold                          ...     2.500000e-11
Primitive cut-off                           ...     2.500000e-12
Primitive pair pre-selection threshold      ...     2.500000e-12

Calculating pre-screening integrals         ... done (  0.1 sec) Dimension = 12
Organizing shell pair data                  ... done (  0.0 sec)
Shell pair information
Total number of shell pairs                 ...        78
Shell pairs after pre-screening             ...        78
Total number of primitive shell pairs       ...       272
Primitive shell pairs kept                  ...       263
          la=0 lb=0:     28 shell pairs
          la=1 lb=0:     28 shell pairs
          la=1 lb=1:     10 shell pairs
          la=2 lb=0:      7 shell pairs
          la=2 lb=1:      4 shell pairs
          la=2 lb=2:      1 shell pairs

Calculating one electron integrals          ... done (  0.0 sec)
Calculating RI/J V-Matrix + Cholesky decomp.... done (  0.0 sec)
Calculating Nuclear repulsion               ... done (  0.0 sec) ENN=      8.412063123014 Eh

SHARK setup successfully completed in   0.3 seconds

Maximum memory used throughout the entire GTOINT-calculation: 8.7 MB

Diagonalization of the overlap matrix:
Smallest eigenvalue                        ... 4.815e-02
Time for diagonalization                   ...    0.006 sec
Threshold for overlap eigenvalues          ... 1.000e-08
Number of eigenvalues below threshold      ... 0
Time for construction of square roots      ...    0.002 sec
Total time needed                          ...    0.008 sec

-------------------
DFT GRID GENERATION
-------------------

General Integration Accuracy     IntAcc      ... 4.388
Radial Grid Type                 RadialGrid  ... OptM3 with GC (2021)
Angular Grid (max. ang.)         AngularGrid ... 4 (Lebedev-302)
Angular grid pruning method      GridPruning ... 4 (adaptive)
Weight generation scheme         WeightScheme... Becke
Basis function cutoff            BFCut       ... 1.0000e-11
Integration weight cutoff        WCut        ... 1.0000e-14
Angular grids for H and He will be reduced by one unit
Partially contracted basis set               ... off
Rotationally invariant grid construction     ... off

Total number of grid points                  ...    12759
Total number of batches                      ...      201
Average number of points per batch           ...       63
Average number of grid points per atom       ...     4253
Time for grid setup =    0.186 sec

--------------------
COSX GRID GENERATION
--------------------

GRIDX 1
-------
General Integration Accuracy     IntAcc      ... 3.816
Radial Grid Type                 RadialGrid  ... OptM3 with GC (2021)
Angular Grid (max. ang.)         AngularGrid ... 1 (Lebedev-50)
Angular grid pruning method      GridPruning ... 4 (adaptive)
Weight generation scheme         WeightScheme... Becke
Basis function cutoff            BFCut       ... 1.0000e-11
Integration weight cutoff        WCut        ... 1.0000e-14
Angular grids for H and He will be reduced by one unit
Partially contracted basis set               ... on
Rotationally invariant grid construction     ... off

Total number of grid points                  ...     1661
Total number of batches                      ...       27
Average number of points per batch           ...       61
Average number of grid points per atom       ...      554
UseSFitting                                  ... on

GRIDX 2
-------
General Integration Accuracy     IntAcc      ... 4.020
Radial Grid Type                 RadialGrid  ... OptM3 with GC (2021)
Angular Grid (max. ang.)         AngularGrid ... 2 (Lebedev-110)
Angular grid pruning method      GridPruning ... 4 (adaptive)
Weight generation scheme         WeightScheme... Becke
Basis function cutoff            BFCut       ... 1.0000e-11
Integration weight cutoff        WCut        ... 1.0000e-14
Angular grids for H and He will be reduced by one unit
Partially contracted basis set               ... on
Rotationally invariant grid construction     ... off

Total number of grid points                  ...     3515
Total number of batches                      ...       57
Average number of points per batch           ...       61
Average number of grid points per atom       ...     1172
UseSFitting                                  ... on

GRIDX 3
-------
General Integration Accuracy     IntAcc      ... 4.338
Radial Grid Type                 RadialGrid  ... OptM3 with GC (2021)
Angular Grid (max. ang.)         AngularGrid ... 3 (Lebedev-194)
Angular grid pruning method      GridPruning ... 4 (adaptive)
Weight generation scheme         WeightScheme... Becke
Basis function cutoff            BFCut       ... 1.0000e-11
Integration weight cutoff        WCut        ... 1.0000e-14
Angular grids for H and He will be reduced by one unit
Partially contracted basis set               ... on
Rotationally invariant grid construction     ... off

Total number of grid points                  ...     7799
Total number of batches                      ...      123
Average number of points per batch           ...       63
Average number of grid points per atom       ...     2600
UseSFitting                                  ... on

Time for X-Grid setup             =    0.341 sec

--------------
SCF ITERATIONS
--------------
ITER       Energy         Delta-E        Max-DP      RMS-DP      [F,P]     Damp
               ***  Starting incremental Fock matrix formation  ***
  0    -76.2917191457   0.000000000000 0.01162068  0.00122104  0.0326903 0.7000
  1    -76.2927492250  -0.001030079323 0.01009250  0.00099714  0.0246634 0.7000
                               ***Turning on DIIS***
  2    -76.2934571201  -0.000707895088 0.02518908  0.00240125  0.0176519 0.0000
  3    -76.2951108395  -0.001653719413 0.00459256  0.00043531  0.0050805 0.0000
  4    -76.2951339851  -0.000023145561 0.00250034  0.00021434  0.0038350 0.0000
                      *** Initiating the SOSCF procedure ***
                           *** Shutting down DIIS ***
                      *** Re-Reading the Fockian *** 
                      *** Removing any level shift *** 
ITER      Energy       Delta-E        Grad      Rot      Max-DP    RMS-DP
  5    -76.29514598  -0.0000119905  0.000247  0.000247  0.000853  0.000082
               *** Restarting incremental Fock matrix formation ***
  6    -76.29515665  -0.0000106726  0.000036  0.000104  0.000114  0.000014
  7    -76.29515666  -0.0000000159  0.000012  0.000023  0.000027  0.000003
  8    -76.29515666  -0.0000000009  0.000003  0.000006  0.000009  0.000001
  9    -76.29515666   0.0000000001  0.000003  0.000002  0.000004  0.000000
                  ***Gradient check signals convergence***
              ***Rediagonalizing the Fockian in SOSCF/NRSCF***

               *****************************************************
               *                     SUCCESS                       *
               *           SCF CONVERGED AFTER  10 CYCLES          *
               *****************************************************

Old exchange energy                            =     -1.775213742 Eh
New exchange energy                            =     -1.775165209 Eh
Exchange energy change after final integration =      0.000048533 Eh
Total energy after final integration           =    -76.295108132 Eh
Final COS-X integration done in                =     0.716 sec
Total Energy       :          -76.29510813 Eh           -2076.09544 eV
  Last Energy change         ...   -2.2513e-10  Tolerance :   1.0000e-08
  Last MAX-Density change    ...    8.8818e-16  Tolerance :   1.0000e-07
             **** THE GBW FILE WAS UPDATED (testh2o.gbw) ****
             **** DENSITY testh2o.scfp WAS UPDATED ****
             **** ENERGY FILE WAS UPDATED (testh2o.en.tmp) ****
             **** THE GBW FILE WAS UPDATED (testh2o.gbw) ****
             **** DENSITY testh2o.scfp WAS UPDATED ****
Total SCF time: 0 days 0 hours 0 min 7 sec 

Maximum memory used throughout the entire SCF-calculation: 43.4 MB

-------------------------   --------------------
FINAL SINGLE POINT ENERGY       -76.295108131726
-------------------------   --------------------

------------------------------------------------------------------------------
                         ORCA SCF GRADIENT CALCULATION
------------------------------------------------------------------------------

 ... reading COSX grid (gridx3)
Gradient of the Kohn-Sham DFT energy:
Kohn-Sham wavefunction type      ... RKS
Hartree-Fock exchange scaling    ...    0.200
Number of operators              ...    1
Number of atoms                  ...    3
Basis set dimensions             ...   24
Integral neglect threshold       ... 2.5e-11
Integral primitive cutoff        ... 2.5e-12
SHARK Integral package           ... ON

Nuc. rep. gradient       (SHARK) ... done (  0.0 sec)
HCore & Overlap gradient (SHARK) ... done (  0.0 sec)
RI-J gradient            (SHARK) ... done (  0.1 sec)
COSX-gradient                    ... done (  0.6 sec)
Exchange-correlation gradient    ... done

------------------
CARTESIAN GRADIENT
------------------

   1   O   :    0.070323462   -0.041941249   -0.000000011
   2   H   :   -0.079282219    0.066852432   -0.000000001
   3   H   :    0.009064616   -0.024810950   -0.000000002

Difference to translation invariance:
           :    0.0001058594    0.0001002324   -0.0000000136

Difference to rotation invariance:
           :   -0.0000000025   -0.0000000008    0.0000263233

Norm of the cartesian gradient     ...    0.1347483806
RMS gradient                       ...    0.0449161269
MAX gradient                       ...    0.0792822187

-------
TIMINGS
-------

Total SCF gradient time            ...        1.844 sec

One electron gradient       ....       0.009 sec  (  0.5%)
RI-J Coulomb gradient       ....       0.147 sec  (  8.0%)
COSX gradient               ....       0.641 sec  ( 34.8%)
XC gradient                 ....       0.391 sec  ( 21.2%)

Maximum memory used throughout the entire SCFGRAD-calculation: 33.0 MB
------------------------------------------------------------------------------
                         ORCA GEOMETRY RELAXATION STEP
------------------------------------------------------------------------------

Reading the OPT-File                    .... done
Getting information on internals        .... done
Copying old internal coords+grads       .... done
Making the new internal coordinates     .... (new redundants).... done
Validating the new internal coordinates .... (new redundants).... done
Calculating the B-matrix                .... done
Calculating the G,G- and P matrices     .... done
Transforming gradient to internals      .... done
Projecting the internal gradient        .... done
Number of atoms                         ....   3
Number of internal coordinates          ....   3
Current Energy                          ....   -76.295108132 Eh
Current gradient norm                   ....     0.134748381 Eh/bohr
Maximum allowed component of the step   ....  0.300
Current trust radius                    ....  0.300
Updating the Hessian (BFGS)             .... done
Forming the augmented Hessian           .... done
Diagonalizing the augmented Hessian     .... done
Last element of RFO vector              ....  0.825259572
Lowest eigenvalues of augmented Hessian:
 -0.076467159  0.161835437  0.241609810
Length of the computed step             ....  0.684334516
Warning: the length of the step is outside the trust region - taking restricted step instead
The input lambda is                     ....    -0.076467
   iter:   1  x=   -0.142312  g=    5.745518 f(x)=     0.378314
   iter:   2  x=   -0.213457  g=    2.075524 f(x)=     0.147663
   iter:   3  x=   -0.265948  g=    0.921524 f(x)=     0.048372
   iter:   4  x=   -0.284012  g=    0.568232 f(x)=     0.010265
   iter:   5  x=   -0.285521  g=    0.489157 f(x)=     0.000738
   iter:   6  x=   -0.285530  g=    0.483235 f(x)=     0.000004
   iter:   7  x=   -0.285530  g=    0.483199 f(x)=     0.000000
   iter:   8  x=   -0.285530  g=    0.483199 f(x)=     0.000000
The output lambda is                    ....    -0.285530 (8 iterations)
The final length of the internal step   ....  0.300000000
Converting the step to cartesian space:
 Initial RMS(Int)=    0.1732050808
Transforming coordinates:
 Iter   0:  RMS(Cart)=    0.0954717447 RMS(Int)=    0.1723628358
 Iter   1:  RMS(Cart)=    0.0032325594 RMS(Int)=    0.0077699890
 Iter   2:  RMS(Cart)=    0.0002391779 RMS(Int)=    0.0005594108
[...]
  10   0.0000       0.923637        25.1334 
  11   0.0000       1.010164        27.4879 
  12   0.0000       1.098342        29.8874 
  13   0.0000       1.351320        36.7713 
  14   0.0000       1.398973        38.0680 
  15   0.0000       1.545688        42.0603 
  16   0.0000       1.789901        48.7057 
  17   0.0000       2.201841        59.9152 
  18   0.0000       2.249061        61.2001 
  19   0.0000       2.963991        80.6543 
  20   0.0000       3.000042        81.6353 
  21   0.0000       3.187899        86.7471 
  22   0.0000       3.486913        94.8837 
  23   0.0000       3.823838       104.0519 

                    ********************************
                    * MULLIKEN POPULATION ANALYSIS *
                    ********************************

-----------------------
MULLIKEN ATOMIC CHARGES
-----------------------
   0 O :   -0.293746
   1 H :    0.146862
   2 H :    0.146884
Sum of atomic charges:    0.0000000

--------------------------------
MULLIKEN REDUCED ORBITAL CHARGES
--------------------------------
  0 O s       :     3.686911  s :     3.686911
      pz      :     1.959308  p :     4.595915
      px      :     1.202590
      py      :     1.434017
      dz2     :     0.001929  d :     0.010920
      dxz     :     0.000204
      dyz     :     0.001015
      dx2y2   :     0.004293
      dxy     :     0.003479
  1 H s       :     0.782701  s :     0.782701
      pz      :     0.019735  p :     0.070437
      px      :     0.021098
      py      :     0.029604
  2 H s       :     0.782683  s :     0.782683
      pz      :     0.019737  p :     0.070433
      px      :     0.033942
      py      :     0.016754


                     *******************************
                     * LOEWDIN POPULATION ANALYSIS *
                     *******************************

----------------------
LOEWDIN ATOMIC CHARGES
----------------------
   0 O :   -0.150114
   1 H :    0.075043
   2 H :    0.075071

-------------------------------
LOEWDIN REDUCED ORBITAL CHARGES
-------------------------------
  0 O s       :     3.439918  s :     3.439918
      pz      :     1.892274  p :     4.690053
      px      :     1.286635
      py      :     1.511144
      dz2     :     0.004223  d :     0.020143
      dxz     :     0.000062
      dyz     :     0.000308
      dx2y2   :     0.008671
      dxy     :     0.006878
  1 H s       :     0.750032  s :     0.750032
      pz      :     0.053681  p :     0.174925
      px      :     0.038686
      py      :     0.082558
  2 H s       :     0.750024  s :     0.750024
      pz      :     0.053675  p :     0.174905
      px      :     0.081430
      py      :     0.039800


                      *****************************
                      * MAYER POPULATION ANALYSIS *
                      *****************************

  NA   - Mulliken gross atomic population
  ZA   - Total nuclear charge
  QA   - Mulliken gross atomic charge
  VA   - Mayer's total valence
  BVA  - Mayer's bonded valence
  FA   - Mayer's free valence

  ATOM       NA         ZA         QA         VA         BVA        FA
  0 O      8.2937     8.0000    -0.2937     2.0163     2.0163     0.0000
  1 H      0.8531     1.0000     0.1469     1.0136     1.0136    -0.0000
  2 H      0.8531     1.0000     0.1469     1.0135     1.0135     0.0000

  Mayer bond orders larger than 0.100000
B(  0-O ,  1-H ) :   1.0082 B(  0-O ,  2-H ) :   1.0081 

-------
TIMINGS
-------

Total SCF time: 0 days 0 hours 0 min 3 sec 

Total time                  ....       3.178 sec
Sum of individual times     ....       2.896 sec  ( 91.1%)

Fock matrix formation       ....       2.570 sec  ( 80.9%)
  Split-RI-J                ....       0.305 sec  ( 11.9% of F)
  Chain of spheres X        ....       1.409 sec  ( 54.8% of F)
  XC integration            ....       0.643 sec  ( 25.0% of F)
    Basis function eval.    ....       0.179 sec  ( 27.8% of XC)
    Density eval.           ....       0.160 sec  ( 24.9% of XC)
    XC-Functional eval.     ....       0.132 sec  ( 20.5% of XC)
    XC-Potential eval.      ....       0.059 sec  (  9.2% of XC)
Diagonalization             ....       0.001 sec  (  0.0%)
Density matrix formation    ....       0.000 sec  (  0.0%)
Population analysis         ....       0.043 sec  (  1.4%)
Initial guess               ....       0.002 sec  (  0.1%)
Orbital Transformation      ....       0.000 sec  (  0.0%)
Orbital Orthonormalization  ....       0.000 sec  (  0.0%)
DIIS solution               ....       0.000 sec  (  0.0%)
SOSCF solution              ....       0.041 sec  (  1.3%)
Grid generation             ....       0.239 sec  (  7.5%)

Maximum memory used throughout the entire SCF-calculation: 43.4 MB

-------------------------   --------------------
FINAL SINGLE POINT ENERGY       -76.321272298568
-------------------------   --------------------

                                *** OPTIMIZATION RUN DONE ***

                            ***************************************
                            *     ORCA property calculations      *
                            ***************************************

                                    ---------------------
                                    Active property flags
                                    ---------------------
   (+) Dipole Moment


------------------------------------------------------------------------------
                       ORCA ELECTRIC PROPERTIES CALCULATION
------------------------------------------------------------------------------

Dipole Moment Calculation                       ... on
Quadrupole Moment Calculation                   ... off
Polarizability Calculation                      ... off
GBWName                                         ... testh2o.gbw
Electron density                                ... testh2o.scfp
The origin for moment calculation is the CENTER OF MASS  = (-0.258009,  0.054758  0.000000)

-------------
DIPOLE MOMENT
-------------
                                X             Y             Z
Electronic contribution:     -0.08706      -0.19397       0.00000
Nuclear contribution   :      0.40971       0.91331       0.00000
                        -----------------------------------------
Total Dipole Moment    :      0.32265       0.71935       0.00000
                        -----------------------------------------
Magnitude (a.u.)       :      0.78839
Magnitude (Debye)      :      2.00393



--------------------
Rotational spectrum 
--------------------
 
Rotational constants in cm-1:    26.041405    14.584918     9.348908 
Rotational constants in MHz : 780701.694466 437244.838055 280273.211386 

 Dipole components along the rotational axes: 
x,y,z [a.u.] :    -0.000045     0.788391     0.000000 
x,y,z [Debye]:    -0.000115     2.003930     0.000000 

 

-------------------------------------------------------------------------------
                               ORCA SCF HESSIAN
-------------------------------------------------------------------------------

                   --------- SHARK INITIALIZATION DONE ---------

Hessian of the Kohn-Sham DFT energy:
Kohn-Sham wavefunction type                      ... RKS
Hartree-Fock exchange scaling                    ...    0.200
Number of operators                              ...    1
Number of atoms                                  ...    3
Basis set dimensions                             ...   24
Integral neglect threshold                       ... 2.5e-11
Integral primitive cutoff                        ... 2.5e-12

Setting up DFT Hessian calculations              ... 

HESS GRID
---------

General Integration Accuracy     IntAcc      ... 4.629
Radial Grid Type                 RadialGrid  ... OptM3 with GC (2021)
Angular Grid (max. ang.)         AngularGrid ... 5 (Lebedev-434)
Angular grid pruning method      GridPruning ... 4 (adaptive)
Weight generation scheme         WeightScheme... Becke
Basis function cutoff            BFCut       ... 1.0000e-11
Integration weight cutoff        WCut        ... 1.0000e-14
Angular grids for H and He will be reduced by one unit
Partially contracted basis set               ... off
Rotationally invariant grid construction     ... off

Total number of grid points                  ...    19978
Total number of batches                      ...      313
Average number of points per batch           ...       63
Average number of grid points per atom       ...     6659

Building densities                               ... done   (      0.0 sec)
Calculating rho(r) on the grid                   ... done   (      0.2 sec)
Building xc-kernel on the grid                   ... done   (      0.2 sec)
                                                     done   (      1.0 sec)

Nuclear repulsion Hessian  (SHARK)               ... done   (      0.0 sec)

----------------------------------------------
Forming right-hand sides of CP-SCF equations     ...
----------------------------------------------
One electron integral derivatives  (SHARK)       ... done   (      0.0 sec)
Transforming the overlap derivative matrices     ... done   (      0.0 sec)
Making the Q(x) pseudodensities                  ... done   (      0.0 sec)
Adding the E*S(x)*S(y) terms to the Hessian      ... done   (      0.0 sec)
Calculating energy weighted overlap derivatives  ... done   (      0.2 sec)
Two electron integral derivatives (SHARK-RI)     ... done   (      0.2 sec)
Exchange-correlation integral derivatives        ... done   (      1.6 sec)
tr(F(y)Q(x)) contribution to the Hessian         ... done   (      0.0 sec)
Response fock operator R(S(x)) (SHARK-RIJCOSX)   ... done   (      0.5 sec)
XC Response fock operator R(S(x))                ... done   (      0.3 sec)
tr(F(y)S(x)) contribution to the Hessian         ... done   (      0.0 sec)
Transforming and finalizing RHSs                 ... done   (      0.0 sec)

----------------------------------------------
Solving the CP-SCF equations (RIJCOSX)           ...
----------------------------------------------
     CP-SCF ITERATION   0:   1.0506e-01 (   0.4 sec   0/  9 done)
     CP-SCF ITERATION   1:   1.9736e-02 (   0.7 sec   0/  9 done)
     CP-SCF ITERATION   2:   2.0169e-03 (   0.5 sec   0/  9 done)
     CP-SCF ITERATION   3:   3.2369e-04 (   0.5 sec   4/  9 done)
     CP-SCF ITERATION   4:   3.9915e-05 (   0.3 sec   9/  9 done)
                    *** THE CP-SCF HAS CONVERGED ***

                                                 ... done   (      2.7 sec)
Forming perturbed density Hessian contributions  ... done   (      0.0 sec)
2nd integral derivative contribs (SHARK-RI)      ... done   (      0.4 sec)
Exchange-correlation Hessian                     ... done   (      2.5 sec)
Dipole derivatives                               ... (center of mass: -0.258009,  0.054758  0.000000)done   (      0.3 sec)

Total SCF Hessian time: 0 days 0 hours 0 min 10 sec 

Writing the Hessian file to the disk             ... done


Maximum memory used throughout the entire SCFHESS-calculation: 51.5 MB

-----------------------
VIBRATIONAL FREQUENCIES
-----------------------

Scaling factor for frequencies =  1.000000000  (already applied!)

   0:         0.00 cm**-1
   1:         0.00 cm**-1
   2:         0.00 cm**-1
   3:         0.00 cm**-1
   4:         0.00 cm**-1
   5:         0.00 cm**-1
   6:      1637.88 cm**-1
   7:      3787.60 cm**-1
   8:      3882.18 cm**-1


------------
NORMAL MODES
------------

These modes are the Cartesian displacements weighted by the diagonal matrix
M(i,i)=1/sqrt(m[i]) where m[i] is the mass of the displaced atom
Thus, these vectors are normalized but *not* orthogonal

                  0          1          2          3          4          5    
      0       0.000000   0.000000   0.000000   0.000000   0.000000   0.000000
      1       0.000000   0.000000   0.000000   0.000000   0.000000   0.000000
      2       0.000000   0.000000   0.000000   0.000000   0.000000   0.000000
      3       0.000000   0.000000   0.000000   0.000000   0.000000   0.000000
      4       0.000000   0.000000   0.000000   0.000000   0.000000   0.000000
      5       0.000000   0.000000   0.000000   0.000000   0.000000   0.000000
      6       0.000000   0.000000   0.000000   0.000000   0.000000   0.000000
      7       0.000000   0.000000   0.000000   0.000000   0.000000   0.000000
      8       0.000000   0.000000   0.000000   0.000000   0.000000   0.000000
                  6          7          8    
      0       0.028747   0.020850  -0.063445
      1       0.064083   0.045968   0.028632
      2      -0.000000   0.000000  -0.000000
      3      -0.622545   0.365740   0.325616
      4      -0.331655  -0.601628  -0.628215
      5      -0.000000  -0.000000  -0.000000
      6       0.166275  -0.696671   0.681381
      7      -0.685465  -0.127982   0.173767
      8       0.000000   0.000000   0.000000


-----------
IR SPECTRUM
-----------

 Mode   freq       eps      Int      T**2         TX        TY        TZ
       cm**-1   L/(mol*cm) km/mol    a.u.
----------------------------------------------------------------------------
  6:   1637.88   0.010976   55.47  0.002091  (-0.018726 -0.041720  0.000000)
  7:   3787.60   0.000934    4.72  0.000077  (-0.003644 -0.007979 -0.000000)
  8:   3882.18   0.005267   26.62  0.000423  ( 0.018763 -0.008445  0.000000)

* The epsilon (eps) is given for a Dirac delta lineshape.
** The dipole moment derivative (T) already includes vibrational overlap.

The first frequency considered to be a vibration is 6
The total number of vibrations considered is 3


--------------------------
THERMOCHEMISTRY AT 298.15K
--------------------------

Temperature         ... 298.15 K
Pressure            ... 1.00 atm
Total Mass          ... 18.02 AMU

Throughout the following assumptions are being made:
  (1) The electronic state is orbitally nondegenerate
  (2) There are no thermally accessible electronically excited states
  (3) Hindered rotations indicated by low frequency modes are not
      treated as such but are treated as vibrations and this may
      cause some error
  (4) All equations used are the standard statistical mechanics
      equations for an ideal gas
  (5) All vibrations are strictly harmonic

freq.    1637.88  E(vib)   ...       0.00 
freq.    3787.60  E(vib)   ...       0.00 
freq.    3882.18  E(vib)   ...       0.00 

------------
INNER ENERGY
------------

The inner energy is: U= E(el) + E(ZPE) + E(vib) + E(rot) + E(trans)
    E(el)   - is the total energy from the electronic structure calculation
              = E(kin-el) + E(nuc-el) + E(el-el) + E(nuc-nuc)
    E(ZPE)  - the the zero temperature vibrational energy from the frequency calculation
    E(vib)  - the the finite temperature correction to E(ZPE) due to population
              of excited vibrational states
    E(rot)  - is the rotational thermal energy
    E(trans)- is the translational thermal energy

Summary of contributions to the inner energy U:
Electronic energy                ...    -76.32127230 Eh
Zero point energy                ...      0.02120442 Eh      13.31 kcal/mol
Thermal vibrational correction   ...      0.00000276 Eh       0.00 kcal/mol
Thermal rotational correction    ...      0.00141627 Eh       0.89 kcal/mol
Thermal translational correction ...      0.00141627 Eh       0.89 kcal/mol
-----------------------------------------------------------------------
Total thermal energy                    -76.29723257 Eh


Summary of corrections to the electronic energy:
(perhaps to be used in another calculation)
Total thermal correction                  0.00283530 Eh       1.78 kcal/mol
Non-thermal (ZPE) correction              0.02120442 Eh      13.31 kcal/mol
-----------------------------------------------------------------------
Total correction                          0.02403972 Eh      15.09 kcal/mol


--------
ENTHALPY
--------

The enthalpy is H = U + kB*T
                kB is Boltzmann's constant
Total free energy                 ...    -76.29723257 Eh 
Thermal Enthalpy correction       ...      0.00094421 Eh       0.59 kcal/mol
-----------------------------------------------------------------------
Total Enthalpy                    ...    -76.29628837 Eh


Note: Rotational entropy computed according to Herzberg 
Infrared and Raman Spectra, Chapter V,1, Van Nostrand Reinhold, 1945 
Point Group:  C2v, Symmetry Number:   2  
Rotational constants in cm-1:    26.041405    14.584918     9.348908 

Vibrational entropy computed according to the QRRHO of S. Grimme
Chem.Eur.J. 2012 18 9955


-------
ENTROPY
-------

The entropy contributions are T*S = T*(S(el)+S(vib)+S(rot)+S(trans))
     S(el)   - electronic entropy
     S(vib)  - vibrational entropy
     S(rot)  - rotational entropy
     S(trans)- translational entropy
The entropies will be listed as multiplied by the temperature to get
units of energy

Electronic entropy                ...      0.00000000 Eh      0.00 kcal/mol
Vibrational entropy               ...      0.00000311 Eh      0.00 kcal/mol
Rotational entropy                ...      0.00499704 Eh      3.14 kcal/mol
Translational entropy             ...      0.01644380 Eh     10.32 kcal/mol
-----------------------------------------------------------------------
Final entropy term                ...      0.02144395 Eh     13.46 kcal/mol

In case the symmetry of your molecule has not been determined correctly
or in case you have a reason to use a different symmetry number we print 
out the resulting rotational entropy values for sn=1,12 :
 --------------------------------------------------------
|  sn= 1 | S(rot)=       0.00565150 Eh      3.55 kcal/mol|
|  sn= 2 | S(rot)=       0.00499704 Eh      3.14 kcal/mol|
|  sn= 3 | S(rot)=       0.00461421 Eh      2.90 kcal/mol|
|  sn= 4 | S(rot)=       0.00434259 Eh      2.73 kcal/mol|
|  sn= 5 | S(rot)=       0.00413190 Eh      2.59 kcal/mol|
|  sn= 6 | S(rot)=       0.00395976 Eh      2.48 kcal/mol|
|  sn= 7 | S(rot)=       0.00381421 Eh      2.39 kcal/mol|
|  sn= 8 | S(rot)=       0.00368813 Eh      2.31 kcal/mol|
|  sn= 9 | S(rot)=       0.00357692 Eh      2.24 kcal/mol|
|  sn=10 | S(rot)=       0.00347744 Eh      2.18 kcal/mol|
|  sn=11 | S(rot)=       0.00338745 Eh      2.13 kcal/mol|
|  sn=12 | S(rot)=       0.00330530 Eh      2.07 kcal/mol|
 --------------------------------------------------------


-------------------
GIBBS FREE ENERGY
-------------------

The Gibbs free energy is G = H - T*S

Total enthalpy                    ...    -76.29628837 Eh 
Total entropy correction          ...     -0.02144395 Eh    -13.46 kcal/mol
-----------------------------------------------------------------------
Final Gibbs free energy         ...    -76.31773232 Eh

For completeness - the Gibbs free energy minus the electronic energy
G-E(el)                           ...      0.00353998 Eh      2.22 kcal/mol


Timings for individual modules:

Sum of individual times         ...       80.375 sec (=   1.340 min)
GTO integral calculation        ...        4.421 sec (=   0.074 min)   5.5 %
SCF iterations                  ...       50.824 sec (=   0.847 min)  63.2 %
SCF Gradient evaluation         ...       13.234 sec (=   0.221 min)  16.5 %
Geometry relaxation             ...        0.888 sec (=   0.015 min)   1.1 %
Analytical frequency calculation...       11.008 sec (=   0.183 min)  13.7 %
                             ****ORCA TERMINATED NORMALLY****
TOTAL RUN TIME: 0 days 0 hours 1 minutes 22 seconds 305 msec
