
                                 *****************
                                 * O   R   C   A *
                                 *****************

                                            #,                                       
                                            ###                                      
                                            ####                                     
                                            #####                                    
                                            ######                                   
                                           ########,                                 
                                     ,,################,,,,,                         
                               ,,#################################,,                 
                          ,,##########################################,,             
                       ,#########################################, ''#####,          
                    ,#############################################,,   '####,        
                  ,##################################################,,,,####,       
                ,###########''''           ''''###############################       
              ,#####''   ,,,,##########,,,,          '''####'''          '####       
            ,##' ,,,,###########################,,,                        '##       
           ' ,,###''''                  '''############,,,                           
         ,,##''                                '''############,,,,        ,,,,,,###''
      ,#''                                            '''#######################'''  
     '                                                          ''''####''''         
             ,#######,   #######,   ,#######,      ##                                
            ,#'     '#,  ##    ##  ,#'     '#,    #''#        ######   ,####,        
            ##       ##  ##   ,#'  ##            #'  '#       #        #'  '#        
            ##       ##  #######   ##           ,######,      #####,   #    #        
            '#,     ,#'  ##    ##  '#,     ,#' ,#      #,         ##   #,  ,#        
             '#######'   ##     ##  '#######'  #'      '#     #####' # '####'        



                  #######################################################
                  #                        -***-                        #
                  #          Department of theory and spectroscopy      #
                  #    Directorship and core code : Frank Neese         #
                  #        Max Planck Institute fuer Kohlenforschung    #
                  #                Kaiser Wilhelm Platz 1               #
                  #                 D-45470 Muelheim/Ruhr               #
                  #                      Germany                        #
                  #                                                     #
                  #                  All rights reserved                #
                  #                        -***-                        #
                  #######################################################



                         Program Version 5.0.4 -  RELEASE  -

 With contributions from (in alphabetic order):
   Daniel Aravena         : Magnetic Suceptibility
   Michael Atanasov       : Ab Initio Ligand Field Theory (pilot matlab implementation)
   Alexander A. Auer      : GIAO ZORA, VPT2 properties, NMR spectrum
   Ute Becker             : Parallelization
   Giovanni Bistoni       : ED, misc. LED, open-shell LED, HFLD
   Martin Brehm           : Molecular dynamics
   Dmytro Bykov           : SCF Hessian
   Vijay G. Chilkuri      : MRCI spin determinant printing, contributions to CSF-ICE
   Dipayan Datta          : RHF DLPNO-CCSD density
   Achintya Kumar Dutta   : EOM-CC, STEOM-CC
   Dmitry Ganyushin       : Spin-Orbit,Spin-Spin,Magnetic field MRCI
   Miquel Garcia          : C-PCM and meta-GGA Hessian, CC/C-PCM, Gaussian charge scheme
   Yang Guo               : DLPNO-NEVPT2, F12-NEVPT2, CIM, IAO-localization
   Andreas Hansen         : Spin unrestricted coupled pair/coupled cluster methods
   Benjamin Helmich-Paris : MC-RPA, TRAH-SCF, COSX integrals
   Lee Huntington         : MR-EOM, pCC
   Robert Izsak           : Overlap fitted RIJCOSX, COSX-SCS-MP3, EOM
   Marcus Kettner         : VPT2
   Christian Kollmar      : KDIIS, OOCD, Brueckner-CCSD(T), CCSD density, CASPT2, CASPT2-K
   Simone Kossmann        : Meta GGA functionals, TD-DFT gradient, OOMP2, MP2 Hessian
   Martin Krupicka        : Initial AUTO-CI
   Lucas Lang             : DCDCAS
   Marvin Lechner         : AUTO-CI (C++ implementation), FIC-MRCC
   Dagmar Lenk            : GEPOL surface, SMD
   Dimitrios Liakos       : Extrapolation schemes; Compound Job, initial MDCI parallelization
   Dimitrios Manganas     : Further ROCIS development; embedding schemes
   Dimitrios Pantazis     : SARC Basis sets
   Anastasios Papadopoulos: AUTO-CI, single reference methods and gradients
   Taras Petrenko         : DFT Hessian,TD-DFT gradient, ASA, ECA, R-Raman, ABS, FL, XAS/XES, NRVS
   Peter Pinski           : DLPNO-MP2, DLPNO-MP2 Gradient
   Christoph Reimann      : Effective Core Potentials
   Marius Retegan         : Local ZFS, SOC
   Christoph Riplinger    : Optimizer, TS searches, QM/MM, DLPNO-CCSD(T), (RO)-DLPNO pert. Triples
   Tobias Risthaus        : Range-separated hybrids, TD-DFT gradient, RPA, STAB
   Michael Roemelt        : Original ROCIS implementation
   Masaaki Saitow         : Open-shell DLPNO-CCSD energy and density
   Barbara Sandhoefer     : DKH picture change effects
   Avijit Sen             : IP-ROCIS
   Kantharuban Sivalingam : CASSCF convergence, NEVPT2, FIC-MRCI
   Bernardo de Souza      : ESD, SOC TD-DFT
   Georgi Stoychev        : AutoAux, RI-MP2 NMR, DLPNO-MP2 response
   Willem Van den Heuvel  : Paramagnetic NMR
   Boris Wezisla          : Elementary symmetry handling
   Frank Wennmohs         : Technical directorship


 We gratefully acknowledge several colleagues who have allowed us to
 interface, adapt or use parts of their codes:
   Stefan Grimme, W. Hujo, H. Kruse, P. Pracht,  : VdW corrections, initial TS optimization,
                  C. Bannwarth, S. Ehlert          DFT functionals, gCP, sTDA/sTD-DF
   Ed Valeev, F. Pavosevic, A. Kumar             : LibInt (2-el integral package), F12 methods
   Garnet Chan, S. Sharma, J. Yang, R. Olivares  : DMRG
   Ulf Ekstrom                                   : XCFun DFT Library
   Mihaly Kallay                                 : mrcc  (arbitrary order and MRCC methods)
   Jiri Pittner, Ondrej Demel                    : Mk-CCSD
   Frank Weinhold                                : gennbo (NPA and NBO analysis)
   Christopher J. Cramer and Donald G. Truhlar   : smd solvation model
   Lars Goerigk                                  : TD-DFT with DH, B97 family of functionals
   V. Asgeirsson, H. Jonsson                     : NEB implementation
   FAccTs GmbH                                   : IRC, NEB, NEB-TS, DLPNO-Multilevel, CI-OPT
                                                   MM, QMMM, 2- and 3-layer-ONIOM, Crystal-QMMM,
                                                   LR-CPCM, SF, NACMEs, symmetry and pop. for TD-DFT,
                                                   nearIR, NL-DFT gradient (VV10), updates on ESD,
                                                   ML-optimized integration grids
   S Lehtola, MJT Oliveira, MAL Marques          : LibXC Library
   Liviu Ungur et al                             : ANISO software


 Your calculation uses the libint2 library for the computation of 2-el integrals
 For citations please refer to: http://libint.valeyev.net

 Your ORCA version has been built with support for libXC version: 5.1.0
 For citations please refer to: https://tddft.org/programs/libxc/

 This ORCA versions uses:
   CBLAS   interface :  Fast vector & matrix operations
   LAPACKE interface :  Fast linear algebra routines
   Shared memory     :  Shared parallel matrices


Your calculation utilizes the atom-pairwise dispersion correction
based on tight binding partial charges (D4)
Cite in your paper:
E.Caldeweyher, C.Bannwarth, S.Grimme, J.Chem.Phys., (2017), 147, 034112.
E.Caldeweyher, S.Ehlert, A.Hansen, H.Neugebauer, S.Grimme, J.Chem.Phys., (2018), in progress.
   

================================================================================

----- Orbital basis set information -----
Your calculation utilizes the basis: def2-SVP
   F. Weigend and R. Ahlrichs, Phys. Chem. Chem. Phys. 7, 3297 (2005).

----- AuxJ basis set information -----
Your calculation utilizes the auxiliary basis: def2/J
   F. Weigend, Phys. Chem. Chem. Phys. 8, 1057 (2006).

================================================================================
                                        WARNINGS
                       Please study these warnings very carefully!
================================================================================


WARNING: Geometry Optimization
  ===> : Switching off AutoStart
         For restart on a previous wavefunction, please use MOREAD

INFO   : the flag for use of the SHARK integral package has been found!

================================================================================
                                       INPUT FILE
================================================================================
NAME = meta_products_optfreq3.inp
|  1> !B3LYP DEF2-SVP OPT FREQ TIGHTSCF D4
|  2> 
|  3> * xyz 1 1
|  4>    C       -4.00990        2.51175       -0.55768
|  5>    C       -4.75506        2.01878       -1.64114
|  6>    C       -4.48622        0.75866       -2.17799
|  7>    C       -3.46804       -0.01094       -1.61979
|  8>    C       -2.72296        0.47886       -0.54325
|  9>    C       -2.99552        1.74115       -0.01279
| 10>    C       -4.42692        3.85147        0.07625
| 11>    H       -3.24007       -0.99494       -2.01410
| 12>    H       -5.54084        2.63443       -2.06497
| 13>    H       -3.46147        4.24389        0.54124
| 14>    H       -5.38371        3.56381        1.02095
| 15>    H       -5.08194        4.65156       -0.80339
| 16>    H       -2.40808        2.11624        0.81331
| 17>    H       -1.92949       -0.12654       -0.12011
| 18>    N       -5.19375        0.30400       -3.24263
| 19>    O       -4.90311       -0.66042       -3.77140
| 20>    O       -6.06198        0.90385       -3.59358
| 21>    H       -9.68797       -0.40759        3.15111
| 22> **                         ****END OF INPUT****
================================================================================

                       *****************************
                       * Geometry Optimization Run *
                       *****************************

Geometry optimization settings:
Update method            Update   .... BFGS
Choice of coordinates    CoordSys .... Z-matrix Internals
Initial Hessian          InHess   .... Almoef's Model

Convergence Tolerances:
Energy Change            TolE     ....  5.0000e-06 Eh
Max. Gradient            TolMAXG  ....  3.0000e-04 Eh/bohr
RMS Gradient             TolRMSG  ....  1.0000e-04 Eh/bohr
Max. Displacement        TolMAXD  ....  4.0000e-03 bohr
RMS Displacement         TolRMSD  ....  2.0000e-03 bohr
Strict Convergence                ....  False
------------------------------------------------------------------------------
                        ORCA OPTIMIZATION COORDINATE SETUP
------------------------------------------------------------------------------

The optimization will be done in new redundant internal coordinates
Making redundant internal coordinates   ...  (new redundants) done
Evaluating the initial hessian          ...  (Almloef) done
Evaluating the coordinates              ...  done
Calculating the B-matrix                .... done
Calculating the G-matrix                .... done
Diagonalizing the G-matrix              .... done
Small eigenvalue found = 5.636e-03
The first mode is                       ....   35
The number of degrees of freedom        ....   48

    -----------------------------------------------------------------
                    Redundant Internal Coordinates


    -----------------------------------------------------------------
         Definition                    Initial Value    Approx d2E/dq
    -----------------------------------------------------------------
      1. B(C   1,C   0)                  1.4043         0.592736   
      2. B(C   2,C   1)                  1.3958         0.611522   
      3. B(C   3,C   2)                  1.3930         0.617856   
      4. B(C   4,C   3)                  1.3979         0.607034   
      5. B(C   5,C   4)                  1.3961         0.610985   
      6. B(C   5,C   0)                  1.3855         0.635139   
      7. B(C   6,C   0)                  1.5397         0.360520   
      8. B(H   7,C   3)                  1.0843         0.367720   
      9. B(H   8,C   1)                  1.0845         0.367470   
     10. B(H   9,C   6)                  1.1412         0.298374   
     11. B(H  10,C   6)                  1.3750         0.126388   
     12. B(H  11,C   6)                  1.3576         0.134757   
     13. B(H  12,C   5)                  1.0808         0.372421   
     14. B(H  13,C   4)                  1.0840         0.368066   
     15. B(N  14,C   2)                  1.3568         0.632299   
     16. B(O  15,N  14)                  1.1376         1.266693   
     17. B(O  16,N  14)                  1.1121         1.391084   
     18. B(H  17,H  10)                  6.2319         0.000000   
     19. A(C   1,C   0,C   5)          119.7786         0.432442   
     20. A(C   1,C   0,C   6)          118.6449         0.391126   
     21. A(C   5,C   0,C   6)          121.3536         0.395888   
     22. A(C   0,C   1,C   2)          120.7592         0.429509   
     23. A(C   2,C   1,H   8)          120.1147         0.353297   
     24. A(C   0,C   1,H   8)          119.1240         0.351437   
     25. A(C   3,C   2,N  14)          120.6943         0.432482   
     26. A(C   1,C   2,N  14)          120.2574         0.431682   
     27. A(C   1,C   2,C   3)          119.0387         0.432723   
     28. A(C   2,C   3,C   4)          120.3052         0.432150   
     29. A(C   4,C   3,H   7)          119.0768         0.352897   
     30. A(C   2,C   3,H   7)          120.6178         0.353955   
     31. A(C   3,C   4,H  13)          119.6746         0.352954   
     32. A(C   5,C   4,H  13)          119.9690         0.353341   
     33. A(C   3,C   4,C   5)          120.3564         0.431283   
     34. A(C   0,C   5,C   4)          119.7608         0.434807   
     35. A(C   4,C   5,H  12)          119.8729         0.354046   
     36. A(C   0,C   5,H  12)          120.3632         0.356382   
     37. A(H   9,C   6,H  10)          112.3758         0.241617   
     38. A(C   0,C   6,H  10)          106.8166         0.273179   
     39. A(C   0,C   6,H   9)          103.7588         0.312706   
     40. A(H  10,C   6,H  11)          103.4581         0.216488   
     41. A(H   9,C   6,H  11)          118.0052         0.243848   
     42. A(C   0,C   6,H  11)          112.1307         0.275872   
     43. A(C   6,H  10,H  17)          148.0785         0.090218   
     44. A(O  15,N  14,O  16)          120.6661         0.560051   
     45. A(C   2,N  14,O  16)          118.2944         0.494912   
     46. A(C   2,N  14,O  15)          121.0370         0.486396   
     47. D(C   2,C   1,C   0,C   5)     -0.0035         0.024189   
     48. D(C   2,C   1,C   0,C   6)   -174.6535         0.024189   
     49. D(H   8,C   1,C   0,C   6)      5.8812         0.024189   
     50. D(H   8,C   1,C   0,C   5)   -179.4688         0.024189   
     51. D(C   3,C   2,C   1,C   0)      0.2656         0.025835   
     52. D(C   3,C   2,C   1,H   8)    179.7257         0.025835   
     53. D(N  14,C   2,C   1,H   8)      0.8456         0.025835   
     54. D(N  14,C   2,C   1,C   0)   -178.6144         0.025835   
     55. D(H   7,C   3,C   2,N  14)     -1.3655         0.026405   
     56. D(H   7,C   3,C   2,C   1)    179.7595         0.026405   
     57. D(C   4,C   3,C   2,N  14)    178.4656         0.026405   
     58. D(C   4,C   3,C   2,C   1)     -0.4094         0.026405   
     59. D(C   5,C   4,C   3,H   7)   -179.8712         0.025436   
     60. D(H  13,C   4,C   3,C   2)   -179.6787         0.025436   
     61. D(C   5,C   4,C   3,C   2)      0.2952         0.025436   
     62. D(H  13,C   4,C   3,H   7)      0.1550         0.025436   
     63. D(H  12,C   5,C   4,H  13)      0.5807         0.025787   
     64. D(C   0,C   5,C   4,H  13)    179.9454         0.025787   
     65. D(C   0,C   5,C   4,C   3)     -0.0284         0.025787   
     66. D(H  12,C   5,C   0,C   6)     -6.2529         0.027999   
     67. D(H  12,C   5,C   0,C   1)    179.2456         0.027999   
     68. D(H  12,C   5,C   4,C   3)   -179.3931         0.025787   
     69. D(C   4,C   5,C   0,C   6)    174.3856         0.027999   
     70. D(C   4,C   5,C   0,C   1)     -0.1159         0.027999   
     71. D(H  11,C   6,C   0,C   5)    159.2705         0.009771   
     72. D(H  11,C   6,C   0,C   1)    -26.1673         0.009771   
     73. D(H  10,C   6,C   0,C   5)    -88.0621         0.009771   
     74. D(H  10,C   6,C   0,C   1)     86.5000         0.009771   
     75. D(H   9,C   6,C   0,C   5)     30.8482         0.009771   
     76. D(H   9,C   6,C   0,C   1)   -154.5896         0.009771   
     77. D(H  17,H  10,C   6,C   0)    -21.0842         0.011707   
     78. D(H  17,H  10,C   6,H  11)     97.4047         0.011707   
     79. D(H  17,H  10,C   6,H   9)   -134.2326         0.011707   
     80. D(O  16,N  14,C   2,C   3)    174.0548         0.032476   
     81. D(O  16,N  14,C   2,C   1)     -7.0839         0.032476   
     82. D(O  15,N  14,C   2,C   3)     -6.5266         0.032476   
     83. D(O  15,N  14,C   2,C   1)    172.3347         0.032476   
    -----------------------------------------------------------------

Number of atoms                         .... 18
Number of degrees of freedom            .... 83

         *************************************************************
         *                GEOMETRY OPTIMIZATION CYCLE   1            *
         *************************************************************
---------------------------------
CARTESIAN COORDINATES (ANGSTROEM)
---------------------------------
  C     -4.009900    2.511750   -0.557680
  C     -4.755060    2.018780   -1.641140
  C     -4.486220    0.758660   -2.177990
  C     -3.468040   -0.010940   -1.619790
  C     -2.722960    0.478860   -0.543250
  C     -2.995520    1.741150   -0.012790
  C     -4.426920    3.851470    0.076250
  H     -3.240070   -0.994940   -2.014100
  H     -5.540840    2.634430   -2.064970
  H     -3.461470    4.243890    0.541240
  H     -5.383710    3.563810    1.020950
  H     -5.081940    4.651560   -0.803390
  H     -2.408080    2.116240    0.813310
  H     -1.929490   -0.126540   -0.120110
  N     -5.193750    0.304000   -3.242630
  O     -4.903110   -0.660420   -3.771400
  O     -6.061980    0.903850   -3.593580
  H     -9.687970   -0.407590    3.151110

----------------------------
CARTESIAN COORDINATES (A.U.)
----------------------------
  NO LB      ZA    FRAG     MASS         X           Y           Z
   0 C     6.0000    0    12.011   -7.577613    4.746520   -1.053862
   1 C     6.0000    0    12.011   -8.985761    3.814941   -3.101305
   2 C     6.0000    0    12.011   -8.477727    1.433660   -4.115805
   3 C     6.0000    0    12.011   -6.553646   -0.020674   -3.060959
   4 C     6.0000    0    12.011   -5.145649    0.904914   -1.026594
   5 C     6.0000    0    12.011   -5.660712    3.290297   -0.024170
   6 C     6.0000    0    12.011   -8.365666    7.278224    0.144092
   7 H     1.0000    0     1.008   -6.122845   -1.880164   -3.806097
   8 H     1.0000    0     1.008  -10.470670    4.978351   -3.902228
   9 H     1.0000    0     1.008   -6.541230    8.019790    1.022795
  10 H     1.0000    0     1.008  -10.173737    6.734625    1.929316
  11 H     1.0000    0     1.008   -9.603475    8.790174   -1.518187
  12 H     1.0000    0     1.008   -4.550612    3.999114    1.536933
  13 H     1.0000    0     1.008   -3.646208   -0.239126   -0.226975
  14 N     7.0000    0    14.007   -9.814765    0.574477   -6.127683
  15 O     8.0000    0    15.999   -9.265535   -1.248013   -7.126913
  16 O     8.0000    0    15.999  -11.455482    1.708029   -6.790882
  17 H     1.0000    0     1.008  -18.307610   -0.770233    5.954735

--------------------------------
INTERNAL COORDINATES (ANGSTROEM)
--------------------------------
 C      0   0   0     0.000000000000     0.00000000     0.00000000
 C      1   0   0     1.404339139275     0.00000000     0.00000000
 C      2   1   0     1.395845723030   120.75919979     0.00000000
 C      3   2   1     1.393040527910   119.03870350     0.26564924
 C      4   3   2     1.397850713775   120.30518975   359.59056493
 C      1   2   3     1.385531037725   119.77860493     0.00000000
 C      1   2   3     1.539682630837   118.64491579   185.34649704
 H      4   3   2     1.084300095453   120.61777217   179.75949067
 H      2   1   3     1.084484670154   119.12396589   180.53467929
 H      7   1   2     1.141184848743   103.75883295   205.41039446
 H      7   1   2     1.375010352579   106.81659738    86.50002755
 H      7   1   2     1.357557268810   112.13065688   333.83266894
 H      6   1   2     1.080842019770   120.36322365   179.24563102
 H      5   4   3     1.084043938455   119.67461139   180.32131238
 N      3   2   1     1.356750804717   120.25739576   181.38560696
 O     15   3   2     1.137618239525   121.03696580   172.33470407
 O     15   3   2     1.112119264243   118.29437272   352.91614489
 H     11   7   1     6.231874014548   148.07851997   338.91582874

---------------------------
INTERNAL COORDINATES (A.U.)
---------------------------
 C      0   0   0     0.000000000000     0.00000000     0.00000000
 C      1   0   0     2.653816372377     0.00000000     0.00000000
 C      2   1   0     2.637766141731   120.75919979     0.00000000
 C      3   2   1     2.632465091203   119.03870350     0.26564924
 C      4   3   2     2.641555025140   120.30518975   359.59056493
 C      1   2   3     2.618274211348   119.77860493     0.00000000
 C      1   2   3     2.909578505437   118.64491579   185.34649704
 H      4   3   2     2.049030227391   120.61777217   179.75949067
 H      2   1   3     2.049379023028   119.12396589   180.53467929
 H      7   1   2     2.156526832304   103.75883295   205.41039446
 H      7   1   2     2.598392997681   106.81659738    86.50002755
 H      7   1   2     2.565411449166   112.13065688   333.83266894
 H      6   1   2     2.042495411399   120.36322365   179.24563102
 H      5   4   3     2.048546160816   119.67461139   180.32131238
 N      3   2   1     2.563887452892   120.25739576   181.38560696
 O     15   3   2     2.149786917656   121.03696580   172.33470407
 O     15   3   2     2.101600837677   118.29437272   352.91614489
 H     11   7   1    11.776535188596   148.07851997   338.91582874

---------------------
BASIS SET INFORMATION
---------------------
There are 4 groups of distinct atoms

 Group   1 Type C   : 7s4p1d contracted to 3s2p1d pattern {511/31/1}
 Group   2 Type H   : 4s1p contracted to 2s1p pattern {31/1}
 Group   3 Type N   : 7s4p1d contracted to 3s2p1d pattern {511/31/1}
 Group   4 Type O   : 7s4p1d contracted to 3s2p1d pattern {511/31/1}

Atom   0C    basis set group =>   1
Atom   1C    basis set group =>   1
Atom   2C    basis set group =>   1
Atom   3C    basis set group =>   1
Atom   4C    basis set group =>   1
Atom   5C    basis set group =>   1
Atom   6C    basis set group =>   1
Atom   7H    basis set group =>   2
Atom   8H    basis set group =>   2
Atom   9H    basis set group =>   2
Atom  10H    basis set group =>   2
Atom  11H    basis set group =>   2
Atom  12H    basis set group =>   2
Atom  13H    basis set group =>   2
Atom  14N    basis set group =>   3
Atom  15O    basis set group =>   4
Atom  16O    basis set group =>   4
Atom  17H    basis set group =>   2
---------------------------------
AUXILIARY/J BASIS SET INFORMATION
---------------------------------
There are 4 groups of distinct atoms

 Group   1 Type C   : 12s5p4d2f1g contracted to 6s4p3d1f1g pattern {711111/2111/211/2/1}
 Group   2 Type H   : 5s2p1d contracted to 3s1p1d pattern {311/2/1}
 Group   3 Type N   : 12s5p4d2f1g contracted to 6s4p3d1f1g pattern {711111/2111/211/2/1}
 Group   4 Type O   : 12s5p4d2f1g contracted to 6s4p3d1f1g pattern {711111/2111/211/2/1}

Atom   0C    basis set group =>   1
Atom   1C    basis set group =>   1
Atom   2C    basis set group =>   1
Atom   3C    basis set group =>   1
Atom   4C    basis set group =>   1
Atom   5C    basis set group =>   1
Atom   6C    basis set group =>   1
Atom   7H    basis set group =>   2
Atom   8H    basis set group =>   2
Atom   9H    basis set group =>   2
Atom  10H    basis set group =>   2
Atom  11H    basis set group =>   2
Atom  12H    basis set group =>   2
Atom  13H    basis set group =>   2
Atom  14N    basis set group =>   3
Atom  15O    basis set group =>   4
Atom  16O    basis set group =>   4
Atom  17H    basis set group =>   2
------------------------------------------------------------------------------
                           ORCA GTO INTEGRAL CALCULATION
                           -- RI-GTO INTEGRALS CHOSEN --
------------------------------------------------------------------------------
------------------------------------------------------------------------------
                   ___                                                        
                  /   \      - P O W E R E D   B Y -                         
                 /     \                                                     
                 |  |  |   _    _      __       _____    __    __             
                 |  |  |  | |  | |    /  \     |  _  \  |  |  /  |          
                  \  \/   | |  | |   /    \    | | | |  |  | /  /          
                 / \  \   | |__| |  /  /\  \   | |_| |  |  |/  /          
                |  |  |   |  __  | /  /__\  \  |    /   |      \           
                |  |  |   | |  | | |   __   |  |    \   |  |\   \          
                \     /   | |  | | |  |  |  |  | |\  \  |  | \   \       
                 \___/    |_|  |_| |__|  |__|  |_| \__\ |__|  \__/        
                                                                              
                      - O R C A' S   B I G   F R I E N D -                    
                                      &                                       
                       - I N T E G R A L  F E E D E R -                       
                                                                              
 v1 FN, 2020, v2 2021                                                         
------------------------------------------------------------------------------


Reading SHARK input file meta_products_optfreq3.SHARKINP.tmp ... ok
----------------------
SHARK INTEGRAL PACKAGE
----------------------

Number of atoms                             ...     18
Number of basis functions                   ...    180
Number of shells                            ...     84
Maximum angular momentum                    ...      2
Integral batch strategy                     ... SHARK/LIBINT Hybrid
RI-J (if used) integral strategy            ... SPLIT-RIJ (Revised 2003 algorithm where possible)
Printlevel                                  ...      1
Contraction scheme used                     ... SEGMENTED contraction
Coulomb Range Separation                    ... NOT USED
Exchange Range Separation                   ... NOT USED
Finite Nucleus Model                        ... NOT USED
Auxiliary Coulomb fitting basis             ... AVAILABLE
   # of basis functions in Aux-J            ...    578
   # of shells in Aux-J                     ...    190
   Maximum angular momentum in Aux-J        ...      4
Auxiliary J/K fitting basis                 ... NOT available
Auxiliary Correlation fitting basis         ... NOT available
Auxiliary 'external' fitting basis          ... NOT available
Integral threshold                          ...     2.500000e-11
Primitive cut-off                           ...     2.500000e-12
Primitive pair pre-selection threshold      ...     2.500000e-12

Calculating pre-screening integrals         ... done (  0.1 sec) Dimension = 84
Organizing shell pair data                  ... done (  0.1 sec)
Shell pair information
Total number of shell pairs                 ...      3570
Shell pairs after pre-screening             ...      3135
Total number of primitive shell pairs       ...     13034
Primitive shell pairs kept                  ...      8117
          la=0 lb=0:    951 shell pairs
          la=1 lb=0:   1139 shell pairs
          la=1 lb=1:    359 shell pairs
          la=2 lb=0:    398 shell pairs
          la=2 lb=1:    240 shell pairs
          la=2 lb=2:     48 shell pairs

Calculating one electron integrals          ... done (  0.0 sec)
Calculating RI/J V-Matrix + Cholesky decomp.... done (  0.0 sec)
Calculating Nuclear repulsion               ... done (  0.0 sec) ENN=    509.720134128577 Eh

SHARK setup successfully completed in   0.4 seconds

Maximum memory used throughout the entire GTOINT-calculation: 24.8 MB
-------------------------------------------------------------------------------
                                 ORCA SCF
-------------------------------------------------------------------------------

------------
SCF SETTINGS
------------
Hamiltonian:
 Density Functional     Method          .... DFT(GTOs)
 Exchange Functional    Exchange        .... B88
   X-Alpha parameter    XAlpha          ....  0.666667
   Becke's b parameter  XBeta           ....  0.004200
 Correlation Functional Correlation     .... LYP
 LDA part of GGA corr.  LDAOpt          .... VWN-5
 Gradients option       PostSCFGGA      .... off
 Hybrid DFT is turned on
   Fraction HF Exchange ScalHFX         ....  0.200000
   Scaling of DF-GGA-X  ScalDFX         ....  0.720000
   Scaling of DF-GGA-C  ScalDFC         ....  0.810000
   Scaling of DF-LDA-C  ScalLDAC        ....  1.000000
   Perturbative correction              ....  0.000000
   Density functional embedding theory  .... OFF
   NL short-range parameter             ....  4.800000
 RI-approximation to the Coulomb term is turned on
   Number of AuxJ basis functions       .... 578
   RIJ-COSX (HFX calculated with COS-X)).... on


General Settings:
 Integral files         IntName         .... meta_products_optfreq3
 Hartree-Fock type      HFTyp           .... RHF
 Total Charge           Charge          ....    1
 Multiplicity           Mult            ....    1
 Number of Electrons    NEL             ....   72
 Basis Dimension        Dim             ....  180
 Nuclear Repulsion      ENuc            ....    509.7201341286 Eh

Convergence Acceleration:
 DIIS                   CNVDIIS         .... on
   Start iteration      DIISMaxIt       ....    12
   Startup error        DIISStart       ....  0.200000
   # of expansion vecs  DIISMaxEq       ....     5
   Bias factor          DIISBfac        ....   1.050
   Max. coefficient     DIISMaxC        ....  10.000
 Trust-Rad. Augm. Hess. CNVTRAH         .... auto
   Auto Start mean grad. ratio tolernc. ....  1.125000
   Auto Start start iteration           ....    20
   Auto Start num. interpolation iter.  ....    10
   Max. Number of Micro iterations      ....    16
   Max. Number of Macro iterations      .... Maxiter - #DIIS iter
   Number of Davidson start vectors     ....     2
   Converg. threshold I  (grad. norm)   ....   1.000e-05
   Converg. threshold II (energy diff.) ....   1.000e-08
   Grad. Scal. Fac. for Micro threshold ....   0.100
   Minimum threshold for Micro iter.    ....   0.010
   NR start threshold (gradient norm)   ....   0.001
   Initial trust radius                 ....   0.400
   Minimum AH scaling param. (alpha)    ....   1.000
   Maximum AH scaling param. (alpha)    .... 1000.000
   Orbital update algorithm             .... Taylor
   White noise on init. David. guess    .... on
   Maximum white noise                  ....   0.010
   Quad. conv. algorithm                .... NR
 SOSCF                  CNVSOSCF        .... on
   Start iteration      SOSCFMaxIt      ....   150
   Startup grad/error   SOSCFStart      ....  0.003300
 Level Shifting         CNVShift        .... on
   Level shift para.    LevelShift      ....    0.2500
   Turn off err/grad.   ShiftErr        ....    0.0010
 Zerner damping         CNVZerner       .... off
 Static damping         CNVDamp         .... on
   Fraction old density DampFac         ....    0.7000
   Max. Damping (<1)    DampMax         ....    0.9800
   Min. Damping (>=0)   DampMin         ....    0.0000
   Turn off err/grad.   DampErr         ....    0.1000
 Fernandez-Rico         CNVRico         .... off

SCF Procedure:
 Maximum # iterations   MaxIter         ....   125
 SCF integral mode      SCFMode         .... Direct
   Integral package                     .... SHARK and LIBINT hybrid scheme
 Reset frequency        DirectResetFreq ....    20
 Integral Threshold     Thresh          ....  2.500e-11 Eh
 Primitive CutOff       TCut            ....  2.500e-12 Eh

Convergence Tolerance:
 Convergence Check Mode ConvCheckMode   .... Total+1el-Energy
 Convergence forced     ConvForced      .... 0
 Energy Change          TolE            ....  1.000e-08 Eh
 1-El. energy change                    ....  1.000e-05 Eh
 Orbital Gradient       TolG            ....  1.000e-05
 Orbital Rotation angle TolX            ....  1.000e-05
 DIIS Error             TolErr          ....  5.000e-07


Diagonalization of the overlap matrix:
Smallest eigenvalue                        ... 2.634e-04
Time for diagonalization                   ...    0.009 sec
Threshold for overlap eigenvalues          ... 1.000e-08
Number of eigenvalues below threshold      ... 0
Time for construction of square roots      ...    0.006 sec
Total time needed                          ...    0.015 sec

Time for model grid setup =    1.044 sec

------------------------------
INITIAL GUESS: MODEL POTENTIAL
------------------------------
Loading Hartree-Fock densities                     ... done
Calculating cut-offs                               ... done
Initializing the effective Hamiltonian             ... done
Setting up the integral package (SHARK)            ... done
Starting the Coulomb interaction                   ... done (   1.0 sec)
Reading the grid                                   ... done
Mapping shells                                     ... done
Starting the XC term evaluation                    ... done (   1.2 sec)
  promolecular density results
     # of electrons  =     72.989211735
     EX              =    -61.356754321
     EC              =     -2.485706900
     EX+EC           =    -63.842461221
Transforming the Hamiltonian                       ... done (   0.0 sec)
Diagonalizing the Hamiltonian                      ... done (   0.0 sec)
Back transforming the eigenvectors                 ... done (   0.0 sec)
Now organizing SCF variables                       ... done
                      ------------------
                      INITIAL GUESS DONE (   3.3 sec)
                      ------------------
-------------------
DFT GRID GENERATION
-------------------

General Integration Accuracy     IntAcc      ... 4.388
Radial Grid Type                 RadialGrid  ... OptM3 with GC (2021)
Angular Grid (max. ang.)         AngularGrid ... 4 (Lebedev-302)
Angular grid pruning method      GridPruning ... 4 (adaptive)
Weight generation scheme         WeightScheme... Becke
Basis function cutoff            BFCut       ... 1.0000e-11
Integration weight cutoff        WCut        ... 1.0000e-14
Angular grids for H and He will be reduced by one unit
Partially contracted basis set               ... off
Rotationally invariant grid construction     ... off

Total number of grid points                  ...    86278
Total number of batches                      ...     1356
Average number of points per batch           ...       63
Average number of grid points per atom       ...     4793
Time for grid setup =    4.680 sec

--------------------
COSX GRID GENERATION
--------------------

GRIDX 1
-------
General Integration Accuracy     IntAcc      ... 3.816
Radial Grid Type                 RadialGrid  ... OptM3 with GC (2021)
Angular Grid (max. ang.)         AngularGrid ... 1 (Lebedev-50)
Angular grid pruning method      GridPruning ... 4 (adaptive)
Weight generation scheme         WeightScheme... Becke
Basis function cutoff            BFCut       ... 1.0000e-11
Integration weight cutoff        WCut        ... 1.0000e-14
Angular grids for H and He will be reduced by one unit
Partially contracted basis set               ... on
Rotationally invariant grid construction     ... off

Total number of grid points                  ...    10997
Total number of batches                      ...      178
Average number of points per batch           ...       61
Average number of grid points per atom       ...      611
UseSFitting                                  ... on

GRIDX 2
-------
General Integration Accuracy     IntAcc      ... 4.020
Radial Grid Type                 RadialGrid  ... OptM3 with GC (2021)
Angular Grid (max. ang.)         AngularGrid ... 2 (Lebedev-110)
Angular grid pruning method      GridPruning ... 4 (adaptive)
Weight generation scheme         WeightScheme... Becke
Basis function cutoff            BFCut       ... 1.0000e-11
Integration weight cutoff        WCut        ... 1.0000e-14
Angular grids for H and He will be reduced by one unit
Partially contracted basis set               ... on
Rotationally invariant grid construction     ... off

Total number of grid points                  ...    24194
Total number of batches                      ...      387
Average number of points per batch           ...       62
Average number of grid points per atom       ...     1344
UseSFitting                                  ... on

GRIDX 3
-------
General Integration Accuracy     IntAcc      ... 4.338
Radial Grid Type                 RadialGrid  ... OptM3 with GC (2021)
Angular Grid (max. ang.)         AngularGrid ... 3 (Lebedev-194)
Angular grid pruning method      GridPruning ... 4 (adaptive)
Weight generation scheme         WeightScheme... Becke
Basis function cutoff            BFCut       ... 1.0000e-11
Integration weight cutoff        WCut        ... 1.0000e-14
Angular grids for H and He will be reduced by one unit
Partially contracted basis set               ... on
Rotationally invariant grid construction     ... off

Total number of grid points                  ...    53276
Total number of batches                      ...      838
Average number of points per batch           ...       63
Average number of grid points per atom       ...     2960
UseSFitting                                  ... on

Time for X-Grid setup             =    4.448 sec

--------------
SCF ITERATIONS
--------------
ITER       Energy         Delta-E        Max-DP      RMS-DP      [F,P]     Damp
               ***  Starting incremental Fock matrix formation  ***
  0   -475.1094655218   0.000000000000 0.22800362  0.00371374  0.1918292 0.7000
  1   -475.3081704747  -0.198704952938 0.14935684  0.00251396  0.0566473 0.7000
                               ***Turning on DIIS***
  2   -475.2703092969   0.037861177774 0.37736043  0.00632671  0.0546942 0.0000
  3   -475.1641819441   0.106127352863 0.01952965  0.00054024  0.2284813 0.7000
  4   -475.1981342857  -0.033952341676 0.01867427  0.00056046  0.1989902 0.7000
  5   -475.2286264589  -0.030492173204 0.01530746  0.00048136  0.1710310 0.7000
  6   -475.2522007087  -0.023574249722 0.01231401  0.00040263  0.1481562 0.7000
  7   -475.2701917844  -0.017991075766 0.02678350  0.00109866  0.1296609 0.7000
  8   -475.2979873712  -0.027795586804 0.06034085  0.00297089  0.0849091 0.0000
  9   -475.3451876665  -0.047200295256 0.46353531  0.00613843  0.0248312 0.0000
 10   -475.2519281711   0.093259495406 0.06729125  0.00087117  0.3275678 0.7000
 11   -475.1584137071   0.093514464011 0.07174673  0.00103760  0.3729432 0.7000
 12   -475.0349175282   0.123496178899 0.05829401  0.00093998  0.3788299 0.7000
 13   -474.9184656411   0.116451887095 0.05071733  0.00078660  0.3428760 0.7000
 14   -474.8272684515   0.091197189537 0.04517741  0.00097234  0.2840114 0.7000
 15   -474.8400548540  -0.012786402434 0.22730612  0.00268206  0.2567400 0.7000
 16   -475.2601222917  -0.420067437690 0.16035559  0.00179791  0.1092704 0.7000
 17   -475.3926775994  -0.132555307780 0.37463339  0.00409989  0.0430959 0.0000
 18   -475.2967333677   0.095944231787 0.00530133  0.00020850  0.0920613 0.0000
 19   -475.2972340675  -0.000500699882 0.00252981  0.00010239  0.0971551 0.0000
               *** Restarting incremental Fock matrix formation ***
                                   *** Resetting DIIS ***
 20   -475.2975753449  -0.000341277367 0.83287419  0.00987975  0.0988370 0.0000

 WARNING: the maximum gradient error descreased on average only by a factor   1.1
          during the last 20 iterations

                      *** Initiating the TRAH-SCF procedure ***


TRAH GRIDX
----------

General Integration Accuracy     IntAcc      ... 3.067
Radial Grid Type                 RadialGrid  ... OptM3 with GC (2021)
Angular Grid (max. ang.)         AngularGrid ... 1 (Lebedev-50)
Angular grid pruning method      GridPruning ... 4 (adaptive)
Weight generation scheme         WeightScheme... Becke
Basis function cutoff            BFCut       ... 1.0000e-11
Integration weight cutoff        WCut        ... 1.0000e-14
Angular grids for H and He will be reduced by one unit
Partially contracted basis set               ... on
Rotationally invariant grid construction     ... off

Total number of grid points                  ...     5810
Total number of batches                      ...      102
Average number of points per batch           ...       56
Average number of grid points per atom       ...      323


TRAH GRID
---------

General Integration Accuracy     IntAcc      ... 3.467
Radial Grid Type                 RadialGrid  ... OptM3 with GC (2021)
Angular Grid (max. ang.)         AngularGrid ... 1 (Lebedev-50)
Angular grid pruning method      GridPruning ... 4 (adaptive)
Weight generation scheme         WeightScheme... Becke
Basis function cutoff            BFCut       ... 1.0000e-11
Integration weight cutoff        WCut        ... 1.0000e-14
Angular grids for H and He will be reduced by one unit
Partially contracted basis set               ... off
Rotationally invariant grid construction     ... off

Total number of grid points                  ...    12672
Total number of batches                      ...      208
Average number of points per batch           ...       60
Average number of grid points per atom       ...      704

 --------------------------------------------------------------------------------------------
   Iter.        energy            ||Error||_2        Shift      TRadius  Mac/Mic        Rej.
 --------------------------------------------------------------------------------------------
WARNING: 64 diagonal Hessian elements are negative!
    0       -474.245519756764     2.887329e+00                     0.400 (TRAH MAcro)   No
WARNING : negative HOMO - LUMO gap : -1.436560
    0     dE    -4.994247e-01     3.255650e+00    -2.7734e+00      0.322 (TRAH MIcro)
    0     dE    -8.124507e-01     6.435267e-01    -6.1766e+00      0.400 (TRAH MIcro)
    0     dE    -8.210174e-01     4.386311e-01    -6.3685e+00      0.400 (TRAH MIcro)
    0     dE    -7.987165e-01     2.426223e-01    -6.3759e+00      0.391 (TRAH MIcro)
    0     dE    -8.229827e-01     4.940288e-02    -6.3183e+00      0.400 (TRAH MIcro)
    0     dE    -8.230503e-01     1.553008e-02    -6.3124e+00      0.400 (TRAH MIcro)
    0     dE    -8.230553e-01     8.542164e-03    -6.3124e+00      0.400 (TRAH MIcro)
WARNING: 23 diagonal Hessian elements are negative!
    1       -474.940145098049     1.535963e+00                     0.480 (TRAH MAcro)   No
WARNING : negative HOMO - LUMO gap : -0.627641
    1     dE    -4.691333e-01     3.421894e+00    -1.0770e+00      0.480 (TRAH MIcro)
    1     dE    -6.930036e-01     2.968350e-01    -3.4153e+00      0.480 (TRAH MIcro)
    1     dE    -6.968286e-01     8.851168e-02    -3.4416e+00      0.480 (TRAH MIcro)
    1     dE    -6.973078e-01     3.906488e-02    -3.4452e+00      0.480 (TRAH MIcro)
    1     dE    -6.973949e-01     9.360802e-03    -3.4434e+00      0.480 (TRAH MIcro)
    2       -475.399297035529     4.153369e-01                     0.480 (TRAH MAcro)   No
WARNING : small    HOMO - LUMO gap : 0.000520
    2     dE    -1.879186e-02     4.595102e-01    -3.7283e-02      0.090 (TRAH MIcro)
    2     dE    -2.599738e-02     2.813384e-01    -5.1107e-02      0.132 (TRAH MIcro)
    2     dE    -3.358030e-02     1.269015e-01    -6.3448e-02      0.242 (TRAH MIcro)
    2     dE    -4.056050e-02     1.418724e-01    -6.8404e-02      0.431 (TRAH MIcro)
    2     dE    -4.169643e-02     2.634649e-02    -1.0012e-01      0.432 (TRAH MIcro)
    2     dE    -4.262400e-02     1.293711e-02    -1.0024e-01      0.452 (TRAH MIcro)
    2     dE    -4.294002e-02     6.493949e-03    -1.0029e-01      0.458 (TRAH MIcro)
    3       -475.438443352719     2.820500e-01                     0.576 (TRAH MAcro)   No
    3     dE    -7.898581e-03     2.861595e-01    -1.5745e-02      0.058 (TRAH MIcro)
    3     dE    -1.032067e-02     1.582550e-01    -2.0497e-02      0.084 (TRAH MIcro)
    3     dE    -1.409259e-02     8.015207e-02    -2.7545e-02      0.152 (TRAH MIcro)
    3     dE    -1.456240e-02     2.945450e-02    -2.8362e-02      0.164 (TRAH MIcro)
    3     dE    -1.462088e-02     1.346889e-02    -2.8474e-02      0.164 (TRAH MIcro)
    3     dE    -1.463392e-02     5.443687e-03    -2.8498e-02      0.164 (TRAH MIcro)
    4       -475.454276045998     4.574937e-02                     0.691 (TRAH MAcro)   No
WARNING : small    HOMO - LUMO gap : 0.013119
    4     dE    -2.302485e-04     5.946846e-02    -4.6045e-04      0.010 (TRAH MIcro)
    4     dE    -9.867018e-04     6.561505e-02    -1.9662e-03      0.061 (TRAH MIcro)
    4     dE    -1.122583e-03     6.521251e-02    -2.2327e-03      0.075 (TRAH MIcro)
    4     dE    -1.529523e-03     2.839744e-02    -3.0239e-03      0.108 (TRAH MIcro)
    4     dE    -1.588628e-03     1.327145e-02    -3.1359e-03      0.115 (TRAH MIcro)
    4     dE    -1.609147e-03     6.301051e-03    -3.1733e-03      0.119 (TRAH MIcro)
    4     dE    -1.614082e-03     3.232006e-03    -3.1814e-03      0.121 (TRAH MIcro)
    5       -475.456009297094     2.707515e-02                     0.829 (TRAH MAcro)   No
WARNING : small    HOMO - LUMO gap : 0.016753
    5     dE    -8.783270e-05     3.268103e-02    -1.7566e-04      0.007 (TRAH MIcro)
    5     dE    -1.382211e-04     1.306064e-02    -2.7640e-04      0.012 (TRAH MIcro)
    5     dE    -1.803589e-04     1.438143e-02    -3.6057e-04      0.021 (TRAH MIcro)
    5     dE    -2.113241e-04     7.671418e-03    -4.2227e-04      0.030 (TRAH MIcro)
    5     dE    -2.165850e-04     3.962156e-03    -4.3271e-04      0.033 (TRAH MIcro)
    5     dE    -2.178285e-04     1.625953e-03    -4.3516e-04      0.034 (TRAH MIcro)
    6       -475.456250050022     3.776843e-03                     0.995 (TRAH MAcro)   No
WARNING : small    HOMO - LUMO gap : 0.014244
    6     dE    -1.205928e-06     4.021912e-03    -2.4119e-06      0.001 (TRAH MIcro)
    6     dE    -3.472908e-06     5.698938e-03    -6.9458e-06      0.003 (TRAH MIcro)
    6     dE    -7.572014e-06     4.774551e-03    -1.5143e-05      0.008 (TRAH MIcro)
    6     dE    -1.159726e-05     3.077748e-03    -2.3191e-05      0.013 (TRAH MIcro)
    6     dE    -1.239134e-05     1.012443e-03    -2.4778e-05      0.014 (TRAH MIcro)
    6     dE    -1.246999e-05     3.594485e-04    -2.4935e-05      0.014 (TRAH MIcro)
    7       -475.456263182157     6.216509e-04                           (NR   MAcro)
WARNING : small    HOMO - LUMO gap : 0.014048
    7     dE    -3.116952e-08     4.970237e-04                           (NR   MIcro)
    7     dE    -7.320090e-08     4.512144e-04                           (NR   MIcro)
    7     dE    -1.180446e-07     3.948091e-04                           (NR   MIcro)
    7     dE    -1.298312e-07     2.035545e-04                           (NR   MIcro)
    7     dE    -1.324341e-07     9.653940e-05                           (NR   MIcro)
    7     dE    -1.329062e-07     2.533371e-05                           (NR   MIcro)
    7     dE    -1.329595e-07     1.046419e-05                           (NR   MIcro)
    7     dE    -1.329793e-07     6.714693e-06                           (NR   MIcro)
    7     dE    -1.329828e-07     3.374649e-06                           (NR   MIcro)
    8       -475.456263311986     6.039092e-06                           (NR   MAcro)
WARNING : small    HOMO - LUMO gap : 0.014003
    8     dE    -3.080518e-12     4.743954e-06                           (NR   MIcro)
    8     dE    -7.006149e-12     4.530558e-06                           (NR   MIcro)
    8     dE    -1.086384e-11     4.123988e-06                           (NR   MIcro)
    8     dE    -1.213868e-11     2.037372e-06                           (NR   MIcro)
    8     dE    -1.237829e-11     9.797115e-07                           (NR   MIcro)
    9       -475.456263311965     9.731643e-07                           (NR   MAcro)
WARNING : small    HOMO - LUMO gap : 0.014002

               *****************************************************
               *                     SUCCESS                       *
               *           SCF CONVERGED AFTER  89 CYCLES          *
               *****************************************************

Old exchange energy                            =    -12.306306488 Eh
New exchange energy                            =    -12.306351752 Eh
Exchange energy change after final integration =     -0.000045263 Eh
Total energy after final integration           =   -475.456308575 Eh
Final COS-X integration done in                =    33.759 sec

----------------
TOTAL SCF ENERGY
----------------

Total Energy       :         -475.45630858 Eh          -12937.82390 eV

Components:
Nuclear Repulsion  :          509.72013413 Eh           13870.19000 eV
Electronic Energy  :         -985.17644270 Eh          -26808.01390 eV
One Electron Energy:        -1644.17014928 Eh          -44740.14431 eV
Two Electron Energy:          658.99370658 Eh           17932.13041 eV
Max COSX asymmetry :            0.00000439 Eh               0.00012 eV

Virial components:
Potential Energy   :         -947.54672949 Eh          -25784.05735 eV
Kinetic Energy     :          472.09042092 Eh           12846.23344 eV
Virial Ratio       :            2.00712975


DFT components:
N(Alpha)           :       35.999915864245 electrons
N(Beta)            :       35.999915864245 electrons
N(Total)           :       71.999831728490 electrons
E(X)               :      -49.077980765846 Eh       
E(C)               :       -2.897817155132 Eh       
E(XC)              :      -51.975797920977 Eh       
DFET-embed. en.    :        0.000000000000 Eh       

---------------
SCF CONVERGENCE
---------------

  Last Energy change         ...    2.0634e-11  Tolerance :   1.0000e-08
  Last Orbital Gradient      ...    9.7316e-07  Tolerance :   1.0000e-05
  Last Orbital Rotation      ...    1.3650e-05

             **** THE GBW FILE WAS UPDATED (meta_products_optfreq3.gbw) ****
             **** DENSITY meta_products_optfreq3.scfp WAS UPDATED ****
             **** ENERGY FILE WAS UPDATED (meta_products_optfreq3.en.tmp) ****
             **** THE GBW FILE WAS UPDATED (meta_products_optfreq3.gbw) ****
             **** DENSITY meta_products_optfreq3.scfp WAS UPDATED ****
----------------
ORBITAL ENERGIES
----------------

  NO   OCC          E(Eh)            E(eV) 
   0   2.0000     -19.294367      -525.0264 
   1   2.0000     -19.293418      -525.0006 
   2   2.0000     -14.707466      -400.2105 
   3   2.0000     -10.400961      -283.0245 
   4   2.0000     -10.398354      -282.9536 
   5   2.0000     -10.396277      -282.8971 
   6   2.0000     -10.390575      -282.7419 
   7   2.0000     -10.383176      -282.5406 
   8   2.0000     -10.374743      -282.3111 
   9   2.0000     -10.373504      -282.2774 
  10   2.0000      -1.465119       -39.8679 
  11   2.0000      -1.253381       -34.1062 
  12   2.0000      -1.062469       -28.9113 
  13   2.0000      -0.995101       -27.0781 
  14   2.0000      -0.939424       -25.5630 
  15   2.0000      -0.874208       -23.7884 
  16   2.0000      -0.835286       -22.7293 
  17   2.0000      -0.774132       -21.0652 
  18   2.0000      -0.745017       -20.2729 
  19   2.0000      -0.725283       -19.7360 
  20   2.0000      -0.700049       -19.0493 
  21   2.0000      -0.668725       -18.1969 
  22   2.0000      -0.667064       -18.1517 
  23   2.0000      -0.638482       -17.3740 
  24   2.0000      -0.610206       -16.6045 
  25   2.0000      -0.578985       -15.7550 
  26   2.0000      -0.572933       -15.5903 
  27   2.0000      -0.550142       -14.9701 
  28   2.0000      -0.534629       -14.5480 
  29   2.0000      -0.519783       -14.1440 
  30   2.0000      -0.509290       -13.8585 
  31   2.0000      -0.466901       -12.7050 
  32   2.0000      -0.460532       -12.5317 
  33   2.0000      -0.445117       -12.1122 
  34   2.0000      -0.426313       -11.6006 
  35   2.0000      -0.417764       -11.3679 
  36   0.0000      -0.403762       -10.9869 
  37   0.0000      -0.229062        -6.2331 
  38   0.0000      -0.194699        -5.2980 
  39   0.0000      -0.131619        -3.5815 
  40   0.0000      -0.108930        -2.9641 
  41   0.0000      -0.078201        -2.1280 
  42   0.0000      -0.068471        -1.8632 
  43   0.0000      -0.037621        -1.0237 
  44   0.0000      -0.014727        -0.4007 
  45   0.0000      -0.007573        -0.2061 
  46   0.0000      -0.000800        -0.0218 
  47   0.0000       0.026283         0.7152 
  48   0.0000       0.047445         1.2910 
  49   0.0000       0.071886         1.9561 
  50   0.0000       0.110691         3.0121 
  51   0.0000       0.120167         3.2699 
  52   0.0000       0.130936         3.5630 
  53   0.0000       0.134485         3.6595 
  54   0.0000       0.181979         4.9519 
  55   0.0000       0.216897         5.9021 
  56   0.0000       0.232603         6.3295 
  57   0.0000       0.244339         6.6488 
  58   0.0000       0.263168         7.1612 
  59   0.0000       0.269014         7.3202 
  60   0.0000       0.277323         7.5463 
  61   0.0000       0.286641         7.7999 
  62   0.0000       0.304243         8.2789 
  63   0.0000       0.312295         8.4980 
  64   0.0000       0.321280         8.7425 
  65   0.0000       0.338745         9.2177 
  66   0.0000       0.358461         9.7542 
  67   0.0000       0.367551        10.0016 
  68   0.0000       0.394682        10.7398 
  69   0.0000       0.407137        11.0788 
  70   0.0000       0.423459        11.5229 
  71   0.0000       0.436168        11.8687 
  72   0.0000       0.456124        12.4118 
  73   0.0000       0.466613        12.6972 
  74   0.0000       0.480441        13.0735 
  75   0.0000       0.489173        13.3111 
  76   0.0000       0.499447        13.5906 
  77   0.0000       0.506326        13.7778 
  78   0.0000       0.515690        14.0326 
  79   0.0000       0.520289        14.1578 
  80   0.0000       0.527185        14.3454 
  81   0.0000       0.560791        15.2599 
  82   0.0000       0.566233        15.4080 
  83   0.0000       0.568243        15.4627 
  84   0.0000       0.590819        16.0770 
  85   0.0000       0.612503        16.6671 
  86   0.0000       0.633818        17.2471 
  87   0.0000       0.656091        17.8531 
  88   0.0000       0.677189        18.4273 
  89   0.0000       0.742150        20.1949 
  90   0.0000       0.762426        20.7467 
  91   0.0000       0.784066        21.3355 
  92   0.0000       0.810931        22.0666 
  93   0.0000       0.846188        23.0260 
  94   0.0000       0.876832        23.8598 
  95   0.0000       0.878805        23.9135 
  96   0.0000       0.895225        24.3603 
  97   0.0000       0.916153        24.9298 
  98   0.0000       1.007203        27.4074 
  99   0.0000       1.019770        27.7493 
 100   0.0000       1.040579        28.3156 
 101   0.0000       1.054907        28.7055 
 102   0.0000       1.062754        28.9190 
 103   0.0000       1.097505        29.8646 
 104   0.0000       1.103846        30.0372 
 105   0.0000       1.118719        30.4419 
 106   0.0000       1.146269        31.1916 
 107   0.0000       1.174097        31.9488 
 108   0.0000       1.191340        32.4180 
 109   0.0000       1.191528        32.4231 
 110   0.0000       1.191544        32.4236 
 111   0.0000       1.211551        32.9680 
 112   0.0000       1.247879        33.9565 
 113   0.0000       1.257725        34.2244 
 114   0.0000       1.326333        36.0914 
 115   0.0000       1.340948        36.4891 
 116   0.0000       1.364447        37.1285 
 117   0.0000       1.375399        37.4265 
 118   0.0000       1.413908        38.4744 
 119   0.0000       1.465365        39.8746 
 120   0.0000       1.517784        41.3010 
 121   0.0000       1.522240        41.4223 
 122   0.0000       1.543212        41.9929 
 123   0.0000       1.564652        42.5763 
 124   0.0000       1.567580        42.6560 
 125   0.0000       1.572481        42.7894 
 126   0.0000       1.600270        43.5456 
 127   0.0000       1.619433        44.0670 
 128   0.0000       1.637210        44.5508 
 129   0.0000       1.646479        44.8030 
 130   0.0000       1.651076        44.9281 
 131   0.0000       1.689523        45.9743 
 132   0.0000       1.727369        47.0041 
 133   0.0000       1.754953        47.7547 
 134   0.0000       1.786319        48.6082 
 135   0.0000       1.793582        48.8059 
 136   0.0000       1.806099        49.1464 
 137   0.0000       1.827094        49.7178 
 138   0.0000       1.904952        51.8364 
 139   0.0000       1.911604        52.0174 
 140   0.0000       1.929158        52.4951 
 141   0.0000       1.953607        53.1603 
 142   0.0000       1.979258        53.8583 
 143   0.0000       2.001668        54.4682 
 144   0.0000       2.020470        54.9798 
 145   0.0000       2.051834        55.8333 
 146   0.0000       2.106766        57.3280 
 147   0.0000       2.110973        57.4425 
 148   0.0000       2.150737        58.5245 
 149   0.0000       2.175967        59.2111 
 150   0.0000       2.187093        59.5138 
 151   0.0000       2.227695        60.6187 
 152   0.0000       2.273413        61.8627 
 153   0.0000       2.302001        62.6406 
 154   0.0000       2.358289        64.1723 
 155   0.0000       2.383162        64.8491 
 156   0.0000       2.427630        66.0592 
 157   0.0000       2.454826        66.7992 
 158   0.0000       2.462772        67.0154 
 159   0.0000       2.473024        67.2944 
 160   0.0000       2.487035        67.6757 
 161   0.0000       2.515898        68.4611 
 162   0.0000       2.549290        69.3697 
 163   0.0000       2.570174        69.9380 
 164   0.0000       2.600277        70.7571 
 165   0.0000       2.636377        71.7395 
 166   0.0000       2.663444        72.4760 
 167   0.0000       2.684946        73.0611 
 168   0.0000       2.703971        73.5788 
 169   0.0000       2.770292        75.3835 
 170   0.0000       2.873813        78.2004 
 171   0.0000       2.915460        79.3337 
 172   0.0000       2.978345        81.0449 
 173   0.0000       3.088552        84.0438 
 174   0.0000       3.307468        90.0008 
 175   0.0000       3.323840        90.4463 
 176   0.0000       3.365663        91.5843 
 177   0.0000       3.506553        95.4182 
 178   0.0000       3.787297       103.0576 
 179   0.0000       3.828289       104.1730 

                    ********************************
                    * MULLIKEN POPULATION ANALYSIS *
                    ********************************

-----------------------
MULLIKEN ATOMIC CHARGES
-----------------------
   0 C :   -0.001111
   1 C :    0.004673
   2 C :    0.145395
   3 C :    0.027858
   4 C :    0.043683
   5 C :    0.059759
   6 C :   -0.104899
   7 H :    0.057519
   8 H :    0.037096
   9 H :    0.103184
  10 H :    0.141051
  11 H :    0.132747
  12 H :    0.031730
  13 H :    0.050525
  14 N :    0.285802
  15 O :   -0.158536
  16 O :   -0.150240
  17 H :    0.293763
Sum of atomic charges:    1.0000000

--------------------------------
MULLIKEN REDUCED ORBITAL CHARGES
--------------------------------
  0 C s       :     3.100469  s :     3.100469
      pz      :     0.953625  p :     2.856255
      px      :     0.923148
      py      :     0.979481
      dz2     :     0.008123  d :     0.044388
      dxz     :     0.007887
      dyz     :     0.009621
      dx2y2   :     0.009037
      dxy     :     0.009720
  1 C s       :     3.332332  s :     3.332332
      pz      :     0.881890  p :     2.629544
      px      :     0.828459
      py      :     0.919194
      dz2     :     0.005861  d :     0.033451
      dxz     :     0.005918
      dyz     :     0.007800
      dx2y2   :     0.006892
      dxy     :     0.006980
  2 C s       :     3.008317  s :     3.008317
      pz      :     0.948639  p :     2.794107
      px      :     0.950684
      py      :     0.894784
      dz2     :     0.010418  d :     0.052181
      dxz     :     0.011027
      dyz     :     0.011007
      dx2y2   :     0.008876
      dxy     :     0.010853
  3 C s       :     3.294510  s :     3.294510
      pz      :     0.879788  p :     2.642452
      px      :     0.914081
      py      :     0.848583
      dz2     :     0.006774  d :     0.035180
      dxz     :     0.006155
      dyz     :     0.007836
      dx2y2   :     0.007693
      dxy     :     0.006723
  4 C s       :     3.180136  s :     3.180136
      pz      :     0.924928  p :     2.741672
      px      :     0.893921
      py      :     0.922823
      dz2     :     0.006145  d :     0.034508
      dxz     :     0.005753
      dyz     :     0.008192
      dx2y2   :     0.006701
      dxy     :     0.007718
  5 C s       :     3.212683  s :     3.212683
      pz      :     0.866204  p :     2.693079
      px      :     0.908340
      py      :     0.918535
      dz2     :     0.005361  d :     0.034479
      dxz     :     0.005637
      dyz     :     0.007811
      dx2y2   :     0.007316
      dxy     :     0.008353
  6 C s       :     3.239786  s :     3.239786
      pz      :     0.973666  p :     2.843451
      px      :     0.968790
      py      :     0.900995
      dz2     :     0.001757  d :     0.021663
      dxz     :     0.004825
      dyz     :     0.005131
      dx2y2   :     0.005462
      dxy     :     0.004488
  7 H s       :     0.918621  s :     0.918621
      pz      :     0.005574  p :     0.023860
      px      :     0.003821
      py      :     0.014465
  8 H s       :     0.938928  s :     0.938928
      pz      :     0.005947  p :     0.023975
      px      :     0.010726
      py      :     0.007302
  9 H s       :     0.875895  s :     0.875895
      pz      :     0.005217  p :     0.020921
      px      :     0.010554
      py      :     0.005150
 10 H s       :     0.844631  s :     0.844631
      pz      :     0.006002  p :     0.014318
      px      :     0.006199
      py      :     0.002117
 11 H s       :     0.852908  s :     0.852908
      pz      :     0.005309  p :     0.014345
      px      :     0.003822
      py      :     0.005214
 12 H s       :     0.944738  s :     0.944738
      pz      :     0.011153  p :     0.023532
      px      :     0.007576
      py      :     0.004803
 13 H s       :     0.926028  s :     0.926028
      pz      :     0.005487  p :     0.023447
      px      :     0.010628
      py      :     0.007332
 14 N s       :     3.174713  s :     3.174713
      pz      :     1.142521  p :     3.380273
      px      :     1.130328
      py      :     1.107424
      dz2     :     0.025433  d :     0.159212
      dxz     :     0.027448
      dyz     :     0.029157
      dx2y2   :     0.041327
      dxy     :     0.035847
 15 O s       :     3.824566  s :     3.824566
      pz      :     1.502026  p :     4.305473
      px      :     1.572312
      py      :     1.231134
      dz2     :     0.004373  d :     0.028498
      dxz     :     0.002733
      dyz     :     0.008458
      dx2y2   :     0.007372
      dxy     :     0.005562
 16 O s       :     3.806773  s :     3.806773
      pz      :     1.573114  p :     4.312778
      px      :     1.251183
      py      :     1.488481
      dz2     :     0.004074  d :     0.030689
      dxz     :     0.006085
      dyz     :     0.003997
      dx2y2   :     0.008080
      dxy     :     0.008453
 17 H s       :     0.706235  s :     0.706235
      pz      :     0.000000  p :     0.000002
      px      :     0.000001
      py      :     0.000000


                     *******************************
                     * LOEWDIN POPULATION ANALYSIS *
                     *******************************

----------------------
LOEWDIN ATOMIC CHARGES
----------------------
   0 C :    0.037153
   1 C :    0.058918
   2 C :   -0.040111
   3 C :    0.095211
   4 C :    0.037784
   5 C :    0.033819
   6 C :   -0.065829
   7 H :    0.063125
   8 H :    0.054988
   9 H :    0.062434
  10 H :    0.118689
  11 H :    0.101980
  12 H :    0.052210
  13 H :    0.057973
  14 N :    0.221667
  15 O :   -0.100103
  16 O :   -0.083671
  17 H :    0.293762

-------------------------------
LOEWDIN REDUCED ORBITAL CHARGES
-------------------------------
  0 C s       :     2.874232  s :     2.874232
      pz      :     0.988745  p :     2.980768
      px      :     0.979492
      py      :     1.012531
      dz2     :     0.018627  d :     0.107847
      dxz     :     0.021632
      dyz     :     0.023099
      dx2y2   :     0.021027
      dxy     :     0.023462
  1 C s       :     2.870271  s :     2.870271
      pz      :     0.977510  p :     2.982574
      px      :     0.982720
      py      :     1.022343
      dz2     :     0.014471  d :     0.088237
      dxz     :     0.015206
      dyz     :     0.022369
      dx2y2   :     0.017850
      dxy     :     0.018341
  2 C s       :     2.839995  s :     2.839995
      pz      :     0.975325  p :     3.061770
      px      :     1.019770
      py      :     1.066674
      dz2     :     0.025863  d :     0.138346
      dxz     :     0.029488
      dyz     :     0.030347
      dx2y2   :     0.023916
      dxy     :     0.028733
  3 C s       :     2.872092  s :     2.872092
      pz      :     0.961158  p :     2.942498
      px      :     0.953707
      py      :     1.027633
      dz2     :     0.016016  d :     0.090199
      dxz     :     0.017695
      dyz     :     0.019711
      dx2y2   :     0.019187
      dxy     :     0.017589
  4 C s       :     2.862782  s :     2.862782
      pz      :     0.991758  p :     3.010430
      px      :     0.984359
      py      :     1.034314
      dz2     :     0.014829  d :     0.089003
      dxz     :     0.014966
      dyz     :     0.022398
      dx2y2   :     0.017315
      dxy     :     0.019495
  5 C s       :     2.860671  s :     2.860671
      pz      :     0.991814  p :     3.014666
      px      :     0.989325
      py      :     1.033528
      dz2     :     0.013040  d :     0.090844
      dxz     :     0.014671
      dyz     :     0.020508
      dx2y2   :     0.019514
      dxy     :     0.023110
  6 C s       :     2.974329  s :     2.974329
      pz      :     1.015737  p :     3.040043
      px      :     1.028615
      py      :     0.995691
      dz2     :     0.003636  d :     0.051457
      dxz     :     0.011766
      dyz     :     0.012575
      dx2y2   :     0.012736
      dxy     :     0.010744
  7 H s       :     0.863130  s :     0.863130
      pz      :     0.017698  p :     0.073745
      px      :     0.012917
      py      :     0.043130
  8 H s       :     0.870753  s :     0.870753
      pz      :     0.019044  p :     0.074259
      px      :     0.032294
      py      :     0.022921
  9 H s       :     0.874632  s :     0.874632
      pz      :     0.015233  p :     0.062935
      px      :     0.034273
      py      :     0.013428
 10 H s       :     0.847838  s :     0.847838
      pz      :     0.014503  p :     0.033473
      px      :     0.014389
      py      :     0.004582
 11 H s       :     0.862226  s :     0.862226
      pz      :     0.014019  p :     0.035794
      px      :     0.009200
      py      :     0.012575
 12 H s       :     0.877310  s :     0.877310
      pz      :     0.032739  p :     0.070480
      px      :     0.022614
      py      :     0.015126
 13 H s       :     0.872157  s :     0.872157
      pz      :     0.016911  p :     0.069870
      px      :     0.030902
      py      :     0.022057
 14 N s       :     2.955939  s :     2.955939
      pz      :     1.159823  p :     3.473135
      px      :     1.158951
      py      :     1.154361
      dz2     :     0.053998  d :     0.349259
      dxz     :     0.059197
      dyz     :     0.065752
      dx2y2   :     0.086270
      dxy     :     0.084042
 15 O s       :     3.548875  s :     3.548875
      pz      :     1.551279  p :     4.495993
      px      :     1.575468
      py      :     1.369246
      dz2     :     0.006753  d :     0.055235
      dxz     :     0.004398
      dyz     :     0.018820
      dx2y2   :     0.014922
      dxy     :     0.010343
 16 O s       :     3.523824  s :     3.523824
      pz      :     1.587384  p :     4.500140
      px      :     1.378369
      py      :     1.534387
      dz2     :     0.007443  d :     0.059707
      dxz     :     0.012180
      dyz     :     0.007090
      dx2y2   :     0.013746
      dxy     :     0.019249
 17 H s       :     0.706236  s :     0.706236
      pz      :     0.000000  p :     0.000002
      px      :     0.000001
      py      :     0.000000


                      *****************************
                      * MAYER POPULATION ANALYSIS *
                      *****************************

  NA   - Mulliken gross atomic population
  ZA   - Total nuclear charge
  QA   - Mulliken gross atomic charge
  VA   - Mayer's total valence
  BVA  - Mayer's bonded valence
  FA   - Mayer's free valence

  ATOM       NA         ZA         QA         VA         BVA        FA
  0 C      6.0011     6.0000    -0.0011     3.8310     3.8310     0.0000
  1 C      5.9953     6.0000     0.0047     3.8091     3.8091     0.0000
  2 C      5.8546     6.0000     0.1454     3.7890     3.7890     0.0000
  3 C      5.9721     6.0000     0.0279     3.8004     3.8004     0.0000
  4 C      5.9563     6.0000     0.0437     3.8326     3.8326     0.0000
  5 C      5.9402     6.0000     0.0598     3.8199     3.8199     0.0000
  6 C      6.1049     6.0000    -0.1049     3.8374     3.8374     0.0000
  7 H      0.9425     1.0000     0.0575     1.0106     1.0106    -0.0000
  8 H      0.9629     1.0000     0.0371     1.0253     1.0253     0.0000
  9 H      0.8968     1.0000     0.1032     0.9806     0.9806     0.0000
 10 H      0.8589     1.0000     0.1411     0.9630     0.9630     0.0000
 11 H      0.8673     1.0000     0.1327     0.9694     0.9694    -0.0000
 12 H      0.9683     1.0000     0.0317     0.9929     0.9929     0.0000
 13 H      0.9495     1.0000     0.0505     0.9830     0.9830     0.0000
 14 N      6.7142     7.0000     0.2858     4.1901     4.1901     0.0000
 15 O      8.1585     8.0000    -0.1585     2.0479     2.0479    -0.0000
 16 O      8.1502     8.0000    -0.1502     2.0629     2.0629    -0.0000
 17 H      0.7062     1.0000     0.2938     0.9137     0.9137     0.0000

  Mayer bond orders larger than 0.100000
B(  0-C ,  1-C ) :   1.1943 B(  0-C ,  5-C ) :   1.2885 B(  0-C ,  6-C ) :   1.0598 
B(  0-C , 17-H ) :   0.1842 B(  1-C ,  2-C ) :   1.4009 B(  1-C ,  8-H ) :   0.9899 
B(  1-C , 17-H ) :   0.1135 B(  2-C ,  3-C ) :   1.2889 B(  2-C , 14-N ) :   0.9456 
B(  3-C ,  4-C ) :   1.2557 B(  3-C ,  7-H ) :   0.9901 B(  3-C , 17-H ) :   0.1970 
B(  4-C ,  5-C ) :   1.4228 B(  4-C , 13-H ) :   0.9847 B(  5-C , 12-H ) :   0.9960 
B(  6-C ,  9-H ) :   0.9386 B(  6-C , 10-H ) :   0.8709 B(  6-C , 11-H ) :   0.9226 
B( 14-N , 15-O ) :   1.5893 B( 14-N , 16-O ) :   1.6351 B( 15-O , 16-O ) :   0.2155 


-------
TIMINGS
-------

Total SCF time: 0 days 0 hours 13 min 56 sec 

Total time                  ....     836.951 sec
Sum of individual times     ....     830.223 sec  ( 99.2%)

Fock matrix formation       ....     816.326 sec  ( 97.5%)
  Split-RI-J                ....     102.565 sec  ( 12.6% of F)
  Chain of spheres X        ....     602.674 sec  ( 73.8% of F)
  XC integration            ....     110.788 sec  ( 13.6% of F)
    Basis function eval.    ....      36.949 sec  ( 33.4% of XC)
    Density eval.           ....      31.524 sec  ( 28.5% of XC)
    XC-Functional eval.     ....       6.532 sec  (  5.9% of XC)
    XC-Potential eval.      ....      27.648 sec  ( 25.0% of XC)
Diagonalization             ....       0.354 sec  (  0.0%)
Density matrix formation    ....       0.054 sec  (  0.0%)
Population analysis         ....       0.078 sec  (  0.0%)
Initial guess               ....       2.220 sec  (  0.3%)
Orbital Transformation      ....       0.365 sec  (  0.0%)
Orbital Orthonormalization  ....       0.000 sec  (  0.0%)
DIIS solution               ....       0.651 sec  (  0.1%)
SOSCF solution              ....       0.000 sec  (  0.0%)
Grid generation             ....      10.172 sec  (  1.2%)

Maximum memory used throughout the entire SCF-calculation: 75.6 MB


-------------------------------------------------------------------------------
                          DFT DISPERSION CORRECTION                            
                                                                               
                                 DFTD4 V2.5                                    
-------------------------------------------------------------------------------
The B3LYP functional is recognized
Active option DFTDOPT                   ...         5   

Starting D4
-------------------------   ----------------
Dispersion correction           -0.027316009
-------------------------   ----------------


-------------------------   --------------------
FINAL SINGLE POINT ENERGY      -475.483624584078
-------------------------   --------------------

------------------------------------------------------------------------------
                         ORCA SCF GRADIENT CALCULATION
------------------------------------------------------------------------------

 ... reading COSX grid (gridx3)
Gradient of the Kohn-Sham DFT energy:
Kohn-Sham wavefunction type      ... RKS
Hartree-Fock exchange scaling    ...    0.200
Number of operators              ...    1
Number of atoms                  ...   18
Basis set dimensions             ...  180
Integral neglect threshold       ... 2.5e-11
Integral primitive cutoff        ... 2.5e-12
SHARK Integral package           ... ON

Nuc. rep. gradient       (SHARK) ... done (  0.0 sec)
HCore & Overlap gradient (SHARK) ... done (  1.0 sec)
RI-J gradient            (SHARK) ... done (  6.1 sec)
COSX-gradient                    ... done ( 47.9 sec)
Exchange-correlation gradient    ... done
Dispersion correction            ... Starting D4


------------------- 
Dispersion Gradient 
------------------- 
   1  :    0.000057032    0.000405227    0.000303782
   2  :   -0.000197499    0.000222126   -0.000088382
   3  :   -0.000151294   -0.000254011   -0.000332145
   4  :    0.000297388   -0.000423288    0.000031492
   5  :    0.000502814   -0.000329619    0.000297305
   6  :    0.000377680    0.000003515    0.000353390
   7  :   -0.001528919    0.000903116    0.000636515
   8  :    0.000082664   -0.000194926   -0.000036857
   9  :   -0.000171710    0.000125770   -0.000105231
  10  :   -0.000021313    0.000135195    0.000058014
  11  :    0.000845244    0.000414762   -0.000799916
  12  :    0.000408425   -0.000386317    0.000642400
  13  :    0.000143502    0.000018071    0.000147983
  14  :    0.000137474   -0.000103672    0.000076277
  15  :   -0.000308629   -0.000222695   -0.000472235
  16  :   -0.000108272   -0.000316428   -0.000364478
  17  :   -0.000366014    0.000002662   -0.000347870
  18  :    0.000001425    0.000000511   -0.000000046

  |G| =    0.002317164

done

------------------
CARTESIAN GRADIENT
------------------

   1   C   :    0.032910198   -0.042984447   -0.011826896
   2   C   :    0.005747822    0.011504667    0.017880948
   3   C   :   -0.048224796   -0.042857980   -0.082330469
   4   C   :   -0.005915860    0.011727251    0.000806554
   5   C   :   -0.002497728   -0.015353394   -0.010306291
   6   C   :   -0.018903408    0.022714589    0.000220476
   7   C   :    0.049423534    0.001868635    0.009127642
   8   H   :    0.001821179    0.004750932    0.004043132
   9   H   :    0.004586271    0.000035322    0.002311125
  10   H   :    0.030559092   -0.006274485    0.003376895
  11   H   :   -0.055924779   -0.019372737    0.049986772
  12   H   :   -0.044246074    0.046207227   -0.055725903
  13   H   :   -0.004107065   -0.002618567   -0.006922410
  14   H   :   -0.003615839    0.003608697   -0.002035475
  15   N   :   -0.067260962    0.011470885   -0.052916938
  16   O   :   -0.077246491    0.171625948    0.069156913
  17   O   :    0.202520766   -0.156316113    0.065501925
  18   H   :    0.000438931    0.000212150   -0.000217368

Difference to translation invariance:
[...]
Weight generation scheme         WeightScheme... Becke
Basis function cutoff            BFCut       ... 1.0000e-11
Integration weight cutoff        WCut        ... 1.0000e-14
Angular grids for H and He will be reduced by one unit
Partially contracted basis set               ... on
Rotationally invariant grid construction     ... off

Total number of grid points                  ...    53319
Total number of batches                      ...      843
Average number of points per batch           ...       63
Average number of grid points per atom       ...     2962
UseSFitting                                  ... on

Time for X-Grid setup             =    2.467 sec

--------------
SCF ITERATIONS
--------------
ITER       Energy         Delta-E        Max-DP      RMS-DP      [F,P]     Damp
               ***  Starting incremental Fock matrix formation  ***
                      *** Initiating the SOSCF procedure ***
                      *** Re-Reading the Fockian *** 
                      *** Removing any level shift *** 
ITER      Energy       Delta-E        Grad      Rot      Max-DP    RMS-DP
  0   -475.57170823 -475.5717082254  0.000534  0.000534  0.001477  0.000046
               *** Restarting incremental Fock matrix formation ***
  1   -475.57174409  -0.0000358638  0.000193  0.001572  0.001086  0.000025
  2   -475.57174571  -0.0000016177  0.000861  0.006267  0.004122  0.000081
  3   -475.57169537   0.0000503362  0.002781  0.004789  0.003133  0.000072
  4   -475.57174838  -0.0000530135  0.000025  0.000145  0.000127  0.000004
  5   -475.57174831   0.0000000716  0.000082  0.000110  0.000095  0.000003
  6   -475.57174840  -0.0000000908  0.000025  0.000087  0.000066  0.000002
  7   -475.57174838   0.0000000278  0.000039  0.000062  0.000049  0.000002
  8   -475.57174841  -0.0000000349  0.000004  0.000025  0.000024  0.000001
  9   -475.57174841   0.0000000013  0.000009  0.000015  0.000015  0.000000
                  ***Gradient check signals convergence***
              ***Rediagonalizing the Fockian in SOSCF/NRSCF***

               *****************************************************
               *                     SUCCESS                       *
               *           SCF CONVERGED AFTER  10 CYCLES          *
               *****************************************************

Old exchange energy                            =    -12.281355597 Eh
New exchange energy                            =    -12.281352574 Eh
Exchange energy change after final integration =      0.000003023 Eh
Total energy after final integration           =   -475.571745387 Eh
Final COS-X integration done in                =    22.632 sec
Total Energy       :         -475.57174539 Eh          -12940.96510 eV
  Last Energy change         ...   -8.1116e-10  Tolerance :   1.0000e-08
  Last MAX-Density change    ...    3.5527e-15  Tolerance :   1.0000e-07
             **** THE GBW FILE WAS UPDATED (meta_products_optfreq3.gbw) ****
             **** DENSITY meta_products_optfreq3.scfp WAS UPDATED ****
             **** ENERGY FILE WAS UPDATED (meta_products_optfreq3.en.tmp) ****
             **** THE GBW FILE WAS UPDATED (meta_products_optfreq3.gbw) ****
             **** DENSITY meta_products_optfreq3.scfp WAS UPDATED ****
Total SCF time: 0 days 0 hours 2 min 24 sec 

Maximum memory used throughout the entire SCF-calculation: 74.6 MB


-------------------------------------------------------------------------------
                          DFT DISPERSION CORRECTION                            
                                                                               
                                 DFTD4 V2.5                                    
-------------------------------------------------------------------------------
Starting D4
-------------------------   ----------------
Dispersion correction           -0.026442088
-------------------------   ----------------


-------------------------   --------------------
FINAL SINGLE POINT ENERGY      -475.598187474407
-------------------------   --------------------

------------------------------------------------------------------------------
                         ORCA SCF GRADIENT CALCULATION
------------------------------------------------------------------------------

 ... reading COSX grid (gridx3)
Gradient of the Kohn-Sham DFT energy:
Kohn-Sham wavefunction type      ... RKS
Hartree-Fock exchange scaling    ...    0.200
Number of operators              ...    1
Number of atoms                  ...   18
Basis set dimensions             ...  180
Integral neglect threshold       ... 2.5e-11
Integral primitive cutoff        ... 2.5e-12
SHARK Integral package           ... ON

Nuc. rep. gradient       (SHARK) ... done (  0.0 sec)
HCore & Overlap gradient (SHARK) ... done (  0.3 sec)
RI-J gradient            (SHARK) ... done (  3.1 sec)
COSX-gradient                    ... done ( 29.2 sec)
Exchange-correlation gradient    ... done
Dispersion correction            ... Starting D4


------------------- 
Dispersion Gradient 
------------------- 
   1  :   -0.000050922    0.000337324    0.000346325
   2  :   -0.000292980    0.000171775    0.000022013
   3  :   -0.000109907   -0.000226479   -0.000319893
   4  :    0.000423775   -0.000300047   -0.000066947
   5  :    0.000598492   -0.000186374    0.000170417
   6  :    0.000395649    0.000052233    0.000301362
   7  :   -0.000256466    0.000471439    0.000375086
   8  :    0.000123205   -0.000145499   -0.000085472
   9  :   -0.000215792    0.000066791   -0.000053465
  10  :   -0.000038725    0.000113020    0.000101448
  11  :   -0.000094886    0.000091457    0.000117172
  12  :   -0.000062956    0.000150016    0.000062673
  13  :    0.000146945    0.000041024    0.000134958
  14  :    0.000168665   -0.000059636    0.000038606
  15  :   -0.000289477   -0.000231892   -0.000451725
  16  :   -0.000051185   -0.000264334   -0.000406460
  17  :   -0.000394332   -0.000080960   -0.000285530
  18  :    0.000000896    0.000000142   -0.000000569

  |G| =    0.001535601

done

------------------
CARTESIAN GRADIENT
------------------

   1   C   :   -0.000030605   -0.000004052   -0.000010576
   2   C   :    0.000008086   -0.000020161   -0.000014838
   3   C   :   -0.000037522    0.000034951    0.000001430
   4   C   :   -0.000045142    0.000029636    0.000013118
   5   C   :    0.000075989    0.000001047   -0.000009618
   6   C   :   -0.000028501    0.000021937   -0.000002249
   7   C   :    0.000088370   -0.000106581   -0.000011292
   8   H   :    0.000023080   -0.000024935   -0.000032796
   9   H   :    0.000023552   -0.000034991   -0.000001026
  10   H   :   -0.000017399    0.000012208   -0.000001744
  11   H   :   -0.000141149   -0.000012198    0.000112753
  12   H   :   -0.000020794    0.000038861   -0.000048492
  13   H   :    0.000006899   -0.000011298   -0.000008888
  14   H   :   -0.000060318    0.000026038   -0.000006528
  15   N   :    0.000005553    0.000018599    0.000059397
  16   O   :    0.000022908   -0.000076357   -0.000049569
  17   O   :   -0.000006345    0.000023115    0.000006380
  18   H   :    0.000129082    0.000019807   -0.000076992

Difference to translation invariance:
           :   -0.0000042585   -0.0000643722   -0.0000815314

Difference to rotation invariance:
           :   -0.0005538035   -0.0001813725    0.0007604186

Norm of the cartesian gradient     ...    0.0003411910
RMS gradient                       ...    0.0000464302
MAX gradient                       ...    0.0001411491

-------
TIMINGS
-------

Total SCF gradient time            ...       45.073 sec

One electron gradient       ....       0.348 sec  (  0.8%)
RI-J Coulomb gradient       ....       3.108 sec  (  6.9%)
COSX gradient               ....      29.241 sec  ( 64.9%)
XC gradient                 ....      11.446 sec  ( 25.4%)

Maximum memory used throughout the entire SCFGRAD-calculation: 60.1 MB
------------------------------------------------------------------------------
                         ORCA GEOMETRY RELAXATION STEP
------------------------------------------------------------------------------

Reading the OPT-File                    .... done
Getting information on internals        .... done
Copying old internal coords+grads       .... done
Making the new internal coordinates     .... (new redundants).... done
Validating the new internal coordinates .... (new redundants).... done
Calculating the B-matrix                .... done
Calculating the G,G- and P matrices     .... done
Transforming gradient to internals      .... done
Projecting the internal gradient        .... done
Number of atoms                         ....  18
Number of internal coordinates          ....  81
Current Energy                          ....  -475.598187474 Eh
Current gradient norm                   ....     0.000341191 Eh/bohr
Maximum allowed component of the step   ....  0.300
Current trust radius                    ....  0.300
Updating the Hessian (BFGS)             .... done
Forming the augmented Hessian           .... done
Diagonalizing the augmented Hessian     .... done
Last element of RFO vector              ....  0.721721348
Lowest eigenvalues of augmented Hessian:
 -0.000143290  0.000155481  0.000880999  0.007169869  0.015778379
Length of the computed step             ....  0.959073355
Warning: the length of the step is outside the trust region - taking restricted step instead
The input lambda is                     ....    -0.000143
   iter:   1  x=   -0.000213  g=11821.855168 f(x)=     0.829822
   iter:   2  x=   -0.000303  g= 3869.241116 f(x)=     0.346864
   iter:   3  x=   -0.000397  g= 1419.203660 f(x)=     0.133856
   iter:   4  x=   -0.000463  g=  647.493179 f(x)=     0.042670
   iter:   5  x=   -0.000484  g=  413.946792 f(x)=     0.008458
   iter:   6  x=   -0.000485  g=  364.879522 f(x)=     0.000515
   iter:   7  x=   -0.000485  g=  361.780590 f(x)=     0.000002
   iter:   8  x=   -0.000485  g=  361.767343 f(x)=     0.000000
   iter:   9  x=   -0.000485  g=  361.767342 f(x)=     0.000000
The output lambda is                    ....    -0.000485 (9 iterations)
The final length of the internal step   ....  0.300000000
Converting the step to cartesian space:
 Initial RMS(Int)=    0.0333333333
Transforming coordinates:
 Iter   0:  RMS(Cart)=    0.0287439482 RMS(Int)=    0.0222761634
 Iter   1:  RMS(Cart)=    0.0131180146 RMS(Int)=    0.0110678060
 Iter   2:  RMS(Cart)=    0.0006871645 RMS(Int)=    0.0001086285
 Iter   3:  RMS(Cart)=    0.0003440906 RMS(Int)=    0.0000540965
 Iter   4:  RMS(Cart)=    0.0001713747 RMS(Int)=    0.0000269496
 Iter   5:  RMS(Cart)=    0.0000853614 RMS(Int)=    0.0000134255
 Iter   6:  RMS(Cart)=    0.0000425213 RMS(Int)=    0.0000066882
 Iter   7:  RMS(Cart)=    0.0000211820 RMS(Int)=    0.0000033319
 Iter   8:  RMS(Cart)=    0.0000105520 RMS(Int)=    0.0000016598
 Iter   9:  RMS(Cart)=    0.0000052566 RMS(Int)=    0.0000008269
 Iter  10:  RMS(Cart)=    0.0000026187 RMS(Int)=    0.0000004119
 Iter  11:  RMS(Cart)=    0.0000013045 RMS(Int)=    0.0000002052
 Iter  12:  RMS(Cart)=    0.0000006499 RMS(Int)=    0.0000001022
 Iter  13:  RMS(Cart)=    0.0000003237 RMS(Int)=    0.0000000509
 Iter  14:  RMS(Cart)=    0.0000001613 RMS(Int)=    0.0000000254
 Iter  15:  RMS(Cart)=    0.0000000803 RMS(Int)=    0.0000000126
done
Storing new coordinates                 .... done

                                .--------------------.
          ----------------------|Geometry convergence|-------------------------
          Item                value                   Tolerance       Converged
          ---------------------------------------------------------------------
          Energy change      -0.0000467084            0.0000050000      NO
          RMS gradient        0.0000285686            0.0001000000      YES
          MAX gradient        0.0001490811            0.0003000000      YES
          RMS step            0.0333333333            0.0020000000      NO
          MAX step            0.2996374513            0.0040000000      NO
          ........................................................
          Max(Bonds)      0.1586      Max(Angles)    0.45
          Max(Dihed)        0.30      Max(Improp)    0.00
          ---------------------------------------------------------------------

The optimization has not yet converged - more geometry cycles are needed


    ---------------------------------------------------------------------------
                         Redundant Internal Coordinates
                            (Angstroem and degrees)

        Definition                    Value    dE/dq     Step     New-Value
    ----------------------------------------------------------------------------
     1. B(C   1,C   0)                1.4303 -0.000018 -0.0000    1.4302   
     2. B(C   2,C   1)                1.3764 -0.000056  0.0001    1.3765   
     3. B(C   3,C   2)                1.4074 -0.000018 -0.0000    1.4074   
     4. B(C   4,C   3)                1.4131  0.000011 -0.0001    1.4131   
     5. B(C   5,C   4)                1.3854 -0.000010 -0.0000    1.3853   
     6. B(C   5,C   0)                1.4238 -0.000028 -0.0001    1.4237   
     7. B(C   6,C   0)                1.4836 -0.000043  0.0001    1.4837   
     8. B(H   7,C   3)                1.0913  0.000041 -0.0001    1.0912   
     9. B(H   8,C   1)                1.0914 -0.000033  0.0000    1.0914   
    10. B(H   9,C   6)                1.0974 -0.000001  0.0001    1.0974   
    11. B(H  10,C   6)                1.1085  0.000028  0.0000    1.1085   
    12. B(H  11,C   6)                1.1073  0.000060 -0.0001    1.1072   
    13. B(H  12,C   5)                1.0922 -0.000002  0.0000    1.0922   
    14. B(H  13,C   4)                1.0919 -0.000065  0.0001    1.0920   
    15. B(N  14,C   2)                1.4831 -0.000027 -0.0000    1.4831   
    16. B(O  15,N  14)                1.2186  0.000082 -0.0000    1.2186   
    17. B(O  16,N  14)                1.2135  0.000012  0.0000    1.2135   
    18. B(H  17,H  10)               13.5988 -0.000149  0.1586   13.7573   
    19. A(C   1,C   0,C   5)          118.65  0.000003   -0.00    118.65   
    20. A(C   1,C   0,C   6)          119.63  0.000006    0.00    119.63   
    21. A(C   5,C   0,C   6)          121.71 -0.000009   -0.00    121.71   
    22. A(C   0,C   1,C   2)          119.21  0.000013   -0.00    119.21   
    23. A(C   2,C   1,H   8)          119.56 -0.000022   -0.00    119.56   
    24. A(C   0,C   1,H   8)          121.22  0.000009    0.00    121.23   
    25. A(C   3,C   2,N  14)          118.57  0.000018   -0.00    118.57   
    26. A(C   1,C   2,N  14)          119.11 -0.000018    0.00    119.11   
    27. A(C   1,C   2,C   3)          122.30 -0.000000    0.00    122.31   
    28. A(C   2,C   3,C   4)          118.73 -0.000005   -0.00    118.73   
    29. A(C   4,C   3,H   7)          121.99 -0.000001    0.01    122.00   
    30. A(C   2,C   3,H   7)          119.28  0.000005   -0.01    119.27   
    31. A(C   3,C   4,H  13)          119.38  0.000013   -0.00    119.38   
    32. A(C   5,C   4,H  13)          120.49 -0.000010   -0.00    120.49   
    33. A(C   3,C   4,C   5)          120.13 -0.000003    0.00    120.13   
    34. A(C   0,C   5,C   4)          120.97 -0.000008    0.00    120.97   
    35. A(C   4,C   5,H  12)          120.11 -0.000010    0.00    120.11   
    36. A(C   0,C   5,H  12)          118.92  0.000018   -0.00    118.92   
    37. A(H   9,C   6,H  10)          108.88 -0.000019   -0.03    108.85   
    38. A(C   0,C   6,H  10)          110.28  0.000050   -0.02    110.26   
    39. A(C   0,C   6,H   9)          112.91  0.000029   -0.00    112.91   
    40. A(H  10,C   6,H  11)          104.74 -0.000028   -0.00    104.74   
    41. A(H   9,C   6,H  11)          109.31 -0.000007    0.03    109.34   
    42. A(C   0,C   6,H  11)          110.39 -0.000030    0.02    110.41   
    43. L(C   6,H  10,H  17,C   0, 2) 173.41  0.000025    0.45    173.86   
    44. L(C   6,H  10,H  17,C   0, 1) 191.72  0.000013    0.25    191.97   
    45. A(O  15,N  14,O  16)          126.46  0.000006   -0.00    126.46   
    46. A(C   2,N  14,O  16)          117.29 -0.000050    0.01    117.30   
    47. A(C   2,N  14,O  15)          116.25  0.000044   -0.00    116.24   
    48. D(H   8,C   1,C   0,C   6)     -0.27 -0.000015    0.02     -0.25   
    49. D(C   2,C   1,C   0,C   6)   -179.64 -0.000006    0.02   -179.63   
    50. D(C   2,C   1,C   0,C   5)     -0.16  0.000002   -0.00     -0.16   
    51. D(H   8,C   1,C   0,C   5)    179.21 -0.000007    0.00    179.22   
    52. D(C   3,C   2,C   1,C   0)      0.37 -0.000007    0.01      0.38   
    53. D(N  14,C   2,C   1,H   8)      2.41 -0.000002    0.01      2.42   
    54. D(C   3,C   2,C   1,H   8)   -179.01  0.000002    0.00   -179.01   
    55. D(N  14,C   2,C   1,C   0)   -178.21 -0.000011    0.02   -178.19   
    56. D(H   7,C   3,C   2,N  14)     -1.71  0.000011   -0.03     -1.74   
    57. D(H   7,C   3,C   2,C   1)    179.70  0.000006   -0.02    179.69   
    58. D(C   4,C   3,C   2,N  14)    178.34  0.000007   -0.02    178.32   
    59. D(C   4,C   3,C   2,C   1)     -0.25  0.000003   -0.01     -0.25   
    60. D(C   5,C   4,C   3,H   7)    179.95  0.000002    0.01    179.96   
    61. D(H  13,C   4,C   3,C   2)    179.90 -0.000003    0.02    179.92   
    62. D(C   5,C   4,C   3,C   2)     -0.10  0.000006   -0.01     -0.10   
    63. D(H  13,C   4,C   3,H   7)     -0.05 -0.000006    0.03     -0.02   
    64. D(H  12,C   5,C   4,H  13)      0.27  0.000004   -0.02      0.25   
    65. D(C   0,C   5,C   4,H  13)   -179.69 -0.000002   -0.02   -179.71   
    66. D(C   0,C   5,C   4,C   3)      0.30 -0.000010    0.01      0.32   
    67. D(H  12,C   5,C   0,C   6)     -0.66  0.000009   -0.03     -0.69   
    68. D(H  12,C   5,C   0,C   1)    179.87  0.000001   -0.01    179.86   
    69. D(H  12,C   5,C   4,C   3)   -179.74 -0.000005    0.01   -179.73   
    70. D(C   4,C   5,C   0,C   6)    179.30  0.000014   -0.03    179.27   
    71. D(C   4,C   5,C   0,C   1)     -0.18  0.000006   -0.01     -0.18   
    72. D(H  11,C   6,C   0,C   5)    124.70 -0.000011    0.30    124.99   
    73. D(H  11,C   6,C   0,C   1)    -55.83 -0.000003    0.27    -55.56   
    74. D(H  10,C   6,C   0,C   5)   -120.04 -0.000034    0.29   -119.75   
    75. D(H  10,C   6,C   0,C   1)     59.43 -0.000025    0.27     59.70   
    76. D(H   9,C   6,C   0,C   5)      2.01 -0.000001    0.25      2.25   
    77. D(H   9,C   6,C   0,C   1)   -178.53  0.000007    0.23   -178.30   
    78. D(O  15,N  14,C   2,C   1)    168.68  0.000025   -0.04    168.64   
    79. D(O  16,N  14,C   2,C   3)    170.60  0.000019   -0.02    170.58   
    80. D(O  16,N  14,C   2,C   1)    -10.76  0.000023   -0.04    -10.80   
    81. D(O  15,N  14,C   2,C   3)     -9.95  0.000021   -0.03     -9.98   
    ----------------------------------------------------------------------------




    ----------------------------------------------------------------------------
                                   ERROR !!!
       The optimization did not converge but reached the maximum 
       number of optimization cycles.
       As a subsequent Frequencies calculation has been requested
       ORCA will abort at this point of the run.
       Please restart the calculation with the lowest energy geometry and/or
       a larger maxiter for the geometry optimization.
    ----------------------------------------------------------------------------


[file orca_main/run.cpp, line 12331]: ORCA finished with error return - aborting the run
