
                                 *****************
                                 * O   R   C   A *
                                 *****************

                                            #,                                       
                                            ###                                      
                                            ####                                     
                                            #####                                    
                                            ######                                   
                                           ########,                                 
                                     ,,################,,,,,                         
                               ,,#################################,,                 
                          ,,##########################################,,             
                       ,#########################################, ''#####,          
                    ,#############################################,,   '####,        
                  ,##################################################,,,,####,       
                ,###########''''           ''''###############################       
              ,#####''   ,,,,##########,,,,          '''####'''          '####       
            ,##' ,,,,###########################,,,                        '##       
           ' ,,###''''                  '''############,,,                           
         ,,##''                                '''############,,,,        ,,,,,,###''
      ,#''                                            '''#######################'''  
     '                                                          ''''####''''         
             ,#######,   #######,   ,#######,      ##                                
            ,#'     '#,  ##    ##  ,#'     '#,    #''#        ######   ,####,        
            ##       ##  ##   ,#'  ##            #'  '#       #        #'  '#        
            ##       ##  #######   ##           ,######,      #####,   #    #        
            '#,     ,#'  ##    ##  '#,     ,#' ,#      #,         ##   #,  ,#        
             '#######'   ##     ##  '#######'  #'      '#     #####' # '####'        



                  #######################################################
                  #                        -***-                        #
                  #          Department of theory and spectroscopy      #
                  #    Directorship and core code : Frank Neese         #
                  #        Max Planck Institute fuer Kohlenforschung    #
                  #                Kaiser Wilhelm Platz 1               #
                  #                 D-45470 Muelheim/Ruhr               #
                  #                      Germany                        #
                  #                                                     #
                  #                  All rights reserved                #
                  #                        -***-                        #
                  #######################################################



                         Program Version 5.0.4 -  RELEASE  -

 With contributions from (in alphabetic order):
   Daniel Aravena         : Magnetic Suceptibility
   Michael Atanasov       : Ab Initio Ligand Field Theory (pilot matlab implementation)
   Alexander A. Auer      : GIAO ZORA, VPT2 properties, NMR spectrum
   Ute Becker             : Parallelization
   Giovanni Bistoni       : ED, misc. LED, open-shell LED, HFLD
   Martin Brehm           : Molecular dynamics
   Dmytro Bykov           : SCF Hessian
   Vijay G. Chilkuri      : MRCI spin determinant printing, contributions to CSF-ICE
   Dipayan Datta          : RHF DLPNO-CCSD density
   Achintya Kumar Dutta   : EOM-CC, STEOM-CC
   Dmitry Ganyushin       : Spin-Orbit,Spin-Spin,Magnetic field MRCI
   Miquel Garcia          : C-PCM and meta-GGA Hessian, CC/C-PCM, Gaussian charge scheme
   Yang Guo               : DLPNO-NEVPT2, F12-NEVPT2, CIM, IAO-localization
   Andreas Hansen         : Spin unrestricted coupled pair/coupled cluster methods
   Benjamin Helmich-Paris : MC-RPA, TRAH-SCF, COSX integrals
   Lee Huntington         : MR-EOM, pCC
   Robert Izsak           : Overlap fitted RIJCOSX, COSX-SCS-MP3, EOM
   Marcus Kettner         : VPT2
   Christian Kollmar      : KDIIS, OOCD, Brueckner-CCSD(T), CCSD density, CASPT2, CASPT2-K
   Simone Kossmann        : Meta GGA functionals, TD-DFT gradient, OOMP2, MP2 Hessian
   Martin Krupicka        : Initial AUTO-CI
   Lucas Lang             : DCDCAS
   Marvin Lechner         : AUTO-CI (C++ implementation), FIC-MRCC
   Dagmar Lenk            : GEPOL surface, SMD
   Dimitrios Liakos       : Extrapolation schemes; Compound Job, initial MDCI parallelization
   Dimitrios Manganas     : Further ROCIS development; embedding schemes
   Dimitrios Pantazis     : SARC Basis sets
   Anastasios Papadopoulos: AUTO-CI, single reference methods and gradients
   Taras Petrenko         : DFT Hessian,TD-DFT gradient, ASA, ECA, R-Raman, ABS, FL, XAS/XES, NRVS
   Peter Pinski           : DLPNO-MP2, DLPNO-MP2 Gradient
   Christoph Reimann      : Effective Core Potentials
   Marius Retegan         : Local ZFS, SOC
   Christoph Riplinger    : Optimizer, TS searches, QM/MM, DLPNO-CCSD(T), (RO)-DLPNO pert. Triples
   Tobias Risthaus        : Range-separated hybrids, TD-DFT gradient, RPA, STAB
   Michael Roemelt        : Original ROCIS implementation
   Masaaki Saitow         : Open-shell DLPNO-CCSD energy and density
   Barbara Sandhoefer     : DKH picture change effects
   Avijit Sen             : IP-ROCIS
   Kantharuban Sivalingam : CASSCF convergence, NEVPT2, FIC-MRCI
   Bernardo de Souza      : ESD, SOC TD-DFT
   Georgi Stoychev        : AutoAux, RI-MP2 NMR, DLPNO-MP2 response
   Willem Van den Heuvel  : Paramagnetic NMR
   Boris Wezisla          : Elementary symmetry handling
   Frank Wennmohs         : Technical directorship


 We gratefully acknowledge several colleagues who have allowed us to
 interface, adapt or use parts of their codes:
   Stefan Grimme, W. Hujo, H. Kruse, P. Pracht,  : VdW corrections, initial TS optimization,
                  C. Bannwarth, S. Ehlert          DFT functionals, gCP, sTDA/sTD-DF
   Ed Valeev, F. Pavosevic, A. Kumar             : LibInt (2-el integral package), F12 methods
   Garnet Chan, S. Sharma, J. Yang, R. Olivares  : DMRG
   Ulf Ekstrom                                   : XCFun DFT Library
   Mihaly Kallay                                 : mrcc  (arbitrary order and MRCC methods)
   Jiri Pittner, Ondrej Demel                    : Mk-CCSD
   Frank Weinhold                                : gennbo (NPA and NBO analysis)
   Christopher J. Cramer and Donald G. Truhlar   : smd solvation model
   Lars Goerigk                                  : TD-DFT with DH, B97 family of functionals
   V. Asgeirsson, H. Jonsson                     : NEB implementation
   FAccTs GmbH                                   : IRC, NEB, NEB-TS, DLPNO-Multilevel, CI-OPT
                                                   MM, QMMM, 2- and 3-layer-ONIOM, Crystal-QMMM,
                                                   LR-CPCM, SF, NACMEs, symmetry and pop. for TD-DFT,
                                                   nearIR, NL-DFT gradient (VV10), updates on ESD,
                                                   ML-optimized integration grids
   S Lehtola, MJT Oliveira, MAL Marques          : LibXC Library
   Liviu Ungur et al                             : ANISO software


 Your calculation uses the libint2 library for the computation of 2-el integrals
 For citations please refer to: http://libint.valeyev.net

 Your ORCA version has been built with support for libXC version: 5.1.0
 For citations please refer to: https://tddft.org/programs/libxc/

 This ORCA versions uses:
   CBLAS   interface :  Fast vector & matrix operations
   LAPACKE interface :  Fast linear algebra routines
   Shared memory     :  Shared parallel matrices


Your calculation utilizes the atom-pairwise dispersion correction
based on tight binding partial charges (D4)
Cite in your paper:
E.Caldeweyher, C.Bannwarth, S.Grimme, J.Chem.Phys., (2017), 147, 034112.
E.Caldeweyher, S.Ehlert, A.Hansen, H.Neugebauer, S.Grimme, J.Chem.Phys., (2018), in progress.
   

================================================================================

----- Orbital basis set information -----
Your calculation utilizes the basis: def2-TZVP
   F. Weigend and R. Ahlrichs, Phys. Chem. Chem. Phys. 7, 3297 (2005).

----- AuxJ basis set information -----
Your calculation utilizes the auxiliary basis: def2/J
   F. Weigend, Phys. Chem. Chem. Phys. 8, 1057 (2006).

================================================================================
                                        WARNINGS
                       Please study these warnings very carefully!
================================================================================


WARNING: Geometry Optimization
  ===> : Switching off AutoStart
         For restart on a previous wavefunction, please use MOREAD

INFO   : the flag for use of the SHARK integral package has been found!

================================================================================
                                       INPUT FILE
================================================================================
NAME = para_produtcs_optfreq2.inp
|  1> !B3LYP/G DEF2-TZVP OPT FREQ D4
|  2> 
|  3> 
|  4> #Coordinates from ORCA-job para_products_optfreq
|  5> 
|  6> * xyz 1 1
|  7>   C   -6.03272976925791      0.66202686092243     -0.00335611510232
|  8>   C   -7.09821570108111      1.19894774032761     -0.77471113657779
|  9>   C   -7.43591232545049      0.64967627987355     -1.98588994085145
| 10>   C   -6.70761273555919     -0.46034757965679     -2.43347682228333
| 11>   C   -5.65062199121492     -1.02467249950356     -1.70607261136445
| 12>   C   -5.31965596244168     -0.45873597365192     -0.50021089616718
| 13>   C   -5.65908701808524      1.28394741727211      1.28668563808584
| 14>   H   -5.11354827452298      0.59984744652200      1.93484605029543
| 15>   H   -6.52796222537794      1.68804589143106      1.80943902983849
| 16>   H   -4.99681883222712      2.14271011547489      1.09400249811616
| 17>   H   -7.64450615207694      2.05192348446032     -0.39375820731890
| 18>   H   -8.23856179754150      1.04494587655011     -2.59147265100178
| 19>   H   -5.12674838826489     -1.88441367197798     -2.09908145735405
| 20>   H   -4.50763408833772     -0.86951726570140      0.08476348643750
| 21>   N   -7.07125511545366     -1.05979532597181     -3.71308439062913
| 22>   O   -7.04837329841035     -2.27607713610621     -3.77689769956075
| 23>   O   -7.37554892174536     -0.30407133378728     -4.61599523424269
| 24>   H   -12.34767740295072     -5.34420032647714     -6.21336954031954
| 25> *
| 26> 
| 27>                          ****END OF INPUT****
================================================================================

                       *****************************
                       * Geometry Optimization Run *
                       *****************************

Geometry optimization settings:
Update method            Update   .... BFGS
Choice of coordinates    CoordSys .... Z-matrix Internals
Initial Hessian          InHess   .... Almoef's Model

Convergence Tolerances:
Energy Change            TolE     ....  5.0000e-06 Eh
Max. Gradient            TolMAXG  ....  3.0000e-04 Eh/bohr
RMS Gradient             TolRMSG  ....  1.0000e-04 Eh/bohr
Max. Displacement        TolMAXD  ....  4.0000e-03 bohr
RMS Displacement         TolRMSD  ....  2.0000e-03 bohr
Strict Convergence                ....  False
------------------------------------------------------------------------------
                        ORCA OPTIMIZATION COORDINATE SETUP
------------------------------------------------------------------------------

The optimization will be done in new redundant internal coordinates
Making redundant internal coordinates   ...  (new redundants) done
Evaluating the initial hessian          ...  (Almloef) done
Evaluating the coordinates              ...  done
Calculating the B-matrix                .... done
Calculating the G-matrix                .... done
Diagonalizing the G-matrix              .... done
Small eigenvalue found = 2.054e-02
Small eigenvalue found = 2.810e-02
The first mode is                       ....   53
The number of degrees of freedom        ....   48

    -----------------------------------------------------------------
                    Redundant Internal Coordinates


    -----------------------------------------------------------------
         Definition                    Initial Value    Approx d2E/dq
    -----------------------------------------------------------------
      1. B(C   1,C   0)                  1.4208         0.558056   
      2. B(C   2,C   1)                  1.3721         0.667232   
      3. B(C   3,C   2)                  1.4010         0.599968   
      4. B(C   4,C   3)                  1.4017         0.598475   
      5. B(C   5,C   4)                  1.3726         0.666132   
      6. B(C   5,C   0)                  1.4183         0.563195   
      7. B(C   6,C   0)                  1.4801         0.448787   
      8. B(H   7,C   6)                  1.0889         0.361550   
      9. B(H   8,C   6)                  1.0916         0.358038   
     10. B(H   9,C   6)                  1.1015         0.345263   
     11. B(H  10,C   1)                  1.0822         0.370587   
     12. B(H  11,C   2)                  1.0804         0.373058   
     13. B(H  12,C   4)                  1.0808         0.372525   
     14. B(H  13,C   5)                  1.0818         0.371097   
     15. B(N  14,C   3)                  1.4591         0.434143   
     16. B(O  15,N  14)                  1.2182         0.942230   
     17. B(O  16,N  14)                  1.2161         0.949332   
     18. B(H  17,O  16)                  7.2579         0.000000   
     19. B(H  17,O  15)                  6.5903         0.000000   
     20. B(H  17,N  14)                  7.2421         0.000000   
     21. A(C   5,C   0,C   6)          120.6957         0.402827   
     22. A(C   1,C   0,C   6)          120.2478         0.402176   
     23. A(C   1,C   0,C   5)          119.0453         0.418693   
     24. A(C   2,C   1,H  10)          120.1336         0.359080   
     25. A(C   0,C   1,C   2)          120.8326         0.431588   
     26. A(C   0,C   1,H  10)          119.0338         0.348376   
     27. A(C   3,C   2,H  11)          119.8014         0.353059   
     28. A(C   1,C   2,H  11)          122.0848         0.359487   
     29. A(C   1,C   2,C   3)          118.1136         0.437250   
     30. A(C   2,C   3,C   4)          123.0365         0.428782   
     31. A(C   4,C   3,N  14)          118.5309         0.402194   
     32. A(C   2,C   3,N  14)          118.4319         0.402370   
     33. A(C   3,C   4,C   5)          118.1475         0.436923   
     34. A(C   5,C   4,H  12)          122.0454         0.359298   
     35. A(C   3,C   4,H  12)          119.8064         0.352825   
     36. A(C   0,C   5,C   4)          120.8223         0.432171   
     37. A(C   4,C   5,H  13)          119.9665         0.359063   
     38. A(C   0,C   5,H  13)          119.2110         0.348995   
     39. A(H   8,C   6,H   9)          105.8874         0.288667   
     40. A(H   7,C   6,H   9)          107.0206         0.289108   
     41. A(C   0,C   6,H   9)          109.0824         0.331969   
     42. A(H   7,C   6,H   8)          110.2614         0.290761   
     43. A(C   0,C   6,H   8)          111.8407         0.333976   
     44. A(C   0,C   6,H   7)          112.4146         0.334517   
     45. A(O  16,N  14,H  17)           85.9288         0.090654   
     46. A(O  15,N  14,H  17)           53.4817         0.090651   
     47. A(C   3,N  14,H  17)          136.6688         0.090397   
     48. A(O  15,N  14,O  16)          125.8923         0.493039   
     49. A(C   3,N  14,O  16)          117.2695         0.430913   
     50. A(C   3,N  14,O  15)          116.8372         0.430332   
     51. A(N  14,O  15,H  17)          117.9753         0.091839   
     52. A(N  14,O  16,H  17)           84.4498         0.090633   
     53. A(O  15,H  17,O  16)           17.1515         0.089011   
     54. A(N  14,H  17,O  16)            9.6214         0.089007   
     55. A(N  14,H  17,O  15)            8.5430         0.089012   
     56. D(H  10,C   1,C   0,C   5)    179.7818         0.021327   
     57. D(H  10,C   1,C   0,C   6)     -1.4243         0.021327   
     58. D(C   2,C   1,C   0,C   5)     -0.2124         0.021327   
     59. D(C   2,C   1,C   0,C   6)    178.5815         0.021327   
     60. D(C   3,C   2,C   1,C   0)      0.4999         0.031116   
     61. D(H  11,C   2,C   1,H  10)      0.3539         0.031116   
     62. D(C   3,C   2,C   1,H  10)   -179.4943         0.031116   
     63. D(H  11,C   2,C   1,C   0)   -179.6520         0.031116   
     64. D(N  14,C   3,C   2,H  11)     -0.5713         0.024815   
     65. D(N  14,C   3,C   2,C   1)    179.2804         0.024815   
     66. D(C   4,C   3,C   2,H  11)    179.7326         0.024815   
     67. D(C   4,C   3,C   2,C   1)     -0.4157         0.024815   
     68. D(C   5,C   4,C   3,N  14)   -179.6721         0.024685   
     69. D(H  12,C   4,C   3,C   2)    179.7291         0.024685   
     70. D(C   5,C   4,C   3,C   2)      0.0237         0.024685   
     71. D(H  12,C   4,C   3,N  14)      0.0332         0.024685   
     72. D(H  13,C   5,C   4,H  12)      0.4096         0.031006   
     73. D(C   0,C   5,C   4,H  12)   -179.4178         0.031006   
     74. D(C   0,C   5,C   4,C   3)      0.2805         0.031006   
     75. D(H  13,C   5,C   0,C   6)      1.1900         0.021737   
     76. D(H  13,C   5,C   4,C   3)   -179.8920         0.031006   
     77. D(H  13,C   5,C   0,C   1)    179.9783         0.021737   
     78. D(C   4,C   5,C   0,C   6)   -178.9813         0.021737   
     79. D(C   4,C   5,C   0,C   1)     -0.1930         0.021737   
     80. D(H   9,C   6,C   0,C   5)     96.0494         0.014854   
     81. D(H   9,C   6,C   0,C   1)    -82.7244         0.014854   
     82. D(H   8,C   6,C   0,C   5)   -147.1611         0.014854   
     83. D(H   8,C   6,C   0,C   1)     34.0652         0.014854   
     84. D(H   7,C   6,C   0,C   5)    -22.4882         0.014854   
     85. D(H   7,C   6,C   0,C   1)    158.7380         0.014854   
     86. D(O  15,N  14,C   3,C   2)   -140.1734         0.016070   
     87. D(H  17,N  14,C   3,C   4)    103.7163         0.016070   
     88. D(H  17,N  14,C   3,C   2)    -75.9937         0.016070   
     89. D(O  16,N  14,C   3,C   4)   -140.8160         0.016070   
     90. D(O  16,N  14,C   3,C   2)     39.4740         0.016070   
     91. D(O  15,N  14,C   3,C   4)     39.5367         0.016070   
     92. D(H  17,O  15,N  14,O  16)    -49.8422         0.094188   
     93. D(H  17,O  15,N  14,C   3)    129.7708         0.094188   
     94. D(H  17,O  16,N  14,O  15)     38.0081         0.095846   
     95. D(H  17,O  16,N  14,C   3)   -141.6034         0.095846   
     96. D(O  15,H  17,O  16,N  14)    -18.2207         0.001500   
     97. D(O  16,H  17,O  15,N  14)     20.5973         0.001500   
     98. D(O  16,H  17,N  14,O  15)   -141.6314         0.001500   
     99. D(O  16,H  17,N  14,C   3)    126.4362         0.001500   
    100. D(O  15,H  17,N  14,O  16)    141.6314         0.001500   
    101. D(O  15,H  17,N  14,C   3)    -91.9324         0.001500   
    -----------------------------------------------------------------

Number of atoms                         .... 18
Number of degrees of freedom            .... 101

         *************************************************************
         *                GEOMETRY OPTIMIZATION CYCLE   1            *
         *************************************************************
---------------------------------
CARTESIAN COORDINATES (ANGSTROEM)
---------------------------------
  C     -6.032730    0.662027   -0.003356
  C     -7.098216    1.198948   -0.774711
  C     -7.435912    0.649676   -1.985890
  C     -6.707613   -0.460348   -2.433477
  C     -5.650622   -1.024672   -1.706073
  C     -5.319656   -0.458736   -0.500211
  C     -5.659087    1.283947    1.286686
  H     -5.113548    0.599847    1.934846
  H     -6.527962    1.688046    1.809439
  H     -4.996819    2.142710    1.094002
  H     -7.644506    2.051923   -0.393758
  H     -8.238562    1.044946   -2.591473
  H     -5.126748   -1.884414   -2.099081
  H     -4.507634   -0.869517    0.084763
  N     -7.071255   -1.059795   -3.713084
  O     -7.048373   -2.276077   -3.776898
  O     -7.375549   -0.304071   -4.615995
  H    -12.347677   -5.344200   -6.213370

----------------------------
CARTESIAN COORDINATES (A.U.)
----------------------------
  NO LB      ZA    FRAG     MASS         X           Y           Z
   0 C     6.0000    0    12.011  -11.400207    1.251049   -0.006342
   1 C     6.0000    0    12.011  -13.413684    2.265683   -1.463992
   2 C     6.0000    0    12.011  -14.051838    1.227710   -3.752788
   3 C     6.0000    0    12.011  -12.675551   -0.869931   -4.598605
   4 C     6.0000    0    12.011  -10.678128   -1.936350   -3.224010
   5 C     6.0000    0    12.011  -10.052693   -0.866885   -0.945262
   6 C     6.0000    0    12.011  -10.694125    2.426309    2.431483
   7 H     1.0000    0     1.008   -9.663206    1.133547    3.656329
   8 H     1.0000    0     1.008  -12.336061    3.189944    3.419344
   9 H     1.0000    0     1.008   -9.442619    4.049135    2.067365
  10 H     1.0000    0     1.008  -14.446023    3.877573   -0.744095
  11 H     1.0000    0     1.008  -15.568626    1.974662   -4.897174
  12 H     1.0000    0     1.008   -9.688150   -3.561026   -3.966689
  13 H     1.0000    0     1.008   -8.518194   -1.643150    0.160180
  14 N     7.0000    0    14.007  -13.362736   -2.002723   -7.016713
  15 O     8.0000    0    15.999  -13.319495   -4.301162   -7.137302
  16 O     8.0000    0    15.999  -13.937768   -0.574612   -8.722967
  17 H     1.0000    0     1.008  -23.333729  -10.099075  -11.741567

--------------------------------
INTERNAL COORDINATES (ANGSTROEM)
--------------------------------
 C      0   0   0     0.000000000000     0.00000000     0.00000000
 C      1   0   0     1.420750812356     0.00000000     0.00000000
 C      2   1   0     1.372112328966   120.83261326     0.00000000
 C      3   2   1     1.401037928749   118.11362962     0.49991221
 C      4   3   2     1.401716424550   123.03652767   359.58427264
 C      5   4   3     1.372561524914   118.14745236     0.02373352
 C      1   2   3     1.480068177106   120.24776574   178.58146305
 H      7   1   2     1.088906428792   112.41463157   158.73799022
 H      7   1   2     1.091563471015   111.84066056    34.06517603
 H      7   1   2     1.101453273749   109.08235189   277.27563927
 H      2   1   3     1.082185756346   119.03377741   179.99423040
 H      3   2   1     1.080377085993   122.08476575   180.34804693
 H      5   4   3     1.080765649224   119.80642344   179.72907363
 H      6   5   4     1.081811361664   119.96647280   180.10795396
 N      4   3   2     1.459098663554   118.43187533   179.28038742
 O     15   4   3     1.218169593124   116.83718537   219.82664416
 O     15   4   3     1.216125595663   117.26945224    39.47396120
 H     16  15   4     6.590326162983   117.97529303   129.77083612

---------------------------
INTERNAL COORDINATES (A.U.)
---------------------------
 C      0   0   0     0.000000000000     0.00000000     0.00000000
 C      1   0   0     2.684829939899     0.00000000     0.00000000
 C      2   1   0     2.592916526723   120.83261326     0.00000000
 C      3   2   1     2.647577988571   118.11362962     0.49991221
 C      4   3   2     2.648860159818   123.03652767   359.58427264
 C      5   4   3     2.593765384044   118.14745236     0.02373352
 C      1   2   3     2.796923514263   120.24776574   178.58146305
 H      7   1   2     2.057734935882   112.41463157   158.73799022
 H      7   1   2     2.062756018011   111.84066056    34.06517603
 H      7   1   2     2.081445036697   109.08235189   277.27563927
 H      2   1   3     2.045034705525   119.03377741   179.99423040
 H      3   2   1     2.041616813890   122.08476575   180.34804693
 H      5   4   3     2.042351091982   119.80642344   179.72907363
 H      6   5   4     2.044327202109   119.96647280   180.10795396
 N      4   3   2     2.757296876488   118.43187533   179.28038742
 O     15   4   3     2.302006915675   116.83718537   219.82664416
 O     15   4   3     2.298144320254   117.26945224    39.47396120
 H     16  15   4    12.453911581254   117.97529303   129.77083612

---------------------
BASIS SET INFORMATION
---------------------
There are 4 groups of distinct atoms

 Group   1 Type C   : 11s6p2d1f contracted to 5s3p2d1f pattern {62111/411/11/1}
 Group   2 Type H   : 5s1p contracted to 3s1p pattern {311/1}
 Group   3 Type N   : 11s6p2d1f contracted to 5s3p2d1f pattern {62111/411/11/1}
 Group   4 Type O   : 11s6p2d1f contracted to 5s3p2d1f pattern {62111/411/11/1}

Atom   0C    basis set group =>   1
Atom   1C    basis set group =>   1
Atom   2C    basis set group =>   1
Atom   3C    basis set group =>   1
Atom   4C    basis set group =>   1
Atom   5C    basis set group =>   1
Atom   6C    basis set group =>   1
Atom   7H    basis set group =>   2
Atom   8H    basis set group =>   2
Atom   9H    basis set group =>   2
Atom  10H    basis set group =>   2
Atom  11H    basis set group =>   2
Atom  12H    basis set group =>   2
Atom  13H    basis set group =>   2
Atom  14N    basis set group =>   3
Atom  15O    basis set group =>   4
Atom  16O    basis set group =>   4
Atom  17H    basis set group =>   2
---------------------------------
AUXILIARY/J BASIS SET INFORMATION
---------------------------------
There are 4 groups of distinct atoms

 Group   1 Type C   : 12s5p4d2f1g contracted to 6s4p3d1f1g pattern {711111/2111/211/2/1}
 Group   2 Type H   : 5s2p1d contracted to 3s1p1d pattern {311/2/1}
 Group   3 Type N   : 12s5p4d2f1g contracted to 6s4p3d1f1g pattern {711111/2111/211/2/1}
 Group   4 Type O   : 12s5p4d2f1g contracted to 6s4p3d1f1g pattern {711111/2111/211/2/1}

Atom   0C    basis set group =>   1
Atom   1C    basis set group =>   1
Atom   2C    basis set group =>   1
Atom   3C    basis set group =>   1
Atom   4C    basis set group =>   1
Atom   5C    basis set group =>   1
Atom   6C    basis set group =>   1
Atom   7H    basis set group =>   2
Atom   8H    basis set group =>   2
Atom   9H    basis set group =>   2
Atom  10H    basis set group =>   2
Atom  11H    basis set group =>   2
Atom  12H    basis set group =>   2
Atom  13H    basis set group =>   2
Atom  14N    basis set group =>   3
Atom  15O    basis set group =>   4
Atom  16O    basis set group =>   4
Atom  17H    basis set group =>   2
------------------------------------------------------------------------------
                           ORCA GTO INTEGRAL CALCULATION
                           -- RI-GTO INTEGRALS CHOSEN --
------------------------------------------------------------------------------
------------------------------------------------------------------------------
                   ___                                                        
                  /   \      - P O W E R E D   B Y -                         
                 /     \                                                     
                 |  |  |   _    _      __       _____    __    __             
                 |  |  |  | |  | |    /  \     |  _  \  |  |  /  |          
                  \  \/   | |  | |   /    \    | | | |  |  | /  /          
                 / \  \   | |__| |  /  /\  \   | |_| |  |  |/  /          
                |  |  |   |  __  | /  /__\  \  |    /   |      \           
                |  |  |   | |  | | |   __   |  |    \   |  |\   \          
                \     /   | |  | | |  |  |  |  | |\  \  |  | \   \       
                 \___/    |_|  |_| |__|  |__|  |_| \__\ |__|  \__/        
                                                                              
                      - O R C A' S   B I G   F R I E N D -                    
                                      &                                       
                       - I N T E G R A L  F E E D E R -                       
                                                                              
 v1 FN, 2020, v2 2021                                                         
------------------------------------------------------------------------------


Reading SHARK input file para_produtcs_optfreq2.SHARKINP.tmp ... ok
----------------------
SHARK INTEGRAL PACKAGE
----------------------

Number of atoms                             ...     18
Number of basis functions                   ...    358
Number of shells                            ...    142
Maximum angular momentum                    ...      3
Integral batch strategy                     ... SHARK/LIBINT Hybrid
RI-J (if used) integral strategy            ... SPLIT-RIJ (Revised 2003 algorithm where possible)
Printlevel                                  ...      1
Contraction scheme used                     ... SEGMENTED contraction
Coulomb Range Separation                    ... NOT USED
Exchange Range Separation                   ... NOT USED
Finite Nucleus Model                        ... NOT USED
Auxiliary Coulomb fitting basis             ... AVAILABLE
   # of basis functions in Aux-J            ...    578
   # of shells in Aux-J                     ...    190
   Maximum angular momentum in Aux-J        ...      4
Auxiliary J/K fitting basis                 ... NOT available
Auxiliary Correlation fitting basis         ... NOT available
Auxiliary 'external' fitting basis          ... NOT available
Integral threshold                          ...     2.500000e-11
Primitive cut-off                           ...     2.500000e-12
Primitive pair pre-selection threshold      ...     2.500000e-12

Calculating pre-screening integrals         ... done (  0.4 sec) Dimension = 142
Organizing shell pair data                  ... done (  0.4 sec)
Shell pair information
Total number of shell pairs                 ...     10153
Shell pairs after pre-screening             ...      8481
Total number of primitive shell pairs       ...     31120
Primitive shell pairs kept                  ...     19117
          la=0 lb=0:   2169 shell pairs
          la=1 lb=0:   2380 shell pairs
          la=1 lb=1:    656 shell pairs
          la=2 lb=0:   1240 shell pairs
          la=2 lb=1:    677 shell pairs
          la=2 lb=2:    192 shell pairs
          la=3 lb=0:    605 shell pairs
          la=3 lb=1:    337 shell pairs
          la=3 lb=2:    177 shell pairs
          la=3 lb=3:     48 shell pairs

Calculating one electron integrals          ... done (  0.3 sec)
Calculating RI/J V-Matrix + Cholesky decomp.... done (  0.1 sec)
Calculating Nuclear repulsion               ... done (  0.0 sec) ENN=    498.211824427416 Eh

SHARK setup successfully completed in   2.1 seconds

Maximum memory used throughout the entire GTOINT-calculation: 127.7 MB
-------------------------------------------------------------------------------
                                 ORCA SCF
-------------------------------------------------------------------------------

------------
SCF SETTINGS
------------
Hamiltonian:
 Density Functional     Method          .... DFT(GTOs)
 Exchange Functional    Exchange        .... B88
   X-Alpha parameter    XAlpha          ....  0.666667
   Becke's b parameter  XBeta           ....  0.004200
 Correlation Functional Correlation     .... LYP
 LDA part of GGA corr.  LDAOpt          .... VWN-3
 Gradients option       PostSCFGGA      .... off
 Hybrid DFT is turned on
   Fraction HF Exchange ScalHFX         ....  0.200000
   Scaling of DF-GGA-X  ScalDFX         ....  0.720000
   Scaling of DF-GGA-C  ScalDFC         ....  0.810000
   Scaling of DF-LDA-C  ScalLDAC        ....  1.000000
   Perturbative correction              ....  0.000000
   Density functional embedding theory  .... OFF
   NL short-range parameter             ....  4.800000
 RI-approximation to the Coulomb term is turned on
   Number of AuxJ basis functions       .... 578
   RIJ-COSX (HFX calculated with COS-X)).... on


General Settings:
 Integral files         IntName         .... para_produtcs_optfreq2
 Hartree-Fock type      HFTyp           .... RHF
 Total Charge           Charge          ....    1
 Multiplicity           Mult            ....    1
 Number of Electrons    NEL             ....   72
 Basis Dimension        Dim             ....  358
 Nuclear Repulsion      ENuc            ....    498.2118244274 Eh

Convergence Acceleration:
 DIIS                   CNVDIIS         .... on
   Start iteration      DIISMaxIt       ....    12
   Startup error        DIISStart       ....  0.200000
   # of expansion vecs  DIISMaxEq       ....     5
   Bias factor          DIISBfac        ....   1.050
   Max. coefficient     DIISMaxC        ....  10.000
 Trust-Rad. Augm. Hess. CNVTRAH         .... auto
   Auto Start mean grad. ratio tolernc. ....  1.125000
   Auto Start start iteration           ....    20
   Auto Start num. interpolation iter.  ....    10
   Max. Number of Micro iterations      ....    16
   Max. Number of Macro iterations      .... Maxiter - #DIIS iter
   Number of Davidson start vectors     ....     2
   Converg. threshold I  (grad. norm)   ....   1.000e-05
   Converg. threshold II (energy diff.) ....   1.000e-08
   Grad. Scal. Fac. for Micro threshold ....   0.100
   Minimum threshold for Micro iter.    ....   0.010
   NR start threshold (gradient norm)   ....   0.001
   Initial trust radius                 ....   0.400
   Minimum AH scaling param. (alpha)    ....   1.000
   Maximum AH scaling param. (alpha)    .... 1000.000
   Orbital update algorithm             .... Taylor
   White noise on init. David. guess    .... on
   Maximum white noise                  ....   0.010
   Quad. conv. algorithm                .... NR
 SOSCF                  CNVSOSCF        .... on
   Start iteration      SOSCFMaxIt      ....   150
   Startup grad/error   SOSCFStart      ....  0.003300
 Level Shifting         CNVShift        .... on
   Level shift para.    LevelShift      ....    0.2500
   Turn off err/grad.   ShiftErr        ....    0.0010
 Zerner damping         CNVZerner       .... off
 Static damping         CNVDamp         .... on
   Fraction old density DampFac         ....    0.7000
   Max. Damping (<1)    DampMax         ....    0.9800
   Min. Damping (>=0)   DampMin         ....    0.0000
   Turn off err/grad.   DampErr         ....    0.1000
 Fernandez-Rico         CNVRico         .... off

SCF Procedure:
 Maximum # iterations   MaxIter         ....   125
 SCF integral mode      SCFMode         .... Direct
   Integral package                     .... SHARK and LIBINT hybrid scheme
 Reset frequency        DirectResetFreq ....    20
 Integral Threshold     Thresh          ....  2.500e-11 Eh
 Primitive CutOff       TCut            ....  2.500e-12 Eh

Convergence Tolerance:
 Convergence Check Mode ConvCheckMode   .... Total+1el-Energy
 Convergence forced     ConvForced      .... 0
 Energy Change          TolE            ....  1.000e-08 Eh
 1-El. energy change                    ....  1.000e-05 Eh
 Orbital Gradient       TolG            ....  1.000e-05
 Orbital Rotation angle TolX            ....  1.000e-05
 DIIS Error             TolErr          ....  5.000e-07


Diagonalization of the overlap matrix:
Smallest eigenvalue                        ... 8.193e-06
Time for diagonalization                   ...    0.057 sec
Threshold for overlap eigenvalues          ... 1.000e-08
Number of eigenvalues below threshold      ... 0
Time for construction of square roots      ...    0.026 sec
Total time needed                          ...    0.084 sec

Time for model grid setup =    1.692 sec

------------------------------
INITIAL GUESS: MODEL POTENTIAL
------------------------------
Loading Hartree-Fock densities                     ... done
Calculating cut-offs                               ... done
Initializing the effective Hamiltonian             ... done
Setting up the integral package (SHARK)            ... done
Starting the Coulomb interaction                   ... done (   4.4 sec)
Reading the grid                                   ... done
Mapping shells                                     ... done
Starting the XC term evaluation                    ... done (   3.8 sec)
  promolecular density results
     # of electrons  =     72.992176086
     EX              =    -61.300609777
     EC              =     -2.482012299
     EX+EC           =    -63.782622076
Transforming the Hamiltonian                       ... done (   0.0 sec)
Diagonalizing the Hamiltonian                      ... done (   0.1 sec)
Back transforming the eigenvectors                 ... done (   0.0 sec)
Now organizing SCF variables                       ... done
                      ------------------
                      INITIAL GUESS DONE (  10.0 sec)
                      ------------------
-------------------
DFT GRID GENERATION
-------------------

General Integration Accuracy     IntAcc      ... 4.388
Radial Grid Type                 RadialGrid  ... OptM3 with GC (2021)
Angular Grid (max. ang.)         AngularGrid ... 4 (Lebedev-302)
Angular grid pruning method      GridPruning ... 4 (adaptive)
Weight generation scheme         WeightScheme... Becke
Basis function cutoff            BFCut       ... 1.0000e-11
Integration weight cutoff        WCut        ... 1.0000e-14
Angular grids for H and He will be reduced by one unit
Partially contracted basis set               ... off
Rotationally invariant grid construction     ... off

Total number of grid points                  ...    86235
Total number of batches                      ...     1356
Average number of points per batch           ...       63
Average number of grid points per atom       ...     4791
Time for grid setup =    6.729 sec

--------------------
COSX GRID GENERATION
--------------------

GRIDX 1
-------
General Integration Accuracy     IntAcc      ... 3.816
Radial Grid Type                 RadialGrid  ... OptM3 with GC (2021)
Angular Grid (max. ang.)         AngularGrid ... 1 (Lebedev-50)
Angular grid pruning method      GridPruning ... 4 (adaptive)
Weight generation scheme         WeightScheme... Becke
Basis function cutoff            BFCut       ... 1.0000e-11
Integration weight cutoff        WCut        ... 1.0000e-14
Angular grids for H and He will be reduced by one unit
Partially contracted basis set               ... on
Rotationally invariant grid construction     ... off

Total number of grid points                  ...    10980
Total number of batches                      ...      179
Average number of points per batch           ...       61
Average number of grid points per atom       ...      610
UseSFitting                                  ... on

GRIDX 2
-------
General Integration Accuracy     IntAcc      ... 4.020
Radial Grid Type                 RadialGrid  ... OptM3 with GC (2021)
Angular Grid (max. ang.)         AngularGrid ... 2 (Lebedev-110)
Angular grid pruning method      GridPruning ... 4 (adaptive)
Weight generation scheme         WeightScheme... Becke
Basis function cutoff            BFCut       ... 1.0000e-11
Integration weight cutoff        WCut        ... 1.0000e-14
Angular grids for H and He will be reduced by one unit
Partially contracted basis set               ... on
Rotationally invariant grid construction     ... off

Total number of grid points                  ...    24203
Total number of batches                      ...      388
Average number of points per batch           ...       62
Average number of grid points per atom       ...     1345
UseSFitting                                  ... on

GRIDX 3
-------
General Integration Accuracy     IntAcc      ... 4.338
Radial Grid Type                 RadialGrid  ... OptM3 with GC (2021)
Angular Grid (max. ang.)         AngularGrid ... 3 (Lebedev-194)
Angular grid pruning method      GridPruning ... 4 (adaptive)
Weight generation scheme         WeightScheme... Becke
Basis function cutoff            BFCut       ... 1.0000e-11
Integration weight cutoff        WCut        ... 1.0000e-14
Angular grids for H and He will be reduced by one unit
Partially contracted basis set               ... on
Rotationally invariant grid construction     ... off

Total number of grid points                  ...    53248
Total number of batches                      ...      841
Average number of points per batch           ...       63
Average number of grid points per atom       ...     2958
UseSFitting                                  ... on

Time for X-Grid setup             =    9.127 sec

--------------
SCF ITERATIONS
--------------
ITER       Energy         Delta-E        Max-DP      RMS-DP      [F,P]     Damp
               ***  Starting incremental Fock matrix formation  ***
  0   -475.9566227257   0.000000000000 0.14194846  0.00134976  0.2550083 0.7000
  1   -476.2243645511  -0.267741825410 0.09984092  0.00092539  0.0813540 0.7000
                               ***Turning on DIIS***
  2   -476.2325220698  -0.008157518672 0.30647712  0.00215664  0.0538900 0.0000
  3   -475.8938608422   0.338661227590 0.13809315  0.00089549  0.2553370 0.7000
  4   -476.2292566008  -0.335395758590 0.32221780  0.00209567  0.0740861 0.0000
  5   -476.2208233108   0.008433290002 0.00843938  0.00019826  0.0503706 0.0000
  6   -476.2336536113  -0.012830300496 0.00868410  0.00018682  0.0448882 0.0000
  7   -476.2410968646  -0.007443253298 0.02274474  0.00047467  0.0391952 0.0000
  8   -476.2530589217  -0.011962057056 0.02217685  0.00034325  0.0285512 0.0000
  9   -476.2575804858  -0.004521564165 0.03896983  0.00057705  0.0169883 0.0000
 10   -476.2611091992  -0.003528713419 0.01279882  0.00018555  0.0053496 0.0000
                      *** Initiating the SOSCF procedure ***
                           *** Shutting down DIIS ***
                      *** Re-Reading the Fockian *** 
                      *** Removing any level shift *** 
ITER      Energy       Delta-E        Grad      Rot      Max-DP    RMS-DP
 11   -476.26149960  -0.0003903991  0.002224  0.002224  0.013584  0.000231
               *** Restarting incremental Fock matrix formation ***
 12   -476.26610259  -0.0046029912  0.025412  0.113889  0.017758  0.000298
 13   -476.26167293   0.0044296613  0.005285  0.021841  0.003872  0.000098
 14   -476.26140245   0.0002704795  0.002872  0.117154  0.020538  0.000473
 15   -476.26442394  -0.0030214887  0.033816  0.114951  0.021052  0.000470
 16   -476.26151219   0.0029117485  0.000885  0.005091  0.005824  0.000071
 17   -476.26149661   0.0000155780  0.001153  0.001763  0.001642  0.000025
 18   -476.26152635  -0.0000297419  0.000243  0.002833  0.001489  0.000019
 19   -476.26152806  -0.0000017106  0.000552  0.008574  0.002401  0.000030
 20   -476.26155759  -0.0000295274  0.000859  0.012717  0.003625  0.000043
 21   -476.26152411   0.0000334761  0.000400  0.001728  0.002628  0.000027
 22   -476.26150880   0.0000153098  0.001282  0.002483  0.001957  0.000021
 23   -476.26152577  -0.0000169647  0.000123  0.001127  0.000231  0.000004
 24   -476.26152556   0.0000002057  0.000204  0.000465  0.000126  0.000002
 25   -476.26152599  -0.0000004224  0.000075  0.003581  0.000794  0.000010
 26   -476.26152834  -0.0000023547  0.000195  0.004586  0.001098  0.000013
 27   -476.26152568   0.0000026632  0.000037  0.000532  0.000115  0.000002
 28   -476.26152562   0.0000000569  0.000022  0.009501  0.002030  0.000033
 29   -476.26153079  -0.0000051729  0.000448  0.010275  0.002169  0.000035
 30   -476.26152557   0.0000052235  0.000032  0.000392  0.000068  0.000001
 31   -476.26152555   0.0000000219  0.000028  0.000362  0.000063  0.000001
               *** Restarting incremental Fock matrix formation ***
 32   -476.26152557  -0.0000000191  0.000032  0.000032  0.000216  0.000002
 33   -476.26152557  -0.0000000013  0.000031  0.001848  0.013593  0.000149
 34   -476.26152561  -0.0000000460  0.000035  0.005324  0.046970  0.000505

 WARNING: the maximum gradient error descreased on average only by a factor   1.1
          during the last 20 iterations

                      *** Initiating the TRAH-SCF procedure ***

              ***Rediagonalizing the Fockian in SOSCF/NRSCF***

TRAH GRIDX
----------

General Integration Accuracy     IntAcc      ... 3.067
Radial Grid Type                 RadialGrid  ... OptM3 with GC (2021)
Angular Grid (max. ang.)         AngularGrid ... 1 (Lebedev-50)
Angular grid pruning method      GridPruning ... 4 (adaptive)
Weight generation scheme         WeightScheme... Becke
Basis function cutoff            BFCut       ... 1.0000e-11
Integration weight cutoff        WCut        ... 1.0000e-14
Angular grids for H and He will be reduced by one unit
Partially contracted basis set               ... on
Rotationally invariant grid construction     ... off

Total number of grid points                  ...     5801
Total number of batches                      ...      102
Average number of points per batch           ...       56
Average number of grid points per atom       ...      322


TRAH GRID
---------

General Integration Accuracy     IntAcc      ... 3.467
Radial Grid Type                 RadialGrid  ... OptM3 with GC (2021)
Angular Grid (max. ang.)         AngularGrid ... 1 (Lebedev-50)
Angular grid pruning method      GridPruning ... 4 (adaptive)
Weight generation scheme         WeightScheme... Becke
Basis function cutoff            BFCut       ... 1.0000e-11
Integration weight cutoff        WCut        ... 1.0000e-14
Angular grids for H and He will be reduced by one unit
Partially contracted basis set               ... off
Rotationally invariant grid construction     ... off

Total number of grid points                  ...    12659
Total number of batches                      ...      206
Average number of points per batch           ...       61
Average number of grid points per atom       ...      703

 --------------------------------------------------------------------------------------------
   Iter.        energy            ||Error||_2        Shift      TRadius  Mac/Mic        Rej.
 --------------------------------------------------------------------------------------------
WARNING: 12 diagonal Hessian elements are negative!
    0       -476.261525584473     3.733132e-03                     0.400 (TRAH MAcro)   No
WARNING : negative HOMO - LUMO gap : -0.217751
    0     dE    -5.672810e-07     4.168295e-03    -1.1346e-06      0.000 (TRAH MIcro)
    0     dE    -2.650258e-04     4.713279e-01    -2.6714e-03      0.400 (TRAH MIcro)
    0     dE    -3.481042e-03     4.373976e-02    -4.3273e-02      0.400 (TRAH MIcro)
    0     dE    -3.605528e-03     2.934847e-02    -4.4828e-02      0.400 (TRAH MIcro)
    0     dE    -2.012869e-03     1.941248e-01    -7.5543e-02      0.229 (TRAH MIcro)
    0     dE    -2.007522e-02     4.024634e-01    -2.5888e-01      0.393 (TRAH MIcro)
    0     dE    -4.322036e-02     4.099421e-01    -5.3949e-01      0.400 (TRAH MIcro)
    0     dE    -1.306066e-02     1.136788e-01    -8.3079e-01      0.177 (TRAH MIcro)
    0     dE    -4.862221e-02     7.103358e-02    -8.9136e-01      0.330 (TRAH MIcro)
    0     dE    -4.349715e-02     4.289517e-02    -9.0219e-01      0.311 (TRAH MIcro)
    0     dE    -4.415897e-02     4.506339e-02    -9.1222e-01      0.311 (TRAH MIcro)
    0     dE    -5.689271e-02     2.582987e-02    -9.1608e-01      0.352 (TRAH MIcro)
    0     dE    -6.932729e-02     8.992041e-03    -9.1717e-01      0.389 (TRAH MIcro)
    0     dE    -7.079727e-02     6.141600e-03    -9.1737e-01      0.393 (TRAH MIcro)
WARNING: 9 diagonal Hessian elements are negative!
    1       -476.332903577863     3.108662e-01                     0.480 (TRAH MAcro)   No
WARNING : negative HOMO - LUMO gap : -0.120300
    1     dE    -2.062367e-02     7.580772e-01    -4.0556e-02      0.131 (TRAH MIcro)
    1     dE    -7.891137e-02     5.333302e-01    -1.2959e-01      0.467 (TRAH MIcro)
    1     dE    -8.750164e-02     1.196309e-01    -1.7818e-01      0.480 (TRAH MIcro)
    1     dE    -8.892536e-02     1.052568e-01    -1.9479e-01      0.480 (TRAH MIcro)
    1     dE    -9.427521e-02     2.813888e-01    -3.2209e-01      0.480 (TRAH MIcro)
    1     dE    -6.159724e-02     7.617939e-02    -6.5289e-01      0.272 (TRAH MIcro)
    1     dE    -6.192030e-02     1.540739e-02    -6.5467e-01      0.273 (TRAH MIcro)
    1     dE    -6.188914e-02     4.717818e-03    -6.5480e-01      0.272 (TRAH MIcro)
    2       -476.372716876242     1.361748e-01                     0.480 (TRAH MAcro)   No
    2     dE    -1.436346e-03     1.768807e-01    -2.8714e-03      0.021 (TRAH MIcro)
    2     dE    -1.733672e-03     1.053196e-01    -3.4641e-03      0.030 (TRAH MIcro)
    2     dE    -2.109458e-03     2.333704e-02    -4.2132e-03      0.037 (TRAH MIcro)
    2     dE    -2.134119e-03     7.554640e-03    -4.2624e-03      0.037 (TRAH MIcro)
    3       -476.374902976687     8.388986e-03                     0.576 (TRAH MAcro)   No
WARNING : small    HOMO - LUMO gap : 0.012332
    3     dE    -1.481352e-06     1.691664e-02    -2.9627e-06      0.000 (TRAH MIcro)
    3     dE    -3.830468e-06     1.165484e-02    -7.6609e-06      0.002 (TRAH MIcro)
    3     dE    -7.989420e-06     4.318565e-03    -1.5979e-05      0.004 (TRAH MIcro)
    3     dE    -1.069191e-05     1.661219e-03    -2.1383e-05      0.006 (TRAH MIcro)
    3     dE    -1.080878e-05     6.360392e-04    -2.1617e-05      0.007 (TRAH MIcro)
    4       -476.374913913438     6.543145e-04                           (NR   MAcro)
WARNING : small    HOMO - LUMO gap : 0.011828
    4     dE    -5.842093e-09     5.802029e-04                           (NR   MIcro)
    4     dE    -2.584227e-08     3.954294e-04                           (NR   MIcro)
    4     dE    -4.156199e-08     2.251986e-04                           (NR   MIcro)
    4     dE    -4.513229e-08     1.103516e-04                           (NR   MIcro)
    4     dE    -4.601113e-08     5.545759e-05                           (NR   MIcro)
    4     dE    -4.623386e-08     2.377050e-05                           (NR   MIcro)
    4     dE    -4.628007e-08     1.313650e-05                           (NR   MIcro)
    4     dE    -4.629273e-08     4.921080e-06                           (NR   MIcro)
    4     dE    -4.629435e-08     2.352327e-06                           (NR   MIcro)
    5       -476.374913959741     2.748410e-06                           (NR   MAcro)
WARNING : small    HOMO - LUMO gap : 0.011818
    5     dE    -7.547587e-14     2.534116e-06                           (NR   MIcro)
    5     dE    -3.668301e-13     1.082268e-06                           (NR   MIcro)
    5     dE    -4.440621e-13     3.969401e-07                           (NR   MIcro)
    6       -476.374913959736     3.966827e-07                           (NR   MAcro)
WARNING : small    HOMO - LUMO gap : 0.011818

               *****************************************************
               *                     SUCCESS                       *
               *           SCF CONVERGED AFTER  85 CYCLES          *
               *****************************************************

Old exchange energy                            =    -12.312187715 Eh
New exchange energy                            =    -12.312175724 Eh
Exchange energy change after final integration =      0.000011991 Eh
Total energy after final integration           =   -476.374901969 Eh
Final COS-X integration done in                =   121.058 sec

----------------
TOTAL SCF ENERGY
----------------

Total Energy       :         -476.37490197 Eh          -12962.82010 eV

Components:
Nuclear Repulsion  :          498.21182443 Eh           13557.03297 eV
Electronic Energy  :         -974.58672640 Eh          -26519.85307 eV
One Electron Energy:        -1622.77889251 Eh          -44158.05862 eV
Two Electron Energy:          648.19216611 Eh           17638.20555 eV
Max COSX asymmetry :            0.00000087 Eh               0.00002 eV

Virial components:
Potential Energy   :         -950.54494349 Eh          -25865.64290 eV
Kinetic Energy     :          474.17004152 Eh           12902.82280 eV
Virial Ratio       :            2.00464994


DFT components:
N(Alpha)           :       35.999419702834 electrons
N(Beta)            :       35.999419702834 electrons
N(Total)           :       71.998839405669 electrons
E(X)               :      -49.134298992746 Eh       
E(C)               :       -3.163839128674 Eh       
E(XC)              :      -52.298138121419 Eh       
DFET-embed. en.    :        0.000000000000 Eh       

---------------
SCF CONVERGENCE
---------------

  Last Energy change         ...    4.8317e-12  Tolerance :   1.0000e-08
  Last Orbital Gradient      ...    3.9668e-07  Tolerance :   1.0000e-05
  Last Orbital Rotation      ...    7.4419e-07

             **** THE GBW FILE WAS UPDATED (para_produtcs_optfreq2.gbw) ****
             **** DENSITY para_produtcs_optfreq2.scfp WAS UPDATED ****
             **** ENERGY FILE WAS UPDATED (para_produtcs_optfreq2.en.tmp) ****
             **** THE GBW FILE WAS UPDATED (para_produtcs_optfreq2.gbw) ****
             **** DENSITY para_produtcs_optfreq2.scfp WAS UPDATED ****
----------------
ORBITAL ENERGIES
----------------

  NO   OCC          E(Eh)            E(eV) 
   0   2.0000     -19.323184      -525.8106 
   1   2.0000     -19.323013      -525.8059 
   2   2.0000     -14.708620      -400.2419 
   3   2.0000     -10.418718      -283.5077 
   4   2.0000     -10.389238      -282.7055 
   5   2.0000     -10.364860      -282.0422 
   6   2.0000     -10.364297      -282.0269 
   7   2.0000     -10.358765      -281.8763 
   8   2.0000     -10.357518      -281.8424 
   9   2.0000     -10.324501      -280.9440 
  10   2.0000      -1.395380       -37.9702 
  11   2.0000      -1.222053       -33.2538 
  12   2.0000      -1.058402       -28.8006 
  13   2.0000      -0.984114       -26.7791 
  14   2.0000      -0.938038       -25.5253 
  15   2.0000      -0.902941       -24.5703 
  16   2.0000      -0.818110       -22.2619 
  17   2.0000      -0.798008       -21.7149 
  18   2.0000      -0.750867       -20.4321 
  19   2.0000      -0.717990       -19.5375 
  20   2.0000      -0.698674       -19.0119 
  21   2.0000      -0.674406       -18.3515 
  22   2.0000      -0.646522       -17.5928 
  23   2.0000      -0.641335       -17.4516 
  24   2.0000      -0.616688       -16.7809 
  25   2.0000      -0.608790       -16.5660 
  26   2.0000      -0.585943       -15.9443 
  27   2.0000      -0.551551       -15.0085 
  28   2.0000      -0.542944       -14.7742 
  29   2.0000      -0.538077       -14.6418 
  30   2.0000      -0.520943       -14.1756 
  31   2.0000      -0.473877       -12.8948 
  32   2.0000      -0.468546       -12.7498 
  33   2.0000      -0.460425       -12.5288 
  34   2.0000      -0.441070       -12.0021 
  35   2.0000      -0.412164       -11.2156 
  36   0.0000      -0.400346       -10.8940 
  37   0.0000      -0.240481        -6.5438 
  38   0.0000      -0.187284        -5.0963 
  39   0.0000      -0.176970        -4.8156 
  40   0.0000      -0.089694        -2.4407 
  41   0.0000      -0.070578        -1.9205 
  42   0.0000      -0.057550        -1.5660 
  43   0.0000      -0.051488        -1.4011 
  44   0.0000      -0.041276        -1.1232 
  45   0.0000      -0.017166        -0.4671 
  46   0.0000      -0.015274        -0.4156 
  47   0.0000      -0.005693        -0.1549 
  48   0.0000      -0.001615        -0.0440 
  49   0.0000       0.004102         0.1116 
  50   0.0000       0.030290         0.8242 
  51   0.0000       0.039062         1.0629 
  52   0.0000       0.048803         1.3280 
  53   0.0000       0.054592         1.4855 
  54   0.0000       0.075533         2.0554 
  55   0.0000       0.077231         2.1016 
  56   0.0000       0.095427         2.5967 
  57   0.0000       0.098869         2.6904 
  58   0.0000       0.110333         3.0023 
  59   0.0000       0.119293         3.2461 
  60   0.0000       0.123863         3.3705 
  61   0.0000       0.125499         3.4150 
  62   0.0000       0.131910         3.5894 
  63   0.0000       0.141602         3.8532 
  64   0.0000       0.161650         4.3987 
  65   0.0000       0.167832         4.5670 
  66   0.0000       0.186668         5.0795 
  67   0.0000       0.188916         5.1407 
  68   0.0000       0.195888         5.3304 
  69   0.0000       0.209627         5.7042 
  70   0.0000       0.216665         5.8958 
  71   0.0000       0.219727         5.9791 
  72   0.0000       0.241540         6.5726 
  73   0.0000       0.258991         7.0475 
  74   0.0000       0.268373         7.3028 
  75   0.0000       0.270877         7.3709 
  76   0.0000       0.277501         7.5512 
  77   0.0000       0.286782         7.8037 
  78   0.0000       0.289143         7.8680 
  79   0.0000       0.302342         8.2272 
  80   0.0000       0.313177         8.5220 
  81   0.0000       0.327380         8.9085 
  82   0.0000       0.335095         9.1184 
  83   0.0000       0.338539         9.2121 
  84   0.0000       0.347215         9.4482 
  85   0.0000       0.348985         9.4964 
  86   0.0000       0.368707        10.0330 
  87   0.0000       0.377551        10.2737 
  88   0.0000       0.392353        10.6765 
  89   0.0000       0.394594        10.7375 
  90   0.0000       0.401178        10.9166 
  91   0.0000       0.424391        11.5483 
  92   0.0000       0.429231        11.6800 
  93   0.0000       0.448245        12.1974 
  94   0.0000       0.465943        12.6790 
  95   0.0000       0.473547        12.8859 
  96   0.0000       0.484419        13.1817 
  97   0.0000       0.496719        13.5164 
  98   0.0000       0.504043        13.7157 
  99   0.0000       0.513005        13.9596 
 100   0.0000       0.527700        14.3594 
 101   0.0000       0.539368        14.6769 
 102   0.0000       0.559931        15.2365 
 103   0.0000       0.579590        15.7715 
 104   0.0000       0.593961        16.1625 
 105   0.0000       0.605109        16.4658 
 106   0.0000       0.612206        16.6590 
 107   0.0000       0.627192        17.0667 
 108   0.0000       0.652772        17.7628 
 109   0.0000       0.679625        18.4935 
 110   0.0000       0.695553        18.9269 
 111   0.0000       0.715004        19.4563 
 112   0.0000       0.737862        20.0782 
 113   0.0000       0.753595        20.5064 
 114   0.0000       0.763890        20.7865 
 115   0.0000       0.769716        20.9450 
 116   0.0000       0.807360        21.9694 
 117   0.0000       0.832136        22.6436 
 118   0.0000       0.849118        23.1057 
 119   0.0000       0.870165        23.6784 
 120   0.0000       0.892022        24.2732 
 121   0.0000       0.895212        24.3600 
 122   0.0000       0.903660        24.5898 
 123   0.0000       0.935214        25.4485 
 124   0.0000       0.950000        25.8508 
 125   0.0000       0.974043        26.5051 
 126   0.0000       1.010137        27.4872 
 127   0.0000       1.013063        27.5668 
 128   0.0000       1.053315        28.6622 
 129   0.0000       1.059717        28.8364 
 130   0.0000       1.071172        29.1481 
 131   0.0000       1.084855        29.5204 
 132   0.0000       1.098037        29.8791 
 133   0.0000       1.110896        30.2290 
 134   0.0000       1.128412        30.7056 
 135   0.0000       1.139080        30.9959 
 136   0.0000       1.179011        32.0825 
 137   0.0000       1.180875        32.1332 
 138   0.0000       1.195308        32.5260 
 139   0.0000       1.195374        32.5278 
 140   0.0000       1.195384        32.5280 
 141   0.0000       1.205900        32.8142 
 142   0.0000       1.230981        33.4967 
 143   0.0000       1.264075        34.3972 
 144   0.0000       1.282606        34.9015 
 145   0.0000       1.308127        35.5960 
 146   0.0000       1.318197        35.8700 
 147   0.0000       1.346699        36.6455 
 148   0.0000       1.358169        36.9577 
 149   0.0000       1.361515        37.0487 
 150   0.0000       1.381351        37.5885 
 151   0.0000       1.390061        37.8255 
 152   0.0000       1.398905        38.0661 
 153   0.0000       1.404458        38.2172 
 154   0.0000       1.425203        38.7817 
 155   0.0000       1.434435        39.0330 
 156   0.0000       1.441008        39.2118 
 157   0.0000       1.450852        39.4797 
 158   0.0000       1.461041        39.7569 
 159   0.0000       1.476951        40.1899 
 160   0.0000       1.501816        40.8665 
 161   0.0000       1.516800        41.2742 
 162   0.0000       1.530039        41.6345 
 163   0.0000       1.561728        42.4968 
 164   0.0000       1.567497        42.6538 
 165   0.0000       1.600346        43.5476 
 166   0.0000       1.635231        44.4969 
 167   0.0000       1.656581        45.0779 
 168   0.0000       1.672021        45.4980 
 169   0.0000       1.703857        46.3643 
 170   0.0000       1.729078        47.0506 
 171   0.0000       1.736562        47.2543 
 172   0.0000       1.777551        48.3696 
 173   0.0000       1.808069        49.2000 
 174   0.0000       1.824988        49.6605 
 175   0.0000       1.834608        49.9222 
 176   0.0000       1.852529        50.4099 
 177   0.0000       1.869499        50.8716 
 178   0.0000       1.890741        51.4497 
 179   0.0000       1.900255        51.7086 
 180   0.0000       1.917557        52.1794 
 181   0.0000       1.947089        52.9830 
 182   0.0000       1.962706        53.4080 
 183   0.0000       1.975948        53.7683 
 184   0.0000       1.997643        54.3586 
 185   0.0000       2.001920        54.4750 
 186   0.0000       2.012589        54.7653 
 187   0.0000       2.022198        55.0268 
 188   0.0000       2.045429        55.6590 
 189   0.0000       2.058064        56.0028 
 190   0.0000       2.085469        56.7485 
 191   0.0000       2.092587        56.9422 
 192   0.0000       2.118790        57.6552 
 193   0.0000       2.128044        57.9070 
 194   0.0000       2.191257        59.6271 
 195   0.0000       2.211497        60.1779 
 196   0.0000       2.227547        60.6146 
 197   0.0000       2.233774        60.7841 
 198   0.0000       2.291946        62.3670 
 199   0.0000       2.313132        62.9435 
 200   0.0000       2.333308        63.4925 
 201   0.0000       2.348530        63.9068 
 202   0.0000       2.356774        64.1311 
 203   0.0000       2.374951        64.6257 
 204   0.0000       2.384208        64.8776 
 205   0.0000       2.412052        65.6353 
 206   0.0000       2.427299        66.0502 
 207   0.0000       2.454421        66.7882 
 208   0.0000       2.462620        67.0113 
 209   0.0000       2.470839        67.2349 
 210   0.0000       2.482915        67.5635 
 211   0.0000       2.499820        68.0235 
 212   0.0000       2.516895        68.4882 
 213   0.0000       2.519506        68.5593 
 214   0.0000       2.543370        69.2086 
 215   0.0000       2.569775        69.9271 
 216   0.0000       2.586335        70.3777 
 217   0.0000       2.591408        70.5158 
 218   0.0000       2.600685        70.7682 
 219   0.0000       2.603320        70.8399 
 220   0.0000       2.625378        71.4402 
 221   0.0000       2.642719        71.9120 
 222   0.0000       2.661875        72.4333 
 223   0.0000       2.677605        72.8613 
 224   0.0000       2.712372        73.8074 
 225   0.0000       2.726008        74.1785 
 226   0.0000       2.750302        74.8395 
 227   0.0000       2.753701        74.9320 
 228   0.0000       2.789830        75.9151 
 229   0.0000       2.796377        76.0933 
 230   0.0000       2.835442        77.1563 
 231   0.0000       2.839347        77.2626 
 232   0.0000       2.859557        77.8125 
 233   0.0000       2.862233        77.8853 
 234   0.0000       2.885165        78.5093 
 235   0.0000       2.901237        78.9467 
 236   0.0000       2.924349        79.5756 
 237   0.0000       2.939181        79.9792 
 238   0.0000       2.945962        80.1637 
 239   0.0000       2.969447        80.8028 
 240   0.0000       2.971875        80.8688 
 241   0.0000       2.979929        81.0880 
 242   0.0000       2.990574        81.3776 
 243   0.0000       2.997970        81.5789 
 244   0.0000       3.027023        82.3695 
 245   0.0000       3.046148        82.8899 
 246   0.0000       3.070034        83.5399 
 247   0.0000       3.089587        84.0719 
 248   0.0000       3.104683        84.4827 
 249   0.0000       3.106443        84.5306 
 250   0.0000       3.120743        84.9197 
 251   0.0000       3.140298        85.4519 
 252   0.0000       3.158155        85.9378 
 253   0.0000       3.165417        86.1354 
 254   0.0000       3.172937        86.3400 
 255   0.0000       3.206529        87.2541 
 256   0.0000       3.210924        87.3737 
 257   0.0000       3.218466        87.5789 
 258   0.0000       3.240462        88.1775 
 259   0.0000       3.263531        88.8052 
 260   0.0000       3.283466        89.3477 
 261   0.0000       3.288154        89.4752 
 262   0.0000       3.306575        89.9765 
 263   0.0000       3.313015        90.1517 
 264   0.0000       3.368617        91.6647 
 265   0.0000       3.381107        92.0046 
 266   0.0000       3.400945        92.5444 
 267   0.0000       3.441045        93.6356 
 268   0.0000       3.498651        95.2031 
 269   0.0000       3.534485        96.1782 
 270   0.0000       3.552965        96.6811 
 271   0.0000       3.572180        97.2039 
 272   0.0000       3.588229        97.6407 
 273   0.0000       3.607585        98.1674 
 274   0.0000       3.655557        99.4728 
 275   0.0000       3.678900       100.1080 
 276   0.0000       3.698583       100.6435 
 277   0.0000       3.708425       100.9114 
 278   0.0000       3.728083       101.4463 
 279   0.0000       3.831144       104.2507 
 280   0.0000       3.836749       104.4032 
 281   0.0000       3.879906       105.5776 
 282   0.0000       3.901029       106.1524 
 283   0.0000       3.913185       106.4832 
 284   0.0000       3.945325       107.3577 
 285   0.0000       3.965771       107.9141 
 286   0.0000       3.972818       108.1059 
 287   0.0000       3.976213       108.1983 
 288   0.0000       4.010508       109.1315 
 289   0.0000       4.030740       109.6820 
 290   0.0000       4.047536       110.1391 
 291   0.0000       4.051576       110.2490 
 292   0.0000       4.065575       110.6299 
 293   0.0000       4.082316       111.0855 
 294   0.0000       4.141057       112.6839 
 295   0.0000       4.232330       115.1676 
 296   0.0000       4.248185       115.5990 
 297   0.0000       4.302528       117.0778 
 298   0.0000       4.334195       117.9394 
 299   0.0000       4.373679       119.0139 
 300   0.0000       4.378415       119.1427 
 301   0.0000       4.414804       120.1329 
 302   0.0000       4.447264       121.0162 
 303   0.0000       4.459118       121.3388 
 304   0.0000       4.523440       123.0891 
 305   0.0000       4.532589       123.3380 
 306   0.0000       4.558731       124.0494 
 307   0.0000       4.575579       124.5078 
 308   0.0000       4.622580       125.7868 
 309   0.0000       4.633555       126.0855 
 310   0.0000       4.681199       127.3819 
 311   0.0000       4.724313       128.5551 
 312   0.0000       4.745899       129.1425 
 313   0.0000       4.871070       132.5486 
 314   0.0000       4.899781       133.3298 
 315   0.0000       4.918391       133.8362 
 316   0.0000       4.966431       135.1435 
 317   0.0000       4.979849       135.5086 
 318   0.0000       5.001780       136.1054 
 319   0.0000       5.007171       136.2521 
 320   0.0000       5.031051       136.9019 
 321   0.0000       5.104655       138.9047 
 322   0.0000       5.106570       138.9568 
 323   0.0000       5.179002       140.9278 
 324   0.0000       5.204508       141.6219 
 325   0.0000       5.241490       142.6282 
 326   0.0000       5.307742       144.4310 
 327   0.0000       5.349921       145.5788 
 328   0.0000       5.416755       147.3974 
 329   0.0000       5.461542       148.6161 
 330   0.0000       5.617885       152.8704 
 331   0.0000       5.635991       153.3631 
 332   0.0000       5.812482       158.1657 
 333   0.0000       6.092040       165.7728 
 334   0.0000       6.165445       167.7703 
 335   0.0000       6.206935       168.8993 
 336   0.0000       6.217331       169.1822 
 337   0.0000       6.229415       169.5110 
 338   0.0000       6.317261       171.9014 
 339   0.0000       6.530324       177.6992 
 340   0.0000       6.717885       182.8029 
 341   0.0000       6.739209       183.3832 
 342   0.0000       6.780569       184.5087 
 343   0.0000       6.938727       188.8124 
 344   0.0000       7.123721       193.8463 
 345   0.0000       7.173029       195.1880 
 346   0.0000       7.238868       196.9796 
 347   0.0000       7.258618       197.5170 
 348   0.0000      21.941432       597.0567 
 349   0.0000      22.256895       605.6409 
 350   0.0000      22.434980       610.4868 
 351   0.0000      22.538729       613.3100 
 352   0.0000      22.543317       613.4348 
 353   0.0000      22.638864       616.0348 
 354   0.0000      23.028512       626.6377 
 355   0.0000      32.370073       880.8345 
 356   0.0000      43.818998      1192.3755 
 357   0.0000      43.826008      1192.5663 

                    ********************************
                    * MULLIKEN POPULATION ANALYSIS *
                    ********************************

-----------------------
MULLIKEN ATOMIC CHARGES
-----------------------
   0 C :    0.168171
   1 C :   -0.102387
   2 C :   -0.141363
   3 C :    0.186604
   4 C :   -0.139255
   5 C :   -0.105990
   6 C :   -0.344426
   7 H :    0.156307
   8 H :    0.161313
   9 H :    0.181843
  10 H :    0.169843
  11 H :    0.186137
  12 H :    0.188579
  13 H :    0.169305
  14 N :    0.412759
  15 O :   -0.230864
  16 O :   -0.225139
  17 H :    0.308563
Sum of atomic charges:    1.0000000

--------------------------------
MULLIKEN REDUCED ORBITAL CHARGES
--------------------------------
  0 C s       :     3.202366  s :     3.202366
      pz      :     0.831029  p :     2.487557
      px      :     0.826725
      py      :     0.829803
      dz2     :     0.024679  d :     0.132183
      dxz     :     0.028770
      dyz     :     0.028493
      dx2y2   :     0.024726
      dxy     :     0.025515
      f0      :     0.001285  f :     0.009723
      f+1     :     0.001747
      f-1     :     0.001526
      f+2     :     0.001361
      f-2     :     0.001567
      f+3     :     0.001031
      f-3     :     0.001207
  1 C s       :     3.220547  s :     3.220547
      pz      :     0.924478  p :     2.800679
      px      :     0.917941
      py      :     0.958260
      dz2     :     0.017703  d :     0.074009
      dxz     :     0.017754
      dyz     :     0.015790
      dx2y2   :     0.011030
      dxy     :     0.011732
      f0      :     0.001381  f :     0.007153
      f+1     :     0.001282
      f-1     :     0.000743
      f+2     :     0.001012
      f-2     :     0.001454
      f+3     :     0.000814
      f-3     :     0.000468
  2 C s       :     3.254570  s :     3.254570
      pz      :     0.941575  p :     2.796202
      px      :     0.954893
      py      :     0.899735
      dz2     :     0.018832  d :     0.083183
      dxz     :     0.019976
      dyz     :     0.018276
      dx2y2   :     0.015138
      dxy     :     0.010961
      f0      :     0.001386  f :     0.007407
      f+1     :     0.000894
      f-1     :     0.000983
      f+2     :     0.000995
      f-2     :     0.001511
      f+3     :     0.000531
      f-3     :     0.001107
  3 C s       :     3.109060  s :     3.109060
      pz      :     0.787366  p :     2.565707
      px      :     0.891840
      py      :     0.886501
      dz2     :     0.029801  d :     0.126682
      dxz     :     0.022152
      dyz     :     0.025299
      dx2y2   :     0.028445
      dxy     :     0.020984
      f0      :     0.001503  f :     0.011947
      f+1     :     0.002111
      f-1     :     0.002360
      f+2     :     0.001581
      f-2     :     0.001829
      f+3     :     0.001139
      f-3     :     0.001423
  4 C s       :     3.255365  s :     3.255365
      pz      :     0.920467  p :     2.792894
      px      :     0.910798
      py      :     0.961629
      dz2     :     0.019162  d :     0.083590
      dxz     :     0.019592
      dyz     :     0.019991
      dx2y2   :     0.013185
      dxy     :     0.011660
      f0      :     0.001372  f :     0.007406
      f+1     :     0.001309
      f-1     :     0.000706
      f+2     :     0.001103
      f-2     :     0.001484
      f+3     :     0.000959
      f-3     :     0.000473
  5 C s       :     3.215505  s :     3.215505
      pz      :     0.949647  p :     2.808214
      px      :     0.957455
      py      :     0.901113
      dz2     :     0.017228  d :     0.075091
      dxz     :     0.017642
      dyz     :     0.016224
      dx2y2   :     0.012961
      dxy     :     0.011037
      f0      :     0.001368  f :     0.007179
      f+1     :     0.000889
      f-1     :     0.000998
      f+2     :     0.000962
      f-2     :     0.001471
      f+3     :     0.000505
      f-3     :     0.000986
  6 C s       :     3.337584  s :     3.337584
      pz      :     0.877388  p :     2.962482
      px      :     1.049162
      py      :     1.035932
      dz2     :     0.010474  d :     0.040821
      dxz     :     0.011893
      dyz     :     0.009512
      dx2y2   :     0.002738
      dxy     :     0.006204
      f0      :     0.000655  f :     0.003538
      f+1     :     0.000336
      f-1     :     0.000586
      f+2     :     0.000455
      f-2     :     0.001099
      f+3     :     0.000272
      f-3     :     0.000136
  7 H s       :     0.821577  s :     0.821577
      pz      :     0.008072  p :     0.022116
      px      :     0.006702
      py      :     0.007341
  8 H s       :     0.816686  s :     0.816686
      pz      :     0.006728  p :     0.022001
      px      :     0.009527
      py      :     0.005746
  9 H s       :     0.795881  s :     0.795881
      pz      :     0.004282  p :     0.022276
      px      :     0.007859
      py      :     0.010135
 10 H s       :     0.807419  s :     0.807419
      pz      :     0.004930  p :     0.022738
      px      :     0.006837
      py      :     0.010971
 11 H s       :     0.790990  s :     0.790990
      pz      :     0.007482  p :     0.022873
      px      :     0.010157
      py      :     0.005235
 12 H s       :     0.788551  s :     0.788551
      pz      :     0.005065  p :     0.022870
      px      :     0.006394
      py      :     0.011411
 13 H s       :     0.807926  s :     0.807926
      pz      :     0.006868  p :     0.022769
      px      :     0.010401
      py      :     0.005500
 14 N s       :     3.261670  s :     3.261670
      pz      :     1.032481  p :     3.055381
      px      :     1.129083
      py      :     0.893816
      dz2     :     0.057177  d :     0.256562
      dxz     :     0.021653
      dyz     :     0.082500
      dx2y2   :     0.032809
      dxy     :     0.062422
      f0      :     0.002580  f :     0.013628
      f+1     :     0.001141
      f-1     :     0.002149
      f+2     :     0.002823
      f-2     :     0.001356
      f+3     :     0.002149
      f-3     :     0.001430
 15 O s       :     3.904824  s :     3.904824
      pz      :     1.731741  p :     4.279521
      px      :     1.436014
      py      :     1.111766
      dz2     :     0.005635  d :     0.043252
      dxz     :     0.000322
      dyz     :     0.009417
      dx2y2   :     0.015136
      dxy     :     0.012743
      f0      :     0.000317  f :     0.003266
      f+1     :     0.000079
      f-1     :     0.000662
      f+2     :     0.000462
      f-2     :     0.000018
      f+3     :     0.000867
      f-3     :     0.000860
 16 O s       :     3.906976  s :     3.906976
      pz      :     1.391105  p :     4.271335
      px      :     1.374449
      py      :     1.505781
      dz2     :     0.009806  d :     0.043545
      dxz     :     0.008588
      dyz     :     0.014474
      dx2y2   :     0.004928
      dxy     :     0.005749
      f0      :     0.000423  f :     0.003283
      f+1     :     0.000233
      f-1     :     0.000977
      f+2     :     0.000630
      f-2     :     0.000696
      f+3     :     0.000162
      f-3     :     0.000163
 17 H s       :     0.691436  s :     0.691436
      pz      :     0.000000  p :     0.000001
      px      :     0.000000
      py      :     0.000000


                     *******************************
                     * LOEWDIN POPULATION ANALYSIS *
                     *******************************

----------------------
LOEWDIN ATOMIC CHARGES
----------------------
   0 C :   -0.064306
   1 C :   -0.042839
   2 C :   -0.052039
   3 C :   -0.079709
   4 C :   -0.048225
   5 C :   -0.046003
   6 C :   -0.210034
   7 H :    0.145427
   8 H :    0.150433
   9 H :    0.169541
  10 H :    0.167078
  11 H :    0.171395
  12 H :    0.172128
  13 H :    0.166891
  14 N :   -0.030641
  15 O :    0.058360
  16 O :    0.063978
  17 H :    0.308563

-------------------------------
LOEWDIN REDUCED ORBITAL CHARGES
-------------------------------
  0 C s       :     2.729851  s :     2.729851
      pz      :     0.948764  p :     2.755362
      px      :     0.896567
      py      :     0.910031
      dz2     :     0.119094  d :     0.522788
      dxz     :     0.106224
[...]
     11      -0.003773   0.031787  -0.077477  -0.019887   0.106263  -0.000271
     12      -0.015189  -0.006501   0.102350   0.041072  -0.170829   0.000263
     13      -0.062912   0.071654  -0.004561  -0.102101  -0.077300  -0.000167
     14      -0.061218   0.043396   0.100359  -0.022443  -0.226295   0.000051
     15       0.027087  -0.038928  -0.040613  -0.005122   0.091113  -0.000127
     16       0.071323  -0.082227   0.080554   0.111455   0.182161   0.000262
     17       0.076080  -0.098735   0.016033   0.074268   0.219774   0.000470
     18       0.046230   0.020598   0.025938   0.001608   0.016967  -0.020786
     19       0.004315   0.018624   0.018743   0.002015   0.011550  -0.056588
     20       0.073566   0.045199   0.047172   0.004928   0.028646  -0.007942
     21       0.041251  -0.053708   0.003442  -0.011944   0.022557   0.166780
     22      -0.385957  -0.420737  -0.165479  -0.051273  -0.014196  -0.147443
     23      -0.422286  -0.395988  -0.152693  -0.041625  -0.013978   0.114646
     24      -0.208053  -0.111401  -0.029154   0.011908  -0.017460  -0.286681
     25       0.351077   0.336679   0.207597   0.051766   0.040545   0.093798
     26      -0.333743  -0.222138  -0.092247  -0.003776  -0.022971   0.271902
     27      -0.299812  -0.301541  -0.145312  -0.030187  -0.022686   0.374390
     28       0.166193   0.183918   0.110674   0.026088   0.018133   0.736804
     29       0.017553   0.036547   0.065353   0.022791   0.007475  -0.292571
     30       0.252200  -0.071733  -0.341005   0.203475  -0.327469   0.000507
     31      -0.016073   0.068490  -0.031149   0.022653   0.088584  -0.004646
     32       0.244215  -0.020045  -0.361051   0.197369  -0.265166  -0.002114
     33       0.071663  -0.033278  -0.053334   0.108573  -0.080148  -0.001278
     34      -0.062183   0.263973  -0.286795   0.014962   0.308017   0.000273
     35       0.044402   0.146124  -0.255795   0.117080   0.130677  -0.000852
     36       0.117750  -0.035327  -0.337105  -0.008093   0.265288   0.000462
     37      -0.076745   0.086013  -0.010128  -0.122299  -0.089656  -0.000669
     38       0.081202   0.019298  -0.351153  -0.095441   0.214263  -0.000823
     39       0.018192  -0.020757  -0.070767  -0.015469   0.069702  -0.002605
     40      -0.177716   0.358755  -0.257021  -0.229158  -0.341854   0.000949
     41      -0.109177   0.242463  -0.254114  -0.199421  -0.171414  -0.001595
     42       0.005033  -0.003815  -0.005299   0.107680  -0.003950   0.000194
     43       0.056163  -0.027752  -0.007395  -0.592088  -0.005501   0.000221
     44      -0.034631   0.027571  -0.000560   0.313848  -0.002035   0.000393
     45      -0.008551   0.004100   0.003661   0.029525   0.002373  -0.000079
     46      -0.041786   0.018580   0.017934   0.316453  -0.003934  -0.000009
     47       0.000570  -0.001401   0.000085  -0.022697   0.004239  -0.000116
     48       0.010067  -0.008107   0.003251  -0.099231  -0.001123  -0.000024
     49      -0.018523   0.014192  -0.004055   0.180979   0.008527  -0.000105
     50       0.031931  -0.026691   0.007264  -0.252039  -0.005128  -0.000086
     51      -0.000053  -0.000038   0.000064   0.000315   0.000198  -0.000015
     52       0.000015  -0.000087   0.000060  -0.000628   0.000259  -0.000017
     53      -0.000142  -0.000008   0.000075   0.000913   0.000287  -0.000020
                 48         49         50         51         52         53    
      0       0.000996  -0.000105  -0.001737  -0.000500  -0.000372   0.000846
      1       0.000643  -0.001343   0.000821   0.002023   0.001087   0.000048
      2      -0.000640  -0.000979  -0.001225   0.000919   0.000538   0.000799
      3      -0.000237  -0.000417   0.028226  -0.001011  -0.000098  -0.004380
      4       0.000061   0.000378  -0.075827   0.001773  -0.001573   0.018639
      5       0.000527   0.000065  -0.025782   0.000266  -0.001219   0.008751
      6      -0.000113  -0.000042  -0.013252   0.002207   0.012779  -0.065023
      7       0.000076   0.000081   0.009387  -0.001350  -0.006334   0.033687
      8       0.000051   0.000008  -0.006916   0.001337   0.008505  -0.042507
      9       0.000015   0.000049  -0.000067  -0.000021  -0.002423   0.000542
     10      -0.000093  -0.000176   0.000179   0.000003   0.001799  -0.002409
     11      -0.000085  -0.000057   0.000050  -0.000020  -0.001255  -0.001088
     12       0.000014   0.000084   0.000466  -0.009114   0.025759   0.005128
     13       0.000022  -0.000068  -0.001302   0.020230  -0.074931  -0.014271
     14       0.000170   0.000004  -0.000409   0.004937  -0.026511  -0.004779
     15       0.000567  -0.002297   0.001981   0.064510   0.019110   0.005660
     16       0.000331   0.001246  -0.000705  -0.035085  -0.007503  -0.002739
     17      -0.000374  -0.001631   0.001508   0.039893   0.014043   0.003807
     18       0.054406   0.062522   0.000635   0.001889   0.000432   0.000022
     19       0.014846  -0.057815  -0.000669  -0.001689  -0.000345  -0.000101
     20      -0.063419   0.028994  -0.000020   0.001077   0.000074   0.000012
     21       0.115037  -0.667411  -0.003307  -0.022535  -0.003854  -0.001184
     22      -0.074759   0.532769   0.003766   0.016174   0.002641   0.000326
     23       0.053262  -0.436603  -0.001276  -0.015787  -0.002790  -0.000998
     24      -0.609628  -0.148923  -0.003712  -0.003100  -0.001485  -0.000316
     25       0.265387   0.051488   0.002105   0.000748   0.000351  -0.000036
     26       0.585368   0.154507   0.005728   0.001916   0.000765  -0.000336
     27      -0.168456   0.079047   0.002554   0.001219   0.000120  -0.000317
     28      -0.377215   0.116675   0.003048   0.002174   0.000258   0.000190
     29       0.125340  -0.048279  -0.000286  -0.001607  -0.000270  -0.000522
     30       0.001708   0.001464  -0.326276   0.006944  -0.005691   0.070533
     31      -0.002854  -0.005551   0.866998  -0.017736   0.016464  -0.194303
     32      -0.002503  -0.002596   0.291538  -0.005862   0.005904  -0.066649
     33      -0.000517  -0.000655   0.167564  -0.025312  -0.146409   0.730295
     34       0.000131   0.000433  -0.091819   0.013590   0.077860  -0.388858
     35      -0.000435  -0.000380   0.106838  -0.016331  -0.094621   0.472907
     36      -0.000173  -0.000982  -0.004916   0.089693  -0.298508  -0.055298
     37      -0.001476   0.002933   0.014114  -0.247650   0.845296   0.157136
     38      -0.000021   0.001140   0.004823  -0.081950   0.287686   0.053345
     39      -0.001363   0.024856  -0.025146  -0.737953  -0.202249  -0.060278
     40       0.000971  -0.011726   0.013536   0.399613   0.107861   0.032399
     41      -0.001232   0.017070  -0.015738  -0.457807  -0.127873  -0.037904
     42       0.000067   0.000040  -0.000097  -0.000052   0.000293  -0.000335
     43       0.000031   0.000031   0.000087   0.000185  -0.000782   0.000386
     44       0.000068   0.000121  -0.000070   0.000019   0.000145  -0.000321
     45      -0.000029  -0.000023   0.000027   0.000061  -0.000206   0.000055
     46       0.000006   0.000019   0.000001  -0.000084   0.000273   0.000104
     47      -0.000020  -0.000038   0.000001   0.000050  -0.000181   0.000030
     48      -0.000010  -0.000004   0.000031   0.000011  -0.000019   0.000126
     49       0.000000  -0.000016  -0.000084  -0.000012   0.000126  -0.000338
     50      -0.000034  -0.000034   0.000005  -0.000028   0.000091   0.000078
     51      -0.000003  -0.000006   0.000001  -0.000001  -0.000009   0.000001
     52      -0.000004  -0.000007   0.000002  -0.000003   0.000007  -0.000004
     53      -0.000003  -0.000008   0.000002  -0.000001  -0.000002   0.000000


-----------
IR SPECTRUM
-----------

 Mode   freq       eps      Int      T**2         TX        TY        TZ
       cm**-1   L/(mol*cm) km/mol    a.u.
----------------------------------------------------------------------------
  8:      3.86   0.000000    0.00  0.000000  ( 0.000000  0.000000  0.000000)
  9:     14.06   0.021399  108.14  0.475055  ( 0.290428  0.343808  0.522018)
 10:     67.85   0.000140    0.71  0.000644  ( 0.015748  0.017708  0.009098)
 11:     91.82   0.000183    0.92  0.000621  (-0.017398 -0.009690  0.014971)
 12:    194.39   0.000436    2.20  0.000700  (-0.014578  0.021341 -0.005669)
 13:    235.30   0.000563    2.84  0.000746  (-0.025466  0.003238  0.009329)
 14:    344.67   0.001027    5.19  0.000930  ( 0.013080  0.020597  0.018285)
 15:    350.88   0.000242    1.22  0.000215  (-0.007719  0.008657  0.008984)
 16:    386.19   0.000119    0.60  0.000096  (-0.006074 -0.006394 -0.004325)
 17:    419.40   0.000735    3.71  0.000547  ( 0.006158  0.020861 -0.008587)
 18:    538.59   0.002296   11.60  0.001330  ( 0.026706  0.015516 -0.019395)
 19:    588.53   0.000065    0.33  0.000035  (-0.002982  0.004485 -0.002370)
 20:    614.18   0.005245   26.50  0.002665  (-0.024144 -0.028429 -0.035688)
 21:    689.47   0.000355    1.79  0.000161  ( 0.011589  0.004762 -0.001917)
 22:    752.46   0.004451   22.50  0.001846  (-0.029508 -0.010729  0.029331)
 23:    785.15   0.000874    4.42  0.000347  ( 0.010152  0.008546  0.013089)
 24:    819.97   0.000825    4.17  0.000314  (-0.009716 -0.009644 -0.011247)
 25:    839.12   0.022389  113.14  0.008326  (-0.044568 -0.049203 -0.062602)
 26:    858.67   0.005002   25.28  0.001818  ( 0.021472  0.017758 -0.032274)
 27:    990.82   0.023846  120.51  0.007511  ( 0.044084  0.050098  0.055293)
 28:    996.99   0.001634    8.26  0.000512  (-0.006371  0.001748  0.021631)
 29:   1001.28   0.002233   11.28  0.000696  (-0.008153 -0.012754 -0.021606)
 30:   1019.07   0.000209    1.05  0.000064  (-0.005048 -0.005912 -0.001850)
 31:   1026.51   0.003433   17.35  0.001044  ( 0.023300  0.022330  0.001510)
 32:   1139.28   0.018157   91.76  0.004973  (-0.035203 -0.040765 -0.045524)
 33:   1156.28   0.003313   16.74  0.000894  (-0.001078 -0.027271 -0.012215)
 34:   1215.53   0.042863  216.61  0.011004  (-0.050749 -0.056038 -0.072722)
 35:   1250.88   0.046469  234.83  0.011593  ( 0.049593  0.060496  0.073983)
 36:   1305.11   0.006982   35.28  0.001669  ( 0.022562  0.011519  0.032058)
 37:   1356.32   0.030746  155.38  0.007074  (-0.015941 -0.065656 -0.050092)
 38:   1383.02   0.015192   76.77  0.003428  ( 0.033095  0.028512  0.038983)
 39:   1388.90   0.002663   13.46  0.000598  ( 0.011232  0.008671  0.019924)
 40:   1426.96   0.007632   38.57  0.001669  ( 0.009679 -0.038758  0.008553)
 41:   1441.99   0.002341   11.83  0.000507  ( 0.020434 -0.003763 -0.008654)
 42:   1473.43   0.008164   41.26  0.001729  ( 0.018291  0.036263  0.008918)
 43:   1488.72   0.019488   98.48  0.004085  ( 0.011194  0.043899  0.045084)
 44:   1500.71   0.022098  111.68  0.004595  (-0.033802 -0.028284 -0.051504)
 45:   1541.64   0.031726  160.33  0.006422  ( 0.004167 -0.067910  0.042345)
 46:   1647.20   0.197841  999.81  0.037481  (-0.093581 -0.105695 -0.132485)
 47:   2996.03   0.066009  333.58  0.006875  ( 0.038967  0.045921  0.056993)
 48:   3038.26   0.002321   11.73  0.000238  ( 0.005144  0.007336  0.012574)
 49:   3143.65   0.011294   57.07  0.001121  ( 0.018070  0.014248  0.024323)
 50:   3197.91   0.000278    1.41  0.000027  (-0.003169 -0.002587 -0.003230)
 51:   3203.19   0.000531    2.68  0.000052  ( 0.003374  0.003919  0.004997)
 52:   3223.81   0.001935    9.78  0.000187  (-0.006060  0.012217  0.001130)
 53:   3223.99   0.001215    6.14  0.000118  ( 0.007869 -0.004175  0.006181)

* The epsilon (eps) is given for a Dirac delta lineshape.
** The dipole moment derivative (T) already includes vibrational overlap.

The first frequency considered to be a vibration is 8
The total number of vibrations considered is 46


--------------------------
THERMOCHEMISTRY AT 298.15K
--------------------------

Temperature         ... 298.15 K
Pressure            ... 1.00 atm
Total Mass          ... 138.15 AMU

Throughout the following assumptions are being made:
  (1) The electronic state is orbitally nondegenerate
  (2) There are no thermally accessible electronically excited states
  (3) Hindered rotations indicated by low frequency modes are not
      treated as such but are treated as vibrations and this may
      cause some error
  (4) All equations used are the standard statistical mechanics
      equations for an ideal gas
  (5) All vibrations are strictly harmonic

freq.       3.86  E(vib)   ...       0.59 
freq.      14.06  E(vib)   ...       0.57 
freq.      67.85  E(vib)   ...       0.50 
freq.      91.82  E(vib)   ...       0.47 
freq.     194.39  E(vib)   ...       0.36 
freq.     235.30  E(vib)   ...       0.32 
freq.     344.67  E(vib)   ...       0.23 
freq.     350.88  E(vib)   ...       0.23 
freq.     386.19  E(vib)   ...       0.20 
freq.     419.40  E(vib)   ...       0.18 
freq.     538.59  E(vib)   ...       0.12 
freq.     588.53  E(vib)   ...       0.10 
freq.     614.18  E(vib)   ...       0.10 
freq.     689.47  E(vib)   ...       0.07 
freq.     752.46  E(vib)   ...       0.06 
freq.     785.15  E(vib)   ...       0.05 
freq.     819.97  E(vib)   ...       0.05 
freq.     839.12  E(vib)   ...       0.04 
freq.     858.67  E(vib)   ...       0.04 
freq.     990.82  E(vib)   ...       0.02 
freq.     996.99  E(vib)   ...       0.02 
freq.    1001.28  E(vib)   ...       0.02 
freq.    1019.07  E(vib)   ...       0.02 
freq.    1026.51  E(vib)   ...       0.02 
freq.    1139.28  E(vib)   ...       0.01 
freq.    1156.28  E(vib)   ...       0.01 
freq.    1215.53  E(vib)   ...       0.01 
freq.    1250.88  E(vib)   ...       0.01 
freq.    1305.11  E(vib)   ...       0.01 
freq.    1356.32  E(vib)   ...       0.01 
freq.    1383.02  E(vib)   ...       0.01 
freq.    1388.90  E(vib)   ...       0.00 
freq.    1426.96  E(vib)   ...       0.00 
freq.    1441.99  E(vib)   ...       0.00 
freq.    1473.43  E(vib)   ...       0.00 
freq.    1488.72  E(vib)   ...       0.00 
freq.    1500.71  E(vib)   ...       0.00 
freq.    1541.64  E(vib)   ...       0.00 
freq.    1647.20  E(vib)   ...       0.00 
freq.    2996.03  E(vib)   ...       0.00 
freq.    3038.26  E(vib)   ...       0.00 
freq.    3143.65  E(vib)   ...       0.00 
freq.    3197.91  E(vib)   ...       0.00 
freq.    3203.19  E(vib)   ...       0.00 
freq.    3223.81  E(vib)   ...       0.00 
freq.    3223.99  E(vib)   ...       0.00 

------------
INNER ENERGY
------------

The inner energy is: U= E(el) + E(ZPE) + E(vib) + E(rot) + E(trans)
    E(el)   - is the total energy from the electronic structure calculation
              = E(kin-el) + E(nuc-el) + E(el-el) + E(nuc-nuc)
    E(ZPE)  - the the zero temperature vibrational energy from the frequency calculation
    E(vib)  - the the finite temperature correction to E(ZPE) due to population
              of excited vibrational states
    E(rot)  - is the rotational thermal energy
    E(trans)- is the translational thermal energy

Summary of contributions to the inner energy U:
Electronic energy                ...   -476.40281848 Eh
Zero point energy                ...      0.12842491 Eh      80.59 kcal/mol
Thermal vibrational correction   ...      0.00714898 Eh       4.49 kcal/mol
Thermal rotational correction    ...      0.00141627 Eh       0.89 kcal/mol
Thermal translational correction ...      0.00141627 Eh       0.89 kcal/mol
-----------------------------------------------------------------------
Total thermal energy                   -476.26441205 Eh


Summary of corrections to the electronic energy:
(perhaps to be used in another calculation)
Total thermal correction                  0.00998152 Eh       6.26 kcal/mol
Non-thermal (ZPE) correction              0.12842491 Eh      80.59 kcal/mol
-----------------------------------------------------------------------
Total correction                          0.13840644 Eh      86.85 kcal/mol


--------
ENTHALPY
--------

The enthalpy is H = U + kB*T
                kB is Boltzmann's constant
Total free energy                 ...   -476.26441205 Eh 
Thermal Enthalpy correction       ...      0.00094421 Eh       0.59 kcal/mol
-----------------------------------------------------------------------
Total Enthalpy                    ...   -476.26346784 Eh


Note: Only C1 symmetry has been detected, increase convergence thresholds 
      if your molecule has a higher symmetry. Symmetry factor of 1.0 is   
      used for the rotational entropy correction. 
 

Note: Rotational entropy computed according to Herzberg 
Infrared and Raman Spectra, Chapter V,1, Van Nostrand Reinhold, 1945 
Point Group:  C1, Symmetry Number:   1  
Rotational constants in cm-1:     0.124622     0.021900     0.019344 

Vibrational entropy computed according to the QRRHO of S. Grimme
Chem.Eur.J. 2012 18 9955


-------
ENTROPY
-------

The entropy contributions are T*S = T*(S(el)+S(vib)+S(rot)+S(trans))
     S(el)   - electronic entropy
     S(vib)  - vibrational entropy
     S(rot)  - rotational entropy
     S(trans)- translational entropy
The entropies will be listed as multiplied by the temperature to get
units of energy

Electronic entropy                ...      0.00000000 Eh      0.00 kcal/mol
Vibrational entropy               ...      0.01397868 Eh      8.77 kcal/mol
Rotational entropy                ...      0.01416047 Eh      8.89 kcal/mol
Translational entropy             ...      0.01932890 Eh     12.13 kcal/mol
-----------------------------------------------------------------------
Final entropy term                ...      0.04746805 Eh     29.79 kcal/mol

In case the symmetry of your molecule has not been determined correctly
or in case you have a reason to use a different symmetry number we print 
out the resulting rotational entropy values for sn=1,12 :
 --------------------------------------------------------
|  sn= 1 | S(rot)=       0.01416047 Eh      8.89 kcal/mol|
|  sn= 2 | S(rot)=       0.01350602 Eh      8.48 kcal/mol|
|  sn= 3 | S(rot)=       0.01312318 Eh      8.23 kcal/mol|
|  sn= 4 | S(rot)=       0.01285156 Eh      8.06 kcal/mol|
|  sn= 5 | S(rot)=       0.01264087 Eh      7.93 kcal/mol|
|  sn= 6 | S(rot)=       0.01246873 Eh      7.82 kcal/mol|
|  sn= 7 | S(rot)=       0.01232318 Eh      7.73 kcal/mol|
|  sn= 8 | S(rot)=       0.01219710 Eh      7.65 kcal/mol|
|  sn= 9 | S(rot)=       0.01208589 Eh      7.58 kcal/mol|
|  sn=10 | S(rot)=       0.01198641 Eh      7.52 kcal/mol|
|  sn=11 | S(rot)=       0.01189642 Eh      7.47 kcal/mol|
|  sn=12 | S(rot)=       0.01181427 Eh      7.41 kcal/mol|
 --------------------------------------------------------


-------------------
GIBBS FREE ENERGY
-------------------

The Gibbs free energy is G = H - T*S

Total enthalpy                    ...   -476.26346784 Eh 
Total entropy correction          ...     -0.04746805 Eh    -29.79 kcal/mol
-----------------------------------------------------------------------
Final Gibbs free energy         ...   -476.31093589 Eh

For completeness - the Gibbs free energy minus the electronic energy
G-E(el)                           ...      0.09188260 Eh     57.66 kcal/mol


Timings for individual modules:

Sum of individual times         ...    86302.474 sec (=1438.375 min)
GTO integral calculation        ...      107.534 sec (=   1.792 min)   0.1 %
SCF iterations                  ...    68625.612 sec (=1143.760 min)  79.5 %
SCF Gradient evaluation         ...     9330.554 sec (= 155.509 min)  10.8 %
Geometry relaxation             ...       14.936 sec (=   0.249 min)   0.0 %
Analytical frequency calculation...     8223.838 sec (= 137.064 min)   9.5 %
                             ****ORCA TERMINATED NORMALLY****
TOTAL RUN TIME: 0 days 23 hours 59 minutes 7 seconds 786 msec
