
                                 *****************
                                 * O   R   C   A *
                                 *****************

                                            #,                                       
                                            ###                                      
                                            ####                                     
                                            #####                                    
                                            ######                                   
                                           ########,                                 
                                     ,,################,,,,,                         
                               ,,#################################,,                 
                          ,,##########################################,,             
                       ,#########################################, ''#####,          
                    ,#############################################,,   '####,        
                  ,##################################################,,,,####,       
                ,###########''''           ''''###############################       
              ,#####''   ,,,,##########,,,,          '''####'''          '####       
            ,##' ,,,,###########################,,,                        '##       
           ' ,,###''''                  '''############,,,                           
         ,,##''                                '''############,,,,        ,,,,,,###''
      ,#''                                            '''#######################'''  
     '                                                          ''''####''''         
             ,#######,   #######,   ,#######,      ##                                
            ,#'     '#,  ##    ##  ,#'     '#,    #''#        ######   ,####,        
            ##       ##  ##   ,#'  ##            #'  '#       #        #'  '#        
            ##       ##  #######   ##           ,######,      #####,   #    #        
            '#,     ,#'  ##    ##  '#,     ,#' ,#      #,         ##   #,  ,#        
             '#######'   ##     ##  '#######'  #'      '#     #####' # '####'        



                  #######################################################
                  #                        -***-                        #
                  #          Department of theory and spectroscopy      #
                  #    Directorship and core code : Frank Neese         #
                  #        Max Planck Institute fuer Kohlenforschung    #
                  #                Kaiser Wilhelm Platz 1               #
                  #                 D-45470 Muelheim/Ruhr               #
                  #                      Germany                        #
                  #                                                     #
                  #                  All rights reserved                #
                  #                        -***-                        #
                  #######################################################



                         Program Version 5.0.4 -  RELEASE  -

 With contributions from (in alphabetic order):
   Daniel Aravena         : Magnetic Suceptibility
   Michael Atanasov       : Ab Initio Ligand Field Theory (pilot matlab implementation)
   Alexander A. Auer      : GIAO ZORA, VPT2 properties, NMR spectrum
   Ute Becker             : Parallelization
   Giovanni Bistoni       : ED, misc. LED, open-shell LED, HFLD
   Martin Brehm           : Molecular dynamics
   Dmytro Bykov           : SCF Hessian
   Vijay G. Chilkuri      : MRCI spin determinant printing, contributions to CSF-ICE
   Dipayan Datta          : RHF DLPNO-CCSD density
   Achintya Kumar Dutta   : EOM-CC, STEOM-CC
   Dmitry Ganyushin       : Spin-Orbit,Spin-Spin,Magnetic field MRCI
   Miquel Garcia          : C-PCM and meta-GGA Hessian, CC/C-PCM, Gaussian charge scheme
   Yang Guo               : DLPNO-NEVPT2, F12-NEVPT2, CIM, IAO-localization
   Andreas Hansen         : Spin unrestricted coupled pair/coupled cluster methods
   Benjamin Helmich-Paris : MC-RPA, TRAH-SCF, COSX integrals
   Lee Huntington         : MR-EOM, pCC
   Robert Izsak           : Overlap fitted RIJCOSX, COSX-SCS-MP3, EOM
   Marcus Kettner         : VPT2
   Christian Kollmar      : KDIIS, OOCD, Brueckner-CCSD(T), CCSD density, CASPT2, CASPT2-K
   Simone Kossmann        : Meta GGA functionals, TD-DFT gradient, OOMP2, MP2 Hessian
   Martin Krupicka        : Initial AUTO-CI
   Lucas Lang             : DCDCAS
   Marvin Lechner         : AUTO-CI (C++ implementation), FIC-MRCC
   Dagmar Lenk            : GEPOL surface, SMD
   Dimitrios Liakos       : Extrapolation schemes; Compound Job, initial MDCI parallelization
   Dimitrios Manganas     : Further ROCIS development; embedding schemes
   Dimitrios Pantazis     : SARC Basis sets
   Anastasios Papadopoulos: AUTO-CI, single reference methods and gradients
   Taras Petrenko         : DFT Hessian,TD-DFT gradient, ASA, ECA, R-Raman, ABS, FL, XAS/XES, NRVS
   Peter Pinski           : DLPNO-MP2, DLPNO-MP2 Gradient
   Christoph Reimann      : Effective Core Potentials
   Marius Retegan         : Local ZFS, SOC
   Christoph Riplinger    : Optimizer, TS searches, QM/MM, DLPNO-CCSD(T), (RO)-DLPNO pert. Triples
   Tobias Risthaus        : Range-separated hybrids, TD-DFT gradient, RPA, STAB
   Michael Roemelt        : Original ROCIS implementation
   Masaaki Saitow         : Open-shell DLPNO-CCSD energy and density
   Barbara Sandhoefer     : DKH picture change effects
   Avijit Sen             : IP-ROCIS
   Kantharuban Sivalingam : CASSCF convergence, NEVPT2, FIC-MRCI
   Bernardo de Souza      : ESD, SOC TD-DFT
   Georgi Stoychev        : AutoAux, RI-MP2 NMR, DLPNO-MP2 response
   Willem Van den Heuvel  : Paramagnetic NMR
   Boris Wezisla          : Elementary symmetry handling
   Frank Wennmohs         : Technical directorship


 We gratefully acknowledge several colleagues who have allowed us to
 interface, adapt or use parts of their codes:
   Stefan Grimme, W. Hujo, H. Kruse, P. Pracht,  : VdW corrections, initial TS optimization,
                  C. Bannwarth, S. Ehlert          DFT functionals, gCP, sTDA/sTD-DF
   Ed Valeev, F. Pavosevic, A. Kumar             : LibInt (2-el integral package), F12 methods
   Garnet Chan, S. Sharma, J. Yang, R. Olivares  : DMRG
   Ulf Ekstrom                                   : XCFun DFT Library
   Mihaly Kallay                                 : mrcc  (arbitrary order and MRCC methods)
   Jiri Pittner, Ondrej Demel                    : Mk-CCSD
   Frank Weinhold                                : gennbo (NPA and NBO analysis)
   Christopher J. Cramer and Donald G. Truhlar   : smd solvation model
   Lars Goerigk                                  : TD-DFT with DH, B97 family of functionals
   V. Asgeirsson, H. Jonsson                     : NEB implementation
   FAccTs GmbH                                   : IRC, NEB, NEB-TS, DLPNO-Multilevel, CI-OPT
                                                   MM, QMMM, 2- and 3-layer-ONIOM, Crystal-QMMM,
                                                   LR-CPCM, SF, NACMEs, symmetry and pop. for TD-DFT,
                                                   nearIR, NL-DFT gradient (VV10), updates on ESD,
                                                   ML-optimized integration grids
   S Lehtola, MJT Oliveira, MAL Marques          : LibXC Library
   Liviu Ungur et al                             : ANISO software


 Your calculation uses the libint2 library for the computation of 2-el integrals
 For citations please refer to: http://libint.valeyev.net

 Your ORCA version has been built with support for libXC version: 5.1.0
 For citations please refer to: https://tddft.org/programs/libxc/

 This ORCA versions uses:
   CBLAS   interface :  Fast vector & matrix operations
   LAPACKE interface :  Fast linear algebra routines
   Shared memory     :  Shared parallel matrices


================================================================================

----- Orbital basis set information -----
Your calculation utilizes the basis: cc-pVTZ 
       H, B-Ne : Obtained from the ccRepo (grant-hill.group.shef.ac.uk/ccrepo) Feb. 2017
                 T. H. Dunning, Jr., J. Chem. Phys. 90, 1007 (1989)
            He : Obtained from the ccRepo (grant-hill.group.shef.ac.uk/ccrepo) Feb. 2017
                 D. E. Woon, T. H. Dunning, Jr., J. Chem. Phys. 100, 2975 (1994)
  Li-Be, Na-Mg : Obtained from the ccRepo (grant-hill.group.shef.ac.uk/ccrepo) Feb. 2017
                 B. P. Prascher, D. E. Woon, K. A. Peterson, T. H. Dunning, Jr., A. K. Wilson, Theor. Chem. Acc. 128, 69 (2011)
         Al-Ar : Obtained from the ccRepo (grant-hill.group.shef.ac.uk/ccrepo) Feb. 2017
                 D. E. Woon, T. H. Dunning, Jr., J. Chem. Phys. 98, 1358 (1993)
            Ca : Obtained from the Peterson Research Group Website (tyr0.chem.wsu.edu/~kipeters) Feb. 2017
                 J. Koput, K. A. Peterson, J. Phys. Chem. 106, 9595 (2002)
         Sc-Zn : Obtained from the ccRepo (grant-hill.group.shef.ac.uk/ccrepo) Feb. 2017
                 N. B. Balabanov, K. A. Peterson, J. Chem. Phys. 123, 064107 (2005)
                 N. B. Balabanov, K. A. Peterson, J. Chem. Phys. 125, 074110 (2006)
         Ga-Kr : Obtained from the ccRepo (grant-hill.group.shef.ac.uk/ccrepo) Feb. 2017
                 A. K. Wilson, D. E. Woon, K. A. Peterson, T. H. Dunning, Jr., J. Chem. Phys. 110, 7667 (1999)
             Y : Obtained from the ccRepo (grant-hill.group.shef.ac.uk/ccrepo) Feb. 2017
                 K. A. Peterson, D. Figgen, M. Dolg, H. Stoll, J. Chem. Phys. 126, 124101 (2007)
        Ag, Au : Obtained from the Peterson Research Group Website (tyr0.chem.wsu.edu/~kipeters) Feb. 2017
                 K. A. Peterson, C. Puzzarini, Theor. Chem. Acc. 114, 283 (2005)

----- AuxJ basis set information -----
Your calculation utilizes the auxiliary basis: def2/J
   F. Weigend, Phys. Chem. Chem. Phys. 8, 1057 (2006).

================================================================================
                                        WARNINGS
                       Please study these warnings very carefully!
================================================================================


INFO   : the flag for use of the SHARK integral package has been found!

================================================================================
                                       INPUT FILE
================================================================================
NAME = BP86.inp
|  1> !BP86 cc-pVTZ
|  2> 
|  3> * xyz 0 1
|  4>   C   -1.05354596271083      1.42135243576665     -0.73549220185663
|  5>   C   -1.76717691585433      0.81968690597605      0.22444324622836
|  6>   C   -0.91604797271676     -0.21504620254596      0.92339098529051
|  7>   C   -3.18658916550982      1.06760146729181      0.62043996179919
|  8>   H   -3.65177058285626      1.84890976029203      0.00161745831760
|  9>   H   -3.25259686050292      1.37975261146372      1.67787971117939
| 10>   H   -3.79133874736600      0.14808169577577      0.52701048897989
| 11>   C   0.35705795446457      0.89749440001034     -0.79501799653405
| 12>   C   1.41588701773226      2.02006837281249     -0.63884945754235
| 13>   C   2.80881703463114      1.41251132710473     -0.63583732910559
| 14>   H   1.20967085252781      2.57392305919014      0.29049098629325
| 15>   H   1.34740263144453      2.70902449090648     -1.49554455642121
| 16>   C   3.37622781232091      1.19049215945855      0.75754145591531
| 17>   N   0.41123761481178     -0.07210345422347      0.31381604773552
| 18>   H   0.56307393880421      0.40954505459904     -1.76931562713006
| 19>   H   -1.34153580290440     -1.23063666814028      0.78694765203342
| 20>   H   -0.89469173408622     -0.03961126720342      2.01833030977159
| 21>   H   0.80199521648994     -0.96262165511348      0.02364954504097
| 22>   O   3.36130687691708      1.06897825383177     -1.65256833709520
| 23>   Cl  4.92950915132907      0.31373216343513      0.77168111918747
| 24>   H   2.62051255229742      0.61607693324621      1.31840686987001
| 25>   H   3.50773757250952      2.16097047317234      1.26235402519175
| 26>   H   -1.41589248177270      2.21265768289335     -1.39571435714913
| 27> *
| 28> 
| 29>                          ****END OF INPUT****
================================================================================

                       ****************************
                       * Single Point Calculation *
                       ****************************

---------------------------------
CARTESIAN COORDINATES (ANGSTROEM)
---------------------------------
  C     -1.053546    1.421352   -0.735492
  C     -1.767177    0.819687    0.224443
  C     -0.916048   -0.215046    0.923391
  C     -3.186589    1.067601    0.620440
  H     -3.651771    1.848910    0.001617
  H     -3.252597    1.379753    1.677880
  H     -3.791339    0.148082    0.527010
  C      0.357058    0.897494   -0.795018
  C      1.415887    2.020068   -0.638849
  C      2.808817    1.412511   -0.635837
  H      1.209671    2.573923    0.290491
  H      1.347403    2.709024   -1.495545
  C      3.376228    1.190492    0.757541
  N      0.411238   -0.072103    0.313816
  H      0.563074    0.409545   -1.769316
  H     -1.341536   -1.230637    0.786948
  H     -0.894692   -0.039611    2.018330
  H      0.801995   -0.962622    0.023650
  O      3.361307    1.068978   -1.652568
  Cl     4.929509    0.313732    0.771681
  H      2.620513    0.616077    1.318407
  H      3.507738    2.160970    1.262354
  H     -1.415892    2.212658   -1.395714

----------------------------
CARTESIAN COORDINATES (A.U.)
----------------------------
  NO LB      ZA    FRAG     MASS         X           Y           Z
   0 C     6.0000    0    12.011   -1.990913    2.685967   -1.389879
   1 C     6.0000    0    12.011   -3.339480    1.548984    0.424136
   2 C     6.0000    0    12.011   -1.731080   -0.406378    1.744956
   3 C     6.0000    0    12.011   -6.021781    2.017474    1.172462
   4 H     1.0000    0     1.008   -6.900846    3.493933    0.003057
   5 H     1.0000    0     1.008   -6.146517    2.607355    3.170733
   6 H     1.0000    0     1.008   -7.164592    0.279834    0.995905
   7 C     6.0000    0    12.011    0.674742    1.696019   -1.502366
   8 C     6.0000    0    12.011    2.675639    3.817376   -1.207251
   9 C     6.0000    0    12.011    5.307895    2.669260   -1.201558
  10 H     1.0000    0     1.008    2.285947    4.864010    0.548948
  11 H     1.0000    0     1.008    2.546222    5.119314   -2.826170
  12 C     6.0000    0    12.011    6.380146    2.249704    1.431546
  13 N     7.0000    0    14.007    0.777126   -0.136256    0.593026
  14 H     1.0000    0     1.008    1.064056    0.773928   -3.343522
  15 H     1.0000    0     1.008   -2.535135   -2.325566    1.487116
  16 H     1.0000    0     1.008   -1.690722   -0.074854    3.814092
  17 H     1.0000    0     1.008    1.515551   -1.819091    0.044691
  18 O     8.0000    0    15.999    6.351949    2.020076   -3.122902
  19 Cl   17.0000    0    35.453    9.315422    0.592868    1.458266
  20 H     1.0000    0     1.008    4.952051    1.164217    2.491428
  21 H     1.0000    0     1.008    6.628663    4.083642    2.385503
  22 H     1.0000    0     1.008   -2.675649    4.181317   -2.637518

--------------------------------
INTERNAL COORDINATES (ANGSTROEM)
--------------------------------
 C      0   0   0     0.000000000000     0.00000000     0.00000000
 C      1   0   0     1.338934879489     0.00000000     0.00000000
 C      2   1   0     1.511165452774   109.82196906     0.00000000
 C      2   1   3     1.494324651114   128.44062839   179.78269870
 H      4   2   1     1.099898945618   111.74548719     0.56287256
 H      4   2   1     1.104524411761   110.93787333   239.70122251
 H      4   2   1     1.104521495198   111.07206626   121.48725273
 C      1   2   3     1.505913003134   111.79412486   359.04900444
 C      8   1   2     1.551025442152   112.56335804   236.40577598
 C      9   8   1     1.519667288812   109.66823387   177.07142628
 H      9   8   1     1.101341809323   108.73027453    54.57694854
 H      9   8   1     1.101488600153   109.38669597   295.31290613
 C     10   9   8     1.520773467676   113.71409416   262.94198134
 N      3   2   1     1.467549407909   104.51207102     3.94388319
 H      8   1   2     1.108960334041   111.21128859   117.28720759
 H      3   2   1     1.109540747622   110.72492162   242.40782782
 H      3   2   1     1.109110287466   111.04803639   125.08450044
 H     14   3   2     1.014845194437   112.42873142   228.76442572
 O     10   9   8     1.207063354124   122.11734072    78.62710422
 Cl    13  10   9     1.783701471327   113.82421088   173.56777860
 H     13  10   9     1.102555404008   106.64293304    52.48876903
 H     13  10   9     1.101797941781   109.61716057   295.91096255
 H      1   2   3     1.092406649717   125.59235336   180.27335036

---------------------------
INTERNAL COORDINATES (A.U.)
---------------------------
 C      0   0   0     0.000000000000     0.00000000     0.00000000
 C      1   0   0     2.530220233389     0.00000000     0.00000000
 C      2   1   0     2.855688848786   109.82196906     0.00000000
 C      2   1   3     2.823864345773   128.44062839   179.78269870
 H      4   2   1     2.078507782206   111.74548719     0.56287256
 H      4   2   1     2.087248646458   110.93787333   239.70122251
 H      4   2   1     2.087243134954   111.07206626   121.48725273
 C      1   2   3     2.845763157435   111.79412486   359.04900444
 C      8   1   2     2.931013312412   112.56335804   236.40577598
 C      9   8   1     2.871754990533   109.66823387   177.07142628
 H      9   8   1     2.081234399458   108.73027453    54.57694854
 H      9   8   1     2.081511793926   109.38669597   295.31290613
 C     10   9   8     2.873845365641   113.71409416   262.94198134
 N      3   2   1     2.773266468946   104.51207102     3.94388319
 H      8   1   2     2.095631324719   111.21128859   117.28720759
 H      3   2   1     2.096728147432   110.72492162   242.40782782
 H      3   2   1     2.095914695625   111.04803639   125.08450044
 H     14   3   2     1.917779485812   112.42873142   228.76442572
 O     10   9   8     2.281019165587   122.11734072    78.62710422
 Cl    13  10   9     3.370707285481   113.82421088   173.56777860
 H     13  10   9     2.083527761050   106.64293304    52.48876903
 H     13  10   9     2.082096364884   109.61716057   295.91096255
 H      1   2   3     2.064349394839   125.59235336   180.27335036

---------------------
BASIS SET INFORMATION
---------------------
There are 5 groups of distinct atoms

 Group   1 Type C   : 18s5p2d1f contracted to 4s3p2d1f pattern {8811/311/11/1}
 Group   2 Type H   : 5s2p1d contracted to 3s2p1d pattern {311/11/1}
 Group   3 Type N   : 18s5p2d1f contracted to 4s3p2d1f pattern {8811/311/11/1}
 Group   4 Type O   : 18s5p2d1f contracted to 4s3p2d1f pattern {8811/311/11/1}
 Group   5 Type Cl  : 41s16p2d1f contracted to 5s4p2d1f pattern {13131311/7711/11/1}

Atom   0C    basis set group =>   1
Atom   1C    basis set group =>   1
Atom   2C    basis set group =>   1
Atom   3C    basis set group =>   1
Atom   4H    basis set group =>   2
Atom   5H    basis set group =>   2
Atom   6H    basis set group =>   2
Atom   7C    basis set group =>   1
Atom   8C    basis set group =>   1
Atom   9C    basis set group =>   1
Atom  10H    basis set group =>   2
Atom  11H    basis set group =>   2
Atom  12C    basis set group =>   1
Atom  13N    basis set group =>   3
Atom  14H    basis set group =>   2
Atom  15H    basis set group =>   2
Atom  16H    basis set group =>   2
Atom  17H    basis set group =>   2
Atom  18O    basis set group =>   4
Atom  19Cl   basis set group =>   5
Atom  20H    basis set group =>   2
Atom  21H    basis set group =>   2
Atom  22H    basis set group =>   2
---------------------------------
AUXILIARY/J BASIS SET INFORMATION
---------------------------------
There are 5 groups of distinct atoms

 Group   1 Type C   : 12s5p4d2f1g contracted to 6s4p3d1f1g pattern {711111/2111/211/2/1}
 Group   2 Type H   : 5s2p1d contracted to 3s1p1d pattern {311/2/1}
 Group   3 Type N   : 12s5p4d2f1g contracted to 6s4p3d1f1g pattern {711111/2111/211/2/1}
 Group   4 Type O   : 12s5p4d2f1g contracted to 6s4p3d1f1g pattern {711111/2111/211/2/1}
 Group   5 Type Cl  : 14s5p5d2f1g contracted to 8s4p3d1f1g pattern {71111111/2111/311/2/1}

Atom   0C    basis set group =>   1
Atom   1C    basis set group =>   1
Atom   2C    basis set group =>   1
Atom   3C    basis set group =>   1
Atom   4H    basis set group =>   2
Atom   5H    basis set group =>   2
Atom   6H    basis set group =>   2
Atom   7C    basis set group =>   1
Atom   8C    basis set group =>   1
Atom   9C    basis set group =>   1
Atom  10H    basis set group =>   2
Atom  11H    basis set group =>   2
Atom  12C    basis set group =>   1
Atom  13N    basis set group =>   3
Atom  14H    basis set group =>   2
Atom  15H    basis set group =>   2
Atom  16H    basis set group =>   2
Atom  17H    basis set group =>   2
Atom  18O    basis set group =>   4
Atom  19Cl   basis set group =>   5
Atom  20H    basis set group =>   2
Atom  21H    basis set group =>   2
Atom  22H    basis set group =>   2
------------------------------------------------------------------------------
                           ORCA GTO INTEGRAL CALCULATION
                           -- RI-GTO INTEGRALS CHOSEN --
------------------------------------------------------------------------------
------------------------------------------------------------------------------
                   ___                                                        
                  /   \      - P O W E R E D   B Y -                         
                 /     \                                                     
                 |  |  |   _    _      __       _____    __    __             
                 |  |  |  | |  | |    /  \     |  _  \  |  |  /  |          
                  \  \/   | |  | |   /    \    | | | |  |  | /  /          
                 / \  \   | |__| |  /  /\  \   | |_| |  |  |/  /          
                |  |  |   |  __  | /  /__\  \  |    /   |      \           
                |  |  |   | |  | | |   __   |  |    \   |  |\   \          
                \     /   | |  | | |  |  |  |  | |\  \  |  | \   \       
                 \___/    |_|  |_| |__|  |__|  |_| \__\ |__|  \__/        
                                                                              
                      - O R C A' S   B I G   F R I E N D -                    
                                      &                                       
                       - I N T E G R A L  F E E D E R -                       
                                                                              
 v1 FN, 2020, v2 2021                                                         
------------------------------------------------------------------------------


Reading SHARK input file BP86.SHARKINP.tmp ... ok
----------------------
SHARK INTEGRAL PACKAGE
----------------------

Number of atoms                             ...     23
Number of basis functions                   ...    587
Number of shells                            ...    259
Maximum angular momentum                    ...      3
Integral batch strategy                     ... SHARK/LIBINT Hybrid
RI-J (if used) integral strategy            ... SPLIT-RIJ (Revised 2003 algorithm where possible)
Printlevel                                  ...      1
Contraction scheme used                     ... PARTIAL GENERAL contraction
Coulomb Range Separation                    ... NOT USED
Exchange Range Separation                   ... NOT USED
Finite Nucleus Model                        ... NOT USED
Auxiliary Coulomb fitting basis             ... AVAILABLE
   # of basis functions in Aux-J            ...    673
   # of shells in Aux-J                     ...    227
   Maximum angular momentum in Aux-J        ...      4
Auxiliary J/K fitting basis                 ... NOT available
Auxiliary Correlation fitting basis         ... NOT available
Auxiliary 'external' fitting basis          ... NOT available
Integral threshold                          ...     1.000000e-10
Primitive cut-off                           ...     1.000000e-11
Primitive pair pre-selection threshold      ...     1.000000e-11

Calculating pre-screening integrals         ... done (  0.1 sec) Dimension = 259
Calculating pre-screening integrals (ORCA)  ... done (  0.6 sec) Dimension = 184
Organizing shell pair data                  ... done (  0.6 sec)
Shell pair information
Total number of shell pairs                 ...     33670
Shell pairs after pre-screening             ...     21588
Total number of primitive shell pairs       ...     46122
Primitive shell pairs kept                  ...     26638
          la=0 lb=0:   6255 shell pairs
          la=1 lb=0:   6354 shell pairs
          la=1 lb=1:   1537 shell pairs
          la=2 lb=0:   3379 shell pairs
          la=2 lb=1:   1632 shell pairs
          la=2 lb=2:    455 shell pairs
          la=3 lb=0:   1105 shell pairs
          la=3 lb=1:    525 shell pairs
          la=3 lb=2:    291 shell pairs
          la=3 lb=3:     55 shell pairs

Calculating one electron integrals          ... done (  0.3 sec)
Calculating RI/J V-Matrix + Cholesky decomp.... done (  0.1 sec)
Calculating Nuclear repulsion               ... done (  0.0 sec) ENN=    682.250720776388 Eh

SHARK setup successfully completed in   2.0 seconds

Maximum memory used throughout the entire GTOINT-calculation: 194.3 MB
-------------------------------------------------------------------------------
                                 ORCA SCF
-------------------------------------------------------------------------------

------------
SCF SETTINGS
------------
Hamiltonian:
 Density Functional     Method          .... DFT(GTOs)
 Exchange Functional    Exchange        .... B88
   X-Alpha parameter    XAlpha          ....  0.666667
   Becke's b parameter  XBeta           ....  0.004200
 Correlation Functional Correlation     .... P86
 LDA part of GGA corr.  LDAOpt          .... PW91-LDA
 Gradients option       PostSCFGGA      .... off
   Density functional embedding theory  .... OFF
   NL short-range parameter             ....  4.400000
 RI-approximation to the Coulomb term is turned on
   Number of AuxJ basis functions       .... 673


General Settings:
 Integral files         IntName         .... BP86
 Hartree-Fock type      HFTyp           .... RHF
 Total Charge           Charge          ....    0
 Multiplicity           Mult            ....    1
 Number of Electrons    NEL             ....   92
 Basis Dimension        Dim             ....  502
 Nuclear Repulsion      ENuc            ....    682.2507207764 Eh

Convergence Acceleration:
 DIIS                   CNVDIIS         .... on
   Start iteration      DIISMaxIt       ....    12
   Startup error        DIISStart       ....  0.200000
   # of expansion vecs  DIISMaxEq       ....     5
   Bias factor          DIISBfac        ....   1.050
   Max. coefficient     DIISMaxC        ....  10.000
 Trust-Rad. Augm. Hess. CNVTRAH         .... auto
   Auto Start mean grad. ratio tolernc. ....  1.125000
   Auto Start start iteration           ....    20
   Auto Start num. interpolation iter.  ....    10
   Max. Number of Micro iterations      ....    16
   Max. Number of Macro iterations      .... Maxiter - #DIIS iter
   Number of Davidson start vectors     ....     2
   Converg. threshold I  (grad. norm)   ....   5.000e-05
   Converg. threshold II (energy diff.) ....   1.000e-06
   Grad. Scal. Fac. for Micro threshold ....   0.100
   Minimum threshold for Micro iter.    ....   0.010
   NR start threshold (gradient norm)   ....   0.001
   Initial trust radius                 ....   0.400
   Minimum AH scaling param. (alpha)    ....   1.000
   Maximum AH scaling param. (alpha)    .... 1000.000
   Orbital update algorithm             .... Taylor
   White noise on init. David. guess    .... on
   Maximum white noise                  ....   0.010
   Quad. conv. algorithm                .... NR
 SOSCF                  CNVSOSCF        .... on
   Start iteration      SOSCFMaxIt      ....   150
   Startup grad/error   SOSCFStart      ....  0.003300
 Level Shifting         CNVShift        .... on
   Level shift para.    LevelShift      ....    0.2500
   Turn off err/grad.   ShiftErr        ....    0.0010
 Zerner damping         CNVZerner       .... off
 Static damping         CNVDamp         .... on
   Fraction old density DampFac         ....    0.7000
   Max. Damping (<1)    DampMax         ....    0.9800
   Min. Damping (>=0)   DampMin         ....    0.0000
   Turn off err/grad.   DampErr         ....    0.1000
 Fernandez-Rico         CNVRico         .... off

SCF Procedure:
 Maximum # iterations   MaxIter         ....   125
 SCF integral mode      SCFMode         .... Direct
   Integral package                     .... SHARK and LIBINT hybrid scheme
 Reset frequency        DirectResetFreq ....    20
 Integral Threshold     Thresh          ....  1.000e-10 Eh
 Primitive CutOff       TCut            ....  1.000e-11 Eh

Convergence Tolerance:
 Convergence Check Mode ConvCheckMode   .... Total+1el-Energy
 Convergence forced     ConvForced      .... 0
 Energy Change          TolE            ....  1.000e-06 Eh
 1-El. energy change                    ....  1.000e-03 Eh
 Orbital Gradient       TolG            ....  5.000e-05
 Orbital Rotation angle TolX            ....  5.000e-05
 DIIS Error             TolErr          ....  1.000e-06


Diagonalization of the overlap matrix:
Smallest eigenvalue                        ... 1.066e-04
Time for diagonalization                   ...    0.090 sec
Threshold for overlap eigenvalues          ... 1.000e-08
Number of eigenvalues below threshold      ... 0
Time for construction of square roots      ...    0.056 sec
Total time needed                          ...    0.146 sec

Time for model grid setup =    1.245 sec

------------------------------
INITIAL GUESS: MODEL POTENTIAL
------------------------------
Loading Hartree-Fock densities                     ... done
Calculating cut-offs                               ... done
Initializing the effective Hamiltonian             ... done
Setting up the integral package (SHARK)            ... done
Starting the Coulomb interaction                   ... done (   2.2 sec)
Reading the grid                                   ... done
Mapping shells                                     ... done
Starting the XC term evaluation                    ... done (   1.4 sec)
  promolecular density results
     # of electrons  =     91.995746497
     EX              =    -86.975808100
     EC              =     -3.481600002
     EX+EC           =    -90.457408102
Transforming the Hamiltonian                       ... done (   0.0 sec)
Diagonalizing the Hamiltonian                      ... done (   0.1 sec)
Back transforming the eigenvectors                 ... done (   0.0 sec)
Now organizing SCF variables                       ... done
                      ------------------
                      INITIAL GUESS DONE (   4.9 sec)
                      ------------------
-------------------
DFT GRID GENERATION
-------------------

General Integration Accuracy     IntAcc      ... 4.388
Radial Grid Type                 RadialGrid  ... OptM3 with GC (2021)
Angular Grid (max. ang.)         AngularGrid ... 4 (Lebedev-302)
Angular grid pruning method      GridPruning ... 4 (adaptive)
Weight generation scheme         WeightScheme... Becke
Basis function cutoff            BFCut       ... 1.0000e-10
Integration weight cutoff        WCut        ... 1.0000e-14
Angular grids for H and He will be reduced by one unit
Partially contracted basis set               ... off
Rotationally invariant grid construction     ... off

Total number of grid points                  ...   105709
Total number of batches                      ...     1664
Average number of points per batch           ...       63
Average number of grid points per atom       ...     4596
Time for grid setup =    2.949 sec

--------------
SCF ITERATIONS
--------------
ITER       Energy         Delta-E        Max-DP      RMS-DP      [F,P]     Damp
               ***  Starting incremental Fock matrix formation  ***
  0   -902.1604033948   0.000000000000 0.12601670  0.00093292  0.2708856 0.7000
  1   -902.3043186273  -0.143915232526 0.09415359  0.00067988  0.0858692 0.7000
                               ***Turning on DIIS***
  2   -902.3487524581  -0.044433830801 0.07884924  0.00087457  0.0261033 0.0000
  3   -902.4251455896  -0.076393131503 0.07967929  0.00053091  0.0546666 0.0000
  4   -902.4433887111  -0.018243121500 0.01196142  0.00014018  0.0275527 0.0000
  5   -902.4456489286  -0.002260217478 0.00631826  0.00005318  0.0083501 0.0000
                      *** Initiating the SOSCF procedure ***
                           *** Shutting down DIIS ***
                      *** Re-Reading the Fockian *** 
                      *** Removing any level shift *** 
ITER      Energy       Delta-E        Grad      Rot      Max-DP    RMS-DP
  6   -902.44580346  -0.0001545283  0.000301  0.000301  0.001650  0.000021
               *** Restarting incremental Fock matrix formation ***
  7   -902.44581523  -0.0000117729  0.000135  0.000496  0.001540  0.000015
  8   -902.44581200   0.0000032276  0.000242  0.000287  0.000522  0.000008
  9   -902.44581774  -0.0000057410  0.000035  0.000133  0.000113  0.000002
 10   -902.44581760   0.0000001449  0.000106  0.000115  0.000106  0.000001
 11   -902.44581779  -0.0000001873  0.000021  0.000051  0.000160  0.000001
 12   -902.44581777   0.0000000128  0.000015  0.000023  0.000081  0.000001
                 **** Energy Check signals convergence ****
              ***Rediagonalizing the Fockian in SOSCF/NRSCF***

               *****************************************************
               *                     SUCCESS                       *
               *           SCF CONVERGED AFTER  13 CYCLES          *
               *****************************************************


----------------
TOTAL SCF ENERGY
----------------

Total Energy       :         -902.44581777 Eh          -24556.79914 eV

Components:
Nuclear Repulsion  :          682.25072078 Eh           18564.98594 eV
Electronic Energy  :        -1584.69653854 Eh          -43121.78508 eV
One Electron Energy:        -2588.79831797 Eh          -70444.78358 eV
Two Electron Energy:         1004.10177943 Eh           27322.99849 eV

Virial components:
Potential Energy   :        -1800.38463260 Eh          -48990.95651 eV
Kinetic Energy     :          897.93881484 Eh           24434.15736 eV
Virial Ratio       :            2.00501928


DFT components:
N(Alpha)           :       46.000038564445 electrons
N(Beta)            :       46.000038564445 electrons
N(Total)           :       92.000077128891 electrons
E(X)               :      -88.201259720737 Eh       
E(C)               :       -3.474241800883 Eh       
E(XC)              :      -91.675501521620 Eh       
DFET-embed. en.    :        0.000000000000 Eh       

---------------
SCF CONVERGENCE
---------------

  Last Energy change         ...    6.9364e-09  Tolerance :   1.0000e-06
  Last MAX-Density change    ...    1.0129e-05  Tolerance :   1.0000e-05
  Last RMS-Density change    ...    1.5864e-07  Tolerance :   1.0000e-06
  Last Orbital Gradient      ...    1.4255e-06  Tolerance :   5.0000e-05
  Last Orbital Rotation      ...    5.5014e-06  Tolerance :   5.0000e-05

             **** THE GBW FILE WAS UPDATED (BP86.gbw) ****
             **** DENSITY BP86.scfp WAS UPDATED ****
             **** ENERGY FILE WAS UPDATED (BP86.en.tmp) ****
             **** THE GBW FILE WAS UPDATED (BP86.gbw) ****
             **** DENSITY BP86.scfp WAS UPDATED ****
----------------
ORBITAL ENERGIES
----------------

  NO   OCC          E(Eh)            E(eV) 
   0   2.0000    -100.741165     -2741.3065 
   1   2.0000     -18.765164      -510.6261 
   2   2.0000     -14.004680      -381.0867 
   3   2.0000      -9.990536      -271.8563 
   4   2.0000      -9.959374      -271.0083 
   5   2.0000      -9.952364      -270.8176 
   6   2.0000      -9.939575      -270.4696 
   7   2.0000      -9.921917      -269.9891 
   8   2.0000      -9.914380      -269.7840 
   9   2.0000      -9.913096      -269.7491 
  10   2.0000      -9.906454      -269.5683 
  11   2.0000      -9.175652      -249.6822 
  12   2.0000      -7.000707      -190.4989 
  13   2.0000      -6.989959      -190.2065 
  14   2.0000      -6.989867      -190.2040 
  15   2.0000      -0.965758       -26.2796 
  16   2.0000      -0.861224       -23.4351 
  17   2.0000      -0.779745       -21.2179 
  18   2.0000      -0.732585       -19.9347 
  19   2.0000      -0.720372       -19.6023 
  20   2.0000      -0.664879       -18.0923 
  21   2.0000      -0.635091       -17.2817 
  22   2.0000      -0.614715       -16.7273 
  23   2.0000      -0.538627       -14.6568 
  24   2.0000      -0.502113       -13.6632 
  25   2.0000      -0.482778       -13.1371 
  26   2.0000      -0.472974       -12.8703 
  27   2.0000      -0.441645       -12.0178 
  28   2.0000      -0.428443       -11.6585 
  29   2.0000      -0.414842       -11.2884 
  30   2.0000      -0.410335       -11.1658 
  31   2.0000      -0.393236       -10.7005 
  32   2.0000      -0.387359       -10.5406 
  33   2.0000      -0.375728       -10.2241 
  34   2.0000      -0.364796        -9.9266 
  35   2.0000      -0.361561        -9.8386 
  36   2.0000      -0.359274        -9.7764 
  37   2.0000      -0.336932        -9.1684 
  38   2.0000      -0.331720        -9.0266 
  39   2.0000      -0.322665        -8.7802 
  40   2.0000      -0.313702        -8.5363 
  41   2.0000      -0.259549        -7.0627 
  42   2.0000      -0.257880        -7.0173 
  43   2.0000      -0.236420        -6.4333 
  44   2.0000      -0.214941        -5.8488 
  45   2.0000      -0.198690        -5.4066 
  46   0.0000      -0.065324        -1.7776 
  47   0.0000      -0.032057        -0.8723 
  48   0.0000      -0.006123        -0.1666 
  49   0.0000       0.007009         0.1907 
  50   0.0000       0.021344         0.5808 
  51   0.0000       0.035326         0.9613 
  52   0.0000       0.046821         1.2741 
  53   0.0000       0.059039         1.6065 
  54   0.0000       0.064126         1.7449 
  55   0.0000       0.076650         2.0858 
  56   0.0000       0.079959         2.1758 
  57   0.0000       0.085278         2.3205 
  58   0.0000       0.091517         2.4903 
  59   0.0000       0.099706         2.7131 
  60   0.0000       0.116011         3.1568 
  61   0.0000       0.124394         3.3849 
  62   0.0000       0.133492         3.6325 
  63   0.0000       0.136584         3.7166 
  64   0.0000       0.148416         4.0386 
  65   0.0000       0.154712         4.2099 
  66   0.0000       0.172583         4.6962 
  67   0.0000       0.183528         4.9941 
  68   0.0000       0.202564         5.5121 
  69   0.0000       0.205463         5.5909 
  70   0.0000       0.220536         6.0011 
  71   0.0000       0.238649         6.4940 
  72   0.0000       0.250144         6.8068 
  73   0.0000       0.256256         6.9731 
  74   0.0000       0.259755         7.0683 
  75   0.0000       0.271304         7.3826 
  76   0.0000       0.276036         7.5113 
  77   0.0000       0.280367         7.6292 
  78   0.0000       0.288916         7.8618 
  79   0.0000       0.308352         8.3907 
  80   0.0000       0.313025         8.5178 
  81   0.0000       0.321088         8.7372 
  82   0.0000       0.331301         9.0152 
  83   0.0000       0.335299         9.1239 
  84   0.0000       0.338403         9.2084 
  85   0.0000       0.346515         9.4292 
  86   0.0000       0.356412         9.6985 
  87   0.0000       0.360635         9.8134 
  88   0.0000       0.368626        10.0308 
  89   0.0000       0.372298        10.1307 
  90   0.0000       0.382712        10.4141 
  91   0.0000       0.386483        10.5167 
  92   0.0000       0.389728        10.6050 
  93   0.0000       0.396675        10.7941 
  94   0.0000       0.408988        11.1291 
  95   0.0000       0.415865        11.3163 
  96   0.0000       0.418781        11.3956 
  97   0.0000       0.423007        11.5106 
  98   0.0000       0.427113        11.6223 
  99   0.0000       0.432710        11.7746 
 100   0.0000       0.440195        11.9783 
 101   0.0000       0.443928        12.0799 
 102   0.0000       0.450833        12.2678 
 103   0.0000       0.451293        12.2803 
 104   0.0000       0.462069        12.5735 
 105   0.0000       0.467476        12.7207 
 106   0.0000       0.480642        13.0789 
 107   0.0000       0.487436        13.2638 
 108   0.0000       0.492914        13.4129 
 109   0.0000       0.499848        13.6016 
 110   0.0000       0.511430        13.9167 
 111   0.0000       0.515000        14.0139 
 112   0.0000       0.523160        14.2359 
 113   0.0000       0.533057        14.5052 
 114   0.0000       0.553856        15.0712 
 115   0.0000       0.567569        15.4443 
 116   0.0000       0.577354        15.7106 
 117   0.0000       0.607303        16.5255 
 118   0.0000       0.618884        16.8407 
 119   0.0000       0.625259        17.0141 
 120   0.0000       0.644941        17.5497 
 121   0.0000       0.660473        17.9724 
 122   0.0000       0.671242        18.2654 
 123   0.0000       0.681948        18.5567 
 124   0.0000       0.687244        18.7009 
 125   0.0000       0.695925        18.9371 
 126   0.0000       0.723405        19.6848 
 127   0.0000       0.731094        19.8941 
 128   0.0000       0.754458        20.5298 
 129   0.0000       0.755164        20.5491 
 130   0.0000       0.761340        20.7171 
 131   0.0000       0.771186        20.9850 
 132   0.0000       0.777387        21.1538 
 133   0.0000       0.792151        21.5555 
 134   0.0000       0.801095        21.7989 
 135   0.0000       0.826968        22.5030 
 136   0.0000       0.838356        22.8128 
 137   0.0000       0.850373        23.1398 
 138   0.0000       0.868459        23.6320 
 139   0.0000       0.882677        24.0189 
 140   0.0000       0.892635        24.2898 
 141   0.0000       0.897173        24.4133 
 142   0.0000       0.907586        24.6967 
 143   0.0000       0.915295        24.9064 
 144   0.0000       0.929904        25.3040 
 145   0.0000       0.938656        25.5421 
 146   0.0000       0.951370        25.8881 
 147   0.0000       0.968834        26.3633 
 148   0.0000       0.979206        26.6455 
 149   0.0000       0.982086        26.7239 
 150   0.0000       0.987859        26.8810 
 151   0.0000       0.989841        26.9349 
 152   0.0000       1.010410        27.4946 
 153   0.0000       1.016541        27.6615 
 154   0.0000       1.024480        27.8775 
 155   0.0000       1.032548        28.0971 
 156   0.0000       1.046831        28.4857 
 157   0.0000       1.058792        28.8112 
 158   0.0000       1.063015        28.9261 
 159   0.0000       1.068791        29.0833 
 160   0.0000       1.100105        29.9354 
 161   0.0000       1.105909        30.0933 
 162   0.0000       1.109405        30.1884 
 163   0.0000       1.118747        30.4427 
 164   0.0000       1.121544        30.5188 
 165   0.0000       1.136153        30.9163 
 166   0.0000       1.148185        31.2437 
 167   0.0000       1.150888        31.3173 
 168   0.0000       1.159452        31.5503 
 169   0.0000       1.182906        32.1885 
 170   0.0000       1.187784        32.3213 
 171   0.0000       1.201777        32.7020 
 172   0.0000       1.205833        32.8124 
 173   0.0000       1.219350        33.1802 
 174   0.0000       1.227762        33.4091 
 175   0.0000       1.242791        33.8180 
 176   0.0000       1.250026        34.0149 
 177   0.0000       1.256027        34.1782 
 178   0.0000       1.270069        34.5603 
 179   0.0000       1.282329        34.8940 
 180   0.0000       1.286789        35.0153 
 181   0.0000       1.291217        35.1358 
 182   0.0000       1.297025        35.2938 
 183   0.0000       1.311547        35.6890 
 184   0.0000       1.317917        35.8624 
 185   0.0000       1.330054        36.1926 
 186   0.0000       1.352953        36.8157 
 187   0.0000       1.355609        36.8880 
 188   0.0000       1.359511        36.9942 
 189   0.0000       1.369008        37.2526 
 190   0.0000       1.391272        37.8584 
 191   0.0000       1.400866        38.1195 
 192   0.0000       1.413174        38.4544 
 193   0.0000       1.421921        38.6924 
 194   0.0000       1.427840        38.8535 
 195   0.0000       1.432390        38.9773 
 196   0.0000       1.482882        40.3513 
 197   0.0000       1.494207        40.6594 
 198   0.0000       1.513268        41.1781 
 199   0.0000       1.518211        41.3126 
 200   0.0000       1.542557        41.9751 
 201   0.0000       1.558164        42.3998 
 202   0.0000       1.598011        43.4841 
 203   0.0000       1.608127        43.7594 
 204   0.0000       1.642145        44.6850 
 205   0.0000       1.653983        45.0072 
 206   0.0000       1.668842        45.4115 
 207   0.0000       1.708964        46.5033 
 208   0.0000       1.730046        47.0769 
 209   0.0000       1.768727        48.1295 
 210   0.0000       1.798773        48.9471 
 211   0.0000       1.812601        49.3234 
 212   0.0000       1.845087        50.2074 
 213   0.0000       1.862609        50.6842 
 214   0.0000       1.867835        50.8264 
 215   0.0000       1.871486        50.9257 
 216   0.0000       1.891678        51.4752 
 217   0.0000       1.904174        51.8152 
 218   0.0000       1.926364        52.4190 
 219   0.0000       1.953289        53.1517 
 220   0.0000       1.961293        53.3695 
 221   0.0000       1.967514        53.5388 
 222   0.0000       2.003628        54.5215 
 223   0.0000       2.023194        55.0539 
 224   0.0000       2.026962        55.1564 
 225   0.0000       2.029441        55.2239 
 226   0.0000       2.058928        56.0263 
 227   0.0000       2.118051        57.6351 
 228   0.0000       2.136501        58.1372 
 229   0.0000       2.158699        58.7412 
 230   0.0000       2.165605        58.9291 
 231   0.0000       2.171040        59.0770 
 232   0.0000       2.173801        59.1521 
 233   0.0000       2.194122        59.7051 
 234   0.0000       2.208578        60.0985 
 235   0.0000       2.223624        60.5079 
 236   0.0000       2.237077        60.8740 
 237   0.0000       2.255051        61.3631 
 238   0.0000       2.256684        61.4075 
 239   0.0000       2.268706        61.7346 
 240   0.0000       2.282753        62.1169 
 241   0.0000       2.292112        62.3715 
 242   0.0000       2.313369        62.9500 
 243   0.0000       2.321275        63.1651 
 244   0.0000       2.354007        64.0558 
 245   0.0000       2.375144        64.6309 
 246   0.0000       2.377535        64.6960 
 247   0.0000       2.390781        65.0565 
 248   0.0000       2.416599        65.7590 
 249   0.0000       2.434792        66.2540 
 250   0.0000       2.448995        66.6405 
 251   0.0000       2.468170        67.1623 
 252   0.0000       2.480232        67.4905 
 253   0.0000       2.502953        68.1088 
 254   0.0000       2.513398        68.3930 
 255   0.0000       2.524973        68.7080 
 256   0.0000       2.538442        69.0745 
 257   0.0000       2.550545        69.4038 
 258   0.0000       2.560635        69.6784 
 259   0.0000       2.587963        70.4220 
 260   0.0000       2.594922        70.6114 
 261   0.0000       2.595736        70.6336 
 262   0.0000       2.612131        71.0797 
 263   0.0000       2.620908        71.3185 
 264   0.0000       2.635952        71.7279 
 265   0.0000       2.646485        72.0145 
 266   0.0000       2.662520        72.4509 
 267   0.0000       2.683102        73.0109 
 268   0.0000       2.693797        73.3019 
 269   0.0000       2.698184        73.4213 
 270   0.0000       2.705641        73.6242 
 271   0.0000       2.717831        73.9559 
 272   0.0000       2.727077        74.2075 
 273   0.0000       2.749395        74.8148 
 274   0.0000       2.762387        75.1684 
 275   0.0000       2.768276        75.3286 
 276   0.0000       2.784177        75.7613 
 277   0.0000       2.798187        76.1425 
 278   0.0000       2.808445        76.4217 
 279   0.0000       2.825947        76.8979 
 280   0.0000       2.837607        77.2152 
 281   0.0000       2.844210        77.3949 
 282   0.0000       2.864194        77.9387 
 283   0.0000       2.865895        77.9850 
 284   0.0000       2.885907        78.5295 
 285   0.0000       2.888995        78.6135 
 286   0.0000       2.896555        78.8193 
 287   0.0000       2.904208        79.0275 
 288   0.0000       2.923943        79.5645 
 289   0.0000       2.928572        79.6905 
 290   0.0000       2.932041        79.7849 
 291   0.0000       2.947691        80.2108 
 292   0.0000       2.950878        80.2975 
 293   0.0000       2.965757        80.7024 
 294   0.0000       2.971132        80.8486 
 295   0.0000       2.974262        80.9338 
 296   0.0000       2.984134        81.2024 
 297   0.0000       2.998329        81.5887 
 298   0.0000       3.011107        81.9364 
 299   0.0000       3.022683        82.2514 
 300   0.0000       3.024441        82.2992 
 301   0.0000       3.036611        82.6304 
 302   0.0000       3.042776        82.7981 
 303   0.0000       3.066580        83.4459 
 304   0.0000       3.077790        83.7509 
 305   0.0000       3.084201        83.9254 
 306   0.0000       3.085425        83.9587 
 307   0.0000       3.093460        84.1773 
 308   0.0000       3.094681        84.2106 
 309   0.0000       3.123489        84.9945 
 310   0.0000       3.137399        85.3730 
 311   0.0000       3.148527        85.6758 
 312   0.0000       3.157983        85.9331 
 313   0.0000       3.176639        86.4407 
 314   0.0000       3.197866        87.0184 
 315   0.0000       3.203482        87.1712 
 316   0.0000       3.211701        87.3948 
 317   0.0000       3.223730        87.7222 
 318   0.0000       3.232962        87.9734 
 319   0.0000       3.244159        88.2781 
 320   0.0000       3.269793        88.9756 
 321   0.0000       3.282049        89.3091 
 322   0.0000       3.288557        89.4862 
 323   0.0000       3.307746        90.0083 
 324   0.0000       3.320705        90.3610 
 325   0.0000       3.326434        90.5169 
 326   0.0000       3.335721        90.7696 
 327   0.0000       3.339719        90.8784 
 328   0.0000       3.354536        91.2816 
 329   0.0000       3.369096        91.6778 
 330   0.0000       3.376606        91.8821 
 331   0.0000       3.391389        92.2844 
 332   0.0000       3.406119        92.6852 
 333   0.0000       3.409877        92.7875 
 334   0.0000       3.418216        93.0144 
 335   0.0000       3.432750        93.4099 
 336   0.0000       3.449663        93.8701 
 337   0.0000       3.459800        94.1459 
 338   0.0000       3.466220        94.3206 
 339   0.0000       3.475862        94.5830 
 340   0.0000       3.491775        95.0160 
 341   0.0000       3.502349        95.3038 
 342   0.0000       3.508269        95.4649 
 343   0.0000       3.545662        96.4824 
 344   0.0000       3.549088        96.5756 
 345   0.0000       3.562415        96.9383 
 346   0.0000       3.579002        97.3896 
 347   0.0000       3.584798        97.5473 
 348   0.0000       3.615059        98.3708 
 349   0.0000       3.622747        98.5800 
 350   0.0000       3.632333        98.8408 
 351   0.0000       3.643044        99.1323 
 352   0.0000       3.649137        99.2981 
 353   0.0000       3.668819        99.8336 
 354   0.0000       3.681943       100.1908 
 355   0.0000       3.692552       100.4794 
 356   0.0000       3.707711       100.8920 
 357   0.0000       3.709231       100.9333 
 358   0.0000       3.732594       101.5691 
 359   0.0000       3.737158       101.6932 
 360   0.0000       3.745233       101.9130 
 361   0.0000       3.751127       102.0734 
 362   0.0000       3.775554       102.7380 
 363   0.0000       3.786240       103.0288 
 364   0.0000       3.789848       103.1270 
 365   0.0000       3.801885       103.4545 
 366   0.0000       3.810437       103.6873 
 367   0.0000       3.828858       104.1885 
 368   0.0000       3.831677       104.2652 
 369   0.0000       3.841805       104.5408 
 370   0.0000       3.861284       105.0709 
 371   0.0000       3.875244       105.4507 
 372   0.0000       3.879442       105.5650 
 373   0.0000       3.890180       105.8572 
 374   0.0000       3.899500       106.1108 
 375   0.0000       3.913748       106.4985 
 376   0.0000       3.927090       106.8616 
 377   0.0000       3.943944       107.3202 
 378   0.0000       3.954887       107.6180 
 379   0.0000       3.969060       108.0036 
 380   0.0000       3.978931       108.2722 
 381   0.0000       3.995489       108.7228 
 382   0.0000       3.997905       108.7885 
 383   0.0000       4.009036       109.0914 
 384   0.0000       4.010724       109.1373 
 385   0.0000       4.018972       109.3618 
 386   0.0000       4.038173       109.8843 
 387   0.0000       4.054416       110.3263 
 388   0.0000       4.061549       110.5204 
 389   0.0000       4.084452       111.1436 
 390   0.0000       4.098181       111.5172 
 391   0.0000       4.114124       111.9510 
 392   0.0000       4.121099       112.1408 
 393   0.0000       4.125532       112.2614 
 394   0.0000       4.140078       112.6573 
 395   0.0000       4.153556       113.0240 
 396   0.0000       4.167929       113.4151 
 397   0.0000       4.187676       113.9525 
 398   0.0000       4.195172       114.1564 
 399   0.0000       4.209909       114.5574 
 400   0.0000       4.225243       114.9747 
 401   0.0000       4.241187       115.4086 
 402   0.0000       4.269817       116.1876 
 403   0.0000       4.282969       116.5455 
 404   0.0000       4.297756       116.9479 
 405   0.0000       4.307891       117.2237 
 406   0.0000       4.322883       117.6316 
 407   0.0000       4.357317       118.5686 
 408   0.0000       4.381950       119.2389 
 409   0.0000       4.397922       119.6735 
 410   0.0000       4.404200       119.8444 
 411   0.0000       4.437353       120.7465 
 412   0.0000       4.458741       121.3285 
 413   0.0000       4.466627       121.5431 
 414   0.0000       4.500810       122.4733 
 415   0.0000       4.526804       123.1806 
 416   0.0000       4.536312       123.4393 
 417   0.0000       4.547937       123.7557 
 418   0.0000       4.579295       124.6089 
 419   0.0000       4.596291       125.0714 
 420   0.0000       4.621856       125.7671 
 421   0.0000       4.635313       126.1333 
 422   0.0000       4.642396       126.3260 
 423   0.0000       4.678977       127.3214 
 424   0.0000       4.703238       127.9816 
 425   0.0000       4.710011       128.1659 
 426   0.0000       4.726303       128.6093 
 427   0.0000       4.748806       129.2216 
 428   0.0000       4.766391       129.7001 
 429   0.0000       4.783988       130.1789 
 430   0.0000       4.795007       130.4788 
 431   0.0000       4.832436       131.4973 
 432   0.0000       4.839080       131.6781 
 433   0.0000       4.870531       132.5339 
 434   0.0000       4.876889       132.7069 
 435   0.0000       4.896423       133.2384 
 436   0.0000       4.903292       133.4254 
 437   0.0000       4.908211       133.5592 
 438   0.0000       4.935540       134.3029 
 439   0.0000       4.966690       135.1505 
 440   0.0000       4.990620       135.8017 
 441   0.0000       4.997242       135.9819 
 442   0.0000       5.002839       136.1342 
 443   0.0000       5.017175       136.5243 
 444   0.0000       5.042446       137.2119 
 445   0.0000       5.048675       137.3814 
 446   0.0000       5.064796       137.8201 
 447   0.0000       5.072378       138.0264 
 448   0.0000       5.085258       138.3769 
 449   0.0000       5.098509       138.7375 
 450   0.0000       5.110340       139.0594 
 451   0.0000       5.135646       139.7480 
 452   0.0000       5.147367       140.0670 
 453   0.0000       5.158221       140.3623 
 454   0.0000       5.174533       140.8062 
 455   0.0000       5.194925       141.3611 
 456   0.0000       5.203296       141.5889 
 457   0.0000       5.224285       142.1600 
 458   0.0000       5.231637       142.3601 
 459   0.0000       5.285066       143.8140 
 460   0.0000       5.293396       144.0406 
 461   0.0000       5.308173       144.4427 
 462   0.0000       5.318404       144.7211 
 463   0.0000       5.347170       145.5039 
 464   0.0000       5.395088       146.8078 
 465   0.0000       5.478214       149.0698 
 466   0.0000       5.495092       149.5291 
 467   0.0000       5.522239       150.2678 
 468   0.0000       5.537965       150.6957 
 469   0.0000       5.553405       151.1158 
 470   0.0000       5.588705       152.0764 
 471   0.0000       5.667299       154.2150 
 472   0.0000       5.685687       154.7154 
 473   0.0000       5.715413       155.5243 
 474   0.0000       5.738745       156.1592 
 475   0.0000       5.749963       156.4645 
 476   0.0000       5.794572       157.6783 
 477   0.0000       5.824272       158.4865 
 478   0.0000       5.856955       159.3759 
 479   0.0000       5.879790       159.9972 
 480   0.0000       5.928774       161.3301 
 481   0.0000       5.940355       161.6453 
 482   0.0000       6.015837       163.6992 
 483   0.0000       6.144991       167.2137 
 484   0.0000       6.181719       168.2131 
 485   0.0000       6.278996       170.8602 
 486   0.0000       6.343807       172.6238 
 487   0.0000       6.492925       176.6815 
 488   0.0000       6.531921       177.7426 
 489   0.0000       6.737250       183.3299 
 490   0.0000       6.895753       187.6430 
 491   0.0000       6.917786       188.2425 
 492   0.0000       8.872705       241.4386 
 493   0.0000       9.283689       252.6220 
 494   0.0000      11.246099       306.0219 
 495   0.0000      11.736501       319.3664 
 496   0.0000      12.064977       328.3047 
 497   0.0000      12.652176       344.2832 
 498   0.0000      12.727015       346.3197 
 499   0.0000      13.209627       359.4522 
 500   0.0000      13.360795       363.5657 
 501   0.0000      13.648029       371.3817 

                    ********************************
                    * MULLIKEN POPULATION ANALYSIS *
                    ********************************

-----------------------
MULLIKEN ATOMIC CHARGES
-----------------------
   0 C :   -0.210391
   1 C :    0.049514
   2 C :   -0.082204
   3 C :   -0.292417
   4 H :    0.105139
   5 H :    0.104654
   6 H :    0.103012
   7 C :    0.022953
   8 C :   -0.186299
   9 C :    0.173672
  10 H :    0.099087
  11 H :    0.114653
  12 C :   -0.150374
  13 N :   -0.242843
  14 H :    0.108250
  15 H :    0.081874
  16 H :    0.076613
  17 H :    0.131391
  18 O :   -0.231910
  19 Cl:   -0.140674
  20 H :    0.122098
  21 H :    0.130368
  22 H :    0.113833
Sum of atomic charges:    0.0000000

--------------------------------
MULLIKEN REDUCED ORBITAL CHARGES
--------------------------------
  0 C s       :     3.303956  s :     3.303956
      pz      :     0.973919  p :     2.817263
      px      :     0.883471
      py      :     0.959873
      dz2     :     0.015258  d :     0.080889
      dxz     :     0.013869
      dyz     :     0.015217
      dx2y2   :     0.020881
      dxy     :     0.015664
      f0      :     0.001188  f :     0.008283
      f+1     :     0.000948
      f-1     :     0.000900
      f+2     :     0.001649
      f-2     :     0.001129
      f+3     :     0.001257
      f-3     :     0.001212
  1 C s       :     3.181413  s :     3.181413
      pz      :     0.904990  p :     2.646182
      px      :     0.849116
      py      :     0.892076
      dz2     :     0.028340  d :     0.112751
      dxz     :     0.022940
      dyz     :     0.012659
      dx2y2   :     0.023422
      dxy     :     0.025390
      f0      :     0.001194  f :     0.010139
      f+1     :     0.001572
      f-1     :     0.001021
      f+2     :     0.002081
      f-2     :     0.001212
      f+3     :     0.001245
      f-3     :     0.001815
  2 C s       :     3.235339  s :     3.235339
      pz      :     0.976574  p :     2.731770
      px      :     0.798595
      py      :     0.956601
      dz2     :     0.029691  d :     0.107210
      dxz     :     0.020611
      dyz     :     0.006644
      dx2y2   :     0.025854
      dxy     :     0.024410
      f0      :     0.000754  f :     0.007886
      f+1     :     0.001778
      f-1     :     0.000674
      f+2     :     0.001231
      f-2     :     0.001026
      f+3     :     0.001036
      f-3     :     0.001387
  3 C s       :     3.284125  s :     3.284125
      pz      :     1.014405  p :     2.945957
      px      :     0.911386
      py      :     1.020166
      dz2     :     0.012870  d :     0.058877
      dxz     :     0.011745
      dyz     :     0.006151
      dx2y2   :     0.006920
      dxy     :     0.021192
      f0      :     0.000471  f :     0.003458
      f+1     :     0.000560
      f-1     :     0.000295
      f+2     :     0.000445
      f-2     :     0.000207
      f+3     :     0.000744
      f-3     :     0.000734
  4 H s       :     0.859959  s :     0.859959
      pz      :     0.010261  p :     0.032462
      px      :     0.011504
      py      :     0.010696
      dz2     :     0.000649  d :     0.002441
      dxz     :     0.000288
      dyz     :     0.000379
      dx2y2   :     0.000598
      dxy     :     0.000527
  5 H s       :     0.861038  s :     0.861038
      pz      :     0.009491  p :     0.031893
      px      :     0.011356
      py      :     0.011046
      dz2     :     0.000586  d :     0.002416
      dxz     :     0.000948
      dyz     :     0.000681
      dx2y2   :     0.000089
      dxy     :     0.000112
  6 H s       :     0.862796  s :     0.862796
      pz      :     0.011144  p :     0.031784
      px      :     0.011363
      py      :     0.009277
      dz2     :     0.000184  d :     0.002408
      dxz     :     0.000233
      dyz     :     0.000578
      dx2y2   :     0.000938
      dxy     :     0.000475
  7 C s       :     3.197173  s :     3.197173
      pz      :     0.879094  p :     2.613416
      px      :     0.868158
      py      :     0.866164
      dz2     :     0.035735  d :     0.156325
      dxz     :     0.026022
      dyz     :     0.032538
      dx2y2   :     0.030589
      dxy     :     0.031442
      f0      :     0.001317  f :     0.010133
      f+1     :     0.001056
      f-1     :     0.001682
      f+2     :     0.001134
      f-2     :     0.001610
      f+3     :     0.001742
      f-3     :     0.001592
  8 C s       :     3.232015  s :     3.232015
      pz      :     1.030336  p :     2.871614
      px      :     0.885509
      py      :     0.955768
      dz2     :     0.011925  d :     0.077122
      dxz     :     0.008608
      dyz     :     0.022358
      dx2y2   :     0.021773
      dxy     :     0.012458
      f0      :     0.000585  f :     0.005547
      f+1     :     0.000703
      f-1     :     0.000780
      f+2     :     0.000230
      f-2     :     0.000818
      f+3     :     0.001121
      f-3     :     0.001311
  9 C s       :     3.189138  s :     3.189138
      pz      :     0.824454  p :     2.428699
      px      :     0.841103
      py      :     0.763142
      dz2     :     0.055463  d :     0.192772
      dxz     :     0.050455
      dyz     :     0.039957
      dx2y2   :     0.023236
      dxy     :     0.023660
      f0      :     0.004405  f :     0.015720
      f+1     :     0.002775
      f-1     :     0.002190
      f+2     :     0.002243
      f-2     :     0.002227
      f+3     :     0.001099
      f-3     :     0.000782
 10 H s       :     0.864752  s :     0.864752
      pz      :     0.009649  p :     0.033401
      px      :     0.012111
      py      :     0.011641
      dz2     :     0.000714  d :     0.002760
      dxz     :     0.000755
      dyz     :     0.000574
      dx2y2   :     0.000281
      dxy     :     0.000436
 11 H s       :     0.849679  s :     0.849679
      pz      :     0.009584  p :     0.032939
      px      :     0.011367
      py      :     0.011988
      dz2     :     0.000747  d :     0.002729
      dxz     :     0.000691
      dyz     :     0.000409
      dx2y2   :     0.000312
      dxy     :     0.000570
 12 C s       :     3.243786  s :     3.243786
      pz      :     1.006863  p :     2.795937
      px      :     0.816785
      py      :     0.972289
      dz2     :     0.010895  d :     0.104905
      dxz     :     0.028503
      dyz     :     0.017188
      dx2y2   :     0.025827
      dxy     :     0.022492
      f0      :     0.001202  f :     0.005746
      f+1     :     0.001151
      f-1     :     0.000646
      f+2     :     0.000229
      f-2     :     0.000682
      f+3     :     0.000821
      f-3     :     0.001016
 13 N s       :     3.488090  s :     3.488090
      pz      :     1.290028  p :     3.698204
      px      :     1.281275
      py      :     1.126901
      dz2     :     0.012427  d :     0.053286
      dxz     :     0.009340
      dyz     :     0.009193
      dx2y2   :     0.010847
      dxy     :     0.011479
      f0      :     0.000473  f :     0.003263
      f+1     :     0.000406
      f-1     :     0.000489
      f+2     :     0.000613
      f-2     :     0.000504
      f+3     :     0.000439
      f-3     :     0.000339
 14 H s       :     0.855299  s :     0.855299
      pz      :     0.011652  p :     0.033552
      px      :     0.012059
      py      :     0.009842
      dz2     :     0.000855  d :     0.002899
      dxz     :     0.000784
      dyz     :     0.000655
      dx2y2   :     0.000255
      dxy     :     0.000350
 15 H s       :     0.882915  s :     0.882915
      pz      :     0.010769  p :     0.032548
      px      :     0.010722
      py      :     0.011058
      dz2     :     0.000261  d :     0.002663
      dxz     :     0.000149
      dyz     :     0.000759
      dx2y2   :     0.000720
      dxy     :     0.000774
 16 H s       :     0.889984  s :     0.889984
      pz      :     0.010380  p :     0.030671
      px      :     0.008834
      py      :     0.011457
      dz2     :     0.000667  d :     0.002732
      dxz     :     0.001020
      dyz     :     0.000964
      dx2y2   :     0.000051
      dxy     :     0.000030
 17 H s       :     0.792949  s :     0.792949
      pz      :     0.021329  p :     0.069959
      px      :     0.027341
      py      :     0.021289
      dz2     :     0.000646  d :     0.005701
      dxz     :     0.000391
      dyz     :     0.001563
      dx2y2   :     0.001502
      dxy     :     0.001598
 18 O s       :     3.743120  s :     3.743120
      pz      :     1.494359  p :     4.453300
      px      :     1.599990
      py      :     1.358952
      dz2     :     0.009731  d :     0.033260
      dxz     :     0.009114
      dyz     :     0.008227
      dx2y2   :     0.003201
      dxy     :     0.002987
      f0      :     0.000506  f :     0.002229
      f+1     :     0.000570
      f-1     :     0.000354
      f+2     :     0.000389
      f-2     :     0.000359
      f+3     :     0.000021
      f-3     :     0.000031
 19 Cls       :     5.940065  s :     5.940065
      pz      :     3.950723  p :    11.144929
      px      :     3.414368
      py      :     3.779839
      dz2     :     0.007983  d :     0.051046
      dxz     :     0.008990
      dyz     :     0.002980
      dx2y2   :     0.014216
      dxy     :     0.016878
      f0      :     0.000475  f :     0.004633
      f+1     :     0.000751
      f-1     :     0.000288
      f+2     :     0.000208
      f-2     :     0.000501
      f+3     :     0.000981
      f-3     :     0.001429
 20 H s       :     0.838971  s :     0.838971
      pz      :     0.012643  p :     0.036299
      px      :     0.015315
      py      :     0.008342
      dz2     :     0.000720  d :     0.002632
      dxz     :     0.000479
      dyz     :     0.000369
      dx2y2   :     0.000676
      dxy     :     0.000388
 21 H s       :     0.831316  s :     0.831316
      pz      :     0.013668  p :     0.035649
      px      :     0.010305
      py      :     0.011676
      dz2     :     0.000645  d :     0.002667
      dxz     :     0.000235
      dyz     :     0.000670
      dx2y2   :     0.000427
      dxy     :     0.000689
 22 H s       :     0.854351  s :     0.854351
      pz      :     0.008199  p :     0.029358
      px      :     0.011200
      py      :     0.009959
      dz2     :     0.000705  d :     0.002458
      dxz     :     0.000377
      dyz     :     0.000347
      dx2y2   :     0.000413
      dxy     :     0.000616


                     *******************************
                     * LOEWDIN POPULATION ANALYSIS *
                     *******************************

----------------------
LOEWDIN ATOMIC CHARGES
----------------------
   0 C :    0.035549
   1 C :   -0.061236
   2 C :   -0.015618
   3 C :    0.096419
   4 H :   -0.011580
   5 H :   -0.010816
   6 H :   -0.011285
   7 C :   -0.094812
   8 C :    0.044681
   9 C :   -0.334081
  10 H :   -0.016085
  11 H :   -0.007990
  12 C :   -0.165831
  13 N :    0.358290
  14 H :   -0.018486
  15 H :   -0.024959
  16 H :   -0.024265
  17 H :   -0.108126
  18 O :    0.234971
  19 Cl:    0.226873
  20 H :   -0.035089
  21 H :   -0.023476
  22 H :   -0.033048

-------------------------------
LOEWDIN REDUCED ORBITAL CHARGES
-------------------------------
  0 C s       :     2.716589  s :     2.716589
      pz      :     0.952741  p :     2.817971
      px      :     0.934926
      py      :     0.930305
      dz2     :     0.060310  d :     0.386409
      dxz     :     0.085188
      dyz     :     0.071745
      dx2y2   :     0.087393
      dxy     :     0.081773
      f0      :     0.005881  f :     0.043481
      f+1     :     0.005477
      f-1     :     0.004743
      f+2     :     0.008043
      f-2     :     0.006063
      f+3     :     0.007070
      f-3     :     0.006204
  1 C s       :     2.712092  s :     2.712092
      pz      :     0.933323  p :     2.775657
      px      :     0.941667
      py      :     0.900666
      dz2     :     0.102639  d :     0.518578
      dxz     :     0.123118
      dyz     :     0.066734
      dx2y2   :     0.109929
      dxy     :     0.116156
      f0      :     0.005806  f :     0.054910
      f+1     :     0.008773
      f-1     :     0.005844
      f+2     :     0.010536
      f-2     :     0.006628
      f+3     :     0.007095
      f-3     :     0.010228
  2 C s       :     2.678980  s :     2.678980
      pz      :     0.961001  p :     2.789072
      px      :     0.854815
      py      :     0.973256
      dz2     :     0.149588  d :     0.489889
      dxz     :     0.087396
      dyz     :     0.040364
      dx2y2   :     0.109293
      dxy     :     0.103248
      f0      :     0.005218  f :     0.057677
      f+1     :     0.010704
      f-1     :     0.005046
      f+2     :     0.010485
      f-2     :     0.008761
      f+3     :     0.008458
      f-3     :     0.009004
  3 C s       :     2.666662  s :     2.666662
      pz      :     0.986004  p :     2.920379
      px      :     0.945592
      py      :     0.988783
      dz2     :     0.067358  d :     0.286969
      dxz     :     0.049782
      dyz     :     0.033905
      dx2y2   :     0.047718
      dxy     :     0.088205
      f0      :     0.003700  f :     0.029572
      f+1     :     0.004553
      f-1     :     0.002705
      f+2     :     0.004636
      f-2     :     0.003970
      f+3     :     0.005841
      f-3     :     0.004168
  4 H s       :     0.831228  s :     0.831228
      pz      :     0.050451  p :     0.151790
      px      :     0.044386
      py      :     0.056953
      dz2     :     0.006427  d :     0.028563
      dxz     :     0.004039
      dyz     :     0.006081
      dx2y2   :     0.006151
      dxy     :     0.005866
  5 H s       :     0.828482  s :     0.828482
      pz      :     0.070015  p :     0.154154
      px      :     0.040045
      py      :     0.044095
      dz2     :     0.009587  d :     0.028180
      dxz     :     0.008198
      dyz     :     0.008778
      dx2y2   :     0.000836
      dxy     :     0.000781
  6 H s       :     0.829122  s :     0.829122
      pz      :     0.042266  p :     0.153989
      px      :     0.049379
      py      :     0.062345
      dz2     :     0.002665  d :     0.028174
      dxz     :     0.002606
      dyz     :     0.006596
      dx2y2   :     0.008631
      dxy     :     0.007676
  7 C s       :     2.678836  s :     2.678836
      pz      :     0.915072  p :     2.744469
      px      :     0.932939
      py      :     0.896458
      dz2     :     0.138266  d :     0.602884
      dxz     :     0.084983
      dyz     :     0.128203
      dx2y2   :     0.116510
      dxy     :     0.134923
      f0      :     0.009109  f :     0.068623
      f+1     :     0.007837
      f-1     :     0.010709
      f+2     :     0.010153
      f-2     :     0.011013
      f+3     :     0.010441
      f-3     :     0.009361
  8 C s       :     2.684125  s :     2.684125
      pz      :     0.983754  p :     2.860943
      px      :     0.927589
      py      :     0.949600
      dz2     :     0.058393  d :     0.372438
      dxz     :     0.045183
      dyz     :     0.097921
      dx2y2   :     0.088013
      dxy     :     0.082927
      f0      :     0.003452  f :     0.037813
      f+1     :     0.005623
      f-1     :     0.004722
      f+2     :     0.004533
      f-2     :     0.004859
      f+3     :     0.006762
      f-3     :     0.007862
  9 C s       :     2.767141  s :     2.767141
      pz      :     0.992335  p :     2.678070
      px      :     0.928866
      py      :     0.756869
      dz2     :     0.256846  d :     0.781401
      dxz     :     0.213088
      dyz     :     0.137627
      dx2y2   :     0.083063
      dxy     :     0.090778
      f0      :     0.032331  f :     0.107468
      f+1     :     0.017586
      f-1     :     0.012831
      f+2     :     0.016889
      f-2     :     0.019121
      f+3     :     0.004445
      f-3     :     0.004265
 10 H s       :     0.831198  s :     0.831198
      pz      :     0.066285  p :     0.155501
      px      :     0.040199
      py      :     0.049017
      dz2     :     0.008845  d :     0.029386
      dxz     :     0.006571
      dyz     :     0.008598
      dx2y2   :     0.002616
      dxy     :     0.002756
 11 H s       :     0.823045  s :     0.823045
      pz      :     0.061759  p :     0.155576
      px      :     0.040167
      py      :     0.053650
      dz2     :     0.008326  d :     0.029369
      dxz     :     0.005547
      dyz     :     0.008185
      dx2y2   :     0.003357
      dxy     :     0.003955
 12 C s       :     2.742022  s :     2.742022
      pz      :     1.024159  p :     2.927018
      px      :     0.907411
      py      :     0.995448
      dz2     :     0.079709  d :     0.454878
      dxz     :     0.107991
      dyz     :     0.070221
      dx2y2   :     0.097934
      dxy     :     0.099023
      f0      :     0.007989  f :     0.041912
      f+1     :     0.007188
      f-1     :     0.004289
      f+2     :     0.004578
      f-2     :     0.005698
      f+3     :     0.005442
      f-3     :     0.006727
 13 N s       :     2.896675  s :     2.896675
      pz      :     1.229333  p :     3.530231
      px      :     1.179166
      py      :     1.121732
      dz2     :     0.038395  d :     0.199813
      dxz     :     0.036625
      dyz     :     0.039772
      dx2y2   :     0.043645
      dxy     :     0.041376
      f0      :     0.002279  f :     0.014991
      f+1     :     0.002244
      f-1     :     0.002058
      f+2     :     0.001630
      f-2     :     0.002045
      f+3     :     0.002595
      f-3     :     0.002141
 14 H s       :     0.834241  s :     0.834241
      pz      :     0.070447  p :     0.155621
      px      :     0.040944
      py      :     0.044231
      dz2     :     0.009394  d :     0.028623
      dxz     :     0.006807
      dyz     :     0.008201
      dx2y2   :     0.001878
      dxy     :     0.002343
 15 H s       :     0.843668  s :     0.843668
      pz      :     0.040877  p :     0.153439
      px      :     0.041461
      py      :     0.071101
      dz2     :     0.003036  d :     0.027852
      dxz     :     0.001403
      dyz     :     0.007491
      dx2y2   :     0.007916
      dxy     :     0.008006
 16 H s       :     0.845947  s :     0.845947
      pz      :     0.076613  p :     0.150610
      px      :     0.031917
      py      :     0.042080
      dz2     :     0.010596  d :     0.027708
      dxz     :     0.007589
      dyz     :     0.008999
      dx2y2   :     0.000316
      dxy     :     0.000207
 17 H s       :     0.772397  s :     0.772397
      pz      :     0.084347  p :     0.274484
      px      :     0.080436
      py      :     0.109701
      dz2     :     0.006910  d :     0.061245
      dxz     :     0.003779
      dyz     :     0.017038
      dx2y2   :     0.016641
      dxy     :     0.016877
 18 O s       :     3.370227  s :     3.370227
      pz      :     1.520501  p :     4.318345
      px      :     1.509013
      py      :     1.288831
      dz2     :     0.025360  d :     0.070683
      dxz     :     0.020960
      dyz     :     0.012993
      dx2y2   :     0.004879
      dxy     :     0.006491
      f0      :     0.001723  f :     0.005774
      f+1     :     0.001396
      f-1     :     0.000793
      f+2     :     0.000732
      f-2     :     0.000901
      f+3     :     0.000076
      f-3     :     0.000154
 19 Cls       :     5.671161  s :     5.671161
      pz      :     3.876285  p :    11.002428
      px      :     3.396761
      py      :     3.729381
      dz2     :     0.013451  d :     0.089076
      dxz     :     0.016102
      dyz     :     0.005239
      dx2y2   :     0.025441
      dxy     :     0.028842
      f0      :     0.001155  f :     0.010462
      f+1     :     0.001503
      f-1     :     0.000599
      f+2     :     0.000463
      f-2     :     0.001219
      f+3     :     0.002637
      f-3     :     0.002886
 20 H s       :     0.829593  s :     0.829593
      pz      :     0.055182  p :     0.175808
      px      :     0.070693
      py      :     0.049933
      dz2     :     0.006240  d :     0.029687
      dxz     :     0.006857
      dyz     :     0.004259
      dx2y2   :     0.006013
      dxy     :     0.006317
 21 H s       :     0.831812  s :     0.831812
      pz      :     0.053877  p :     0.162424
      px      :     0.035278
      py      :     0.073268
      dz2     :     0.005603  d :     0.029241
      dxz     :     0.001635
      dyz     :     0.008896
      dx2y2   :     0.006475
      dxy     :     0.006632
 22 H s       :     0.845358  s :     0.845358
      pz      :     0.054375  p :     0.159421
      px      :     0.041762
      py      :     0.063283
      dz2     :     0.006283  d :     0.028269
      dxz     :     0.004038
      dyz     :     0.007062
      dx2y2   :     0.005343
      dxy     :     0.005544


                      *****************************
                      * MAYER POPULATION ANALYSIS *
                      *****************************

  NA   - Mulliken gross atomic population
  ZA   - Total nuclear charge
  QA   - Mulliken gross atomic charge
  VA   - Mayer's total valence
  BVA  - Mayer's bonded valence
  FA   - Mayer's free valence

  ATOM       NA         ZA         QA         VA         BVA        FA
  0 C      6.2104     6.0000    -0.2104     3.8673     3.8673     0.0000
  1 C      5.9505     6.0000     0.0495     3.7984     3.7984    -0.0000
  2 C      6.0822     6.0000    -0.0822     3.9621     3.9621    -0.0000
  3 C      6.2924     6.0000    -0.2924     3.8853     3.8853     0.0000
  4 H      0.8949     1.0000     0.1051     0.9970     0.9970     0.0000
  5 H      0.8953     1.0000     0.1047     0.9873     0.9873     0.0000
  6 H      0.8970     1.0000     0.1030     0.9872     0.9872    -0.0000
  7 C      5.9770     6.0000     0.0230     3.9249     3.9249    -0.0000
  8 C      6.1863     6.0000    -0.1863     3.7270     3.7270    -0.0000
  9 C      5.8263     6.0000     0.1737     4.1113     4.1113    -0.0000
 10 H      0.9009     1.0000     0.0991     1.0103     1.0103    -0.0000
 11 H      0.8853     1.0000     0.1147     1.0104     1.0104    -0.0000
 12 C      6.1504     6.0000    -0.1504     3.7724     3.7724     0.0000
 13 N      7.2428     7.0000    -0.2428     3.1335     3.1335     0.0000
 14 H      0.8917     1.0000     0.1083     1.0044     1.0044    -0.0000
 15 H      0.9181     1.0000     0.0819     0.9839     0.9839     0.0000
 16 H      0.9234     1.0000     0.0766     0.9736     0.9736     0.0000
 17 H      0.8686     1.0000     0.1314     1.0317     1.0317     0.0000
 18 O      8.2319     8.0000    -0.2319     2.3337     2.3337     0.0000
 19 Cl    17.1407    17.0000    -0.1407     1.1143     1.1143    -0.0000
 20 H      0.8779     1.0000     0.1221     1.0494     1.0494     0.0000
 21 H      0.8696     1.0000     0.1304     0.9906     0.9906     0.0000
 22 H      0.8862     1.0000     0.1138     1.0001     1.0001     0.0000

  Mayer bond orders larger than 0.100000
B(  0-C ,  1-C ) :   1.7822 B(  0-C ,  7-C ) :   0.9870 B(  0-C , 22-H ) :   0.9514 
B(  1-C ,  2-C ) :   0.9683 B(  1-C ,  3-C ) :   0.9771 B(  2-C , 13-N ) :   1.0244 
B(  2-C , 15-H ) :   0.9459 B(  2-C , 16-H ) :   0.9385 B(  3-C ,  4-H ) :   0.9707 
B(  3-C ,  5-H ) :   0.9509 B(  3-C ,  6-H ) :   0.9508 B(  7-C ,  8-C ) :   0.8881 
B(  7-C , 13-N ) :   0.9880 B(  7-C , 14-H ) :   0.9521 B(  8-C ,  9-C ) :   0.9238 
B(  8-C , 10-H ) :   0.9506 B(  8-C , 11-H ) :   0.9467 B(  9-C , 12-C ) :   0.8873 
B(  9-C , 18-O ) :   2.2177 B( 12-C , 19-Cl) :   1.0416 B( 12-C , 20-H ) :   0.9112 
B( 12-C , 21-H ) :   0.9379 B( 13-N , 17-H ) :   0.9805 

-------
TIMINGS
-------

Total SCF time: 0 days 0 hours 2 min 7 sec 

Total time                  ....     127.443 sec
Sum of individual times     ....     125.585 sec  ( 98.5%)

Fock matrix formation       ....     115.980 sec  ( 91.0%)
  Split-RI-J                ....      35.188 sec  ( 30.3% of F)
  XC integration            ....      80.443 sec  ( 69.4% of F)
    Basis function eval.    ....      25.600 sec  ( 31.8% of XC)
    Density eval.           ....      28.666 sec  ( 35.6% of XC)
    XC-Functional eval.     ....       2.392 sec  (  3.0% of XC)
    XC-Potential eval.      ....      21.712 sec  ( 27.0% of XC)
Diagonalization             ....       0.537 sec  (  0.4%)
Density matrix formation    ....       0.095 sec  (  0.1%)
Population analysis         ....       0.151 sec  (  0.1%)
Initial guess               ....       3.688 sec  (  2.9%)
Orbital Transformation      ....       0.000 sec  (  0.0%)
Orbital Orthonormalization  ....       0.000 sec  (  0.0%)
DIIS solution               ....       0.286 sec  (  0.2%)
SOSCF solution              ....       0.654 sec  (  0.5%)
Grid generation             ....       4.194 sec  (  3.3%)

Maximum memory used throughout the entire SCF-calculation: 235.6 MB

-------------------------   --------------------
FINAL SINGLE POINT ENERGY      -902.445817765823
-------------------------   --------------------


                            ***************************************
                            *     ORCA property calculations      *
                            ***************************************

                                    ---------------------
                                    Active property flags
                                    ---------------------
   (+) Dipole Moment


------------------------------------------------------------------------------
                       ORCA ELECTRIC PROPERTIES CALCULATION
------------------------------------------------------------------------------

Dipole Moment Calculation                       ... on
Quadrupole Moment Calculation                   ... off
Polarizability Calculation                      ... off
GBWName                                         ... BP86.gbw
Electron density                                ... BP86.scfp
The origin for moment calculation is the CENTER OF MASS  = ( 2.637983,  1.551899  0.056928)

-------------
DIPOLE MOMENT
-------------
                                X             Y             Z
Electronic contribution:     22.57671      -2.27552      -1.12256
Nuclear contribution   :    -24.46675       2.52936       1.68763
                        -----------------------------------------
Total Dipole Moment    :     -1.89004       0.25384       0.56507
                        -----------------------------------------
Magnitude (a.u.)       :      1.98897
Magnitude (Debye)      :      5.05555



--------------------
Rotational spectrum 
--------------------
 
Rotational constants in cm-1:     0.078975     0.013377     0.012208 
Rotational constants in MHz :  2367.608052   401.025928   365.983271 

 Dipole components along the rotational axes: 
x,y,z [a.u.] :    -1.892960    -0.362889     0.490916 
x,y,z [Debye]:    -4.811522    -0.922389     1.247808 

 

Timings for individual modules:

Sum of individual times         ...      129.905 sec (=   2.165 min)
GTO integral calculation        ...        2.109 sec (=   0.035 min)   1.6 %
SCF iterations                  ...      127.796 sec (=   2.130 min)  98.4 %
                             ****ORCA TERMINATED NORMALLY****
TOTAL RUN TIME: 0 days 0 hours 2 minutes 11 seconds 467 msec
