
                                 *****************
                                 * O   R   C   A *
                                 *****************

                                            #,                                       
                                            ###                                      
                                            ####                                     
                                            #####                                    
                                            ######                                   
                                           ########,                                 
                                     ,,################,,,,,                         
                               ,,#################################,,                 
                          ,,##########################################,,             
                       ,#########################################, ''#####,          
                    ,#############################################,,   '####,        
                  ,##################################################,,,,####,       
                ,###########''''           ''''###############################       
              ,#####''   ,,,,##########,,,,          '''####'''          '####       
            ,##' ,,,,###########################,,,                        '##       
           ' ,,###''''                  '''############,,,                           
         ,,##''                                '''############,,,,        ,,,,,,###''
      ,#''                                            '''#######################'''  
     '                                                          ''''####''''         
             ,#######,   #######,   ,#######,      ##                                
            ,#'     '#,  ##    ##  ,#'     '#,    #''#        ######   ,####,        
            ##       ##  ##   ,#'  ##            #'  '#       #        #'  '#        
            ##       ##  #######   ##           ,######,      #####,   #    #        
            '#,     ,#'  ##    ##  '#,     ,#' ,#      #,         ##   #,  ,#        
             '#######'   ##     ##  '#######'  #'      '#     #####' # '####'        



                  #######################################################
                  #                        -***-                        #
                  #          Department of theory and spectroscopy      #
                  #    Directorship and core code : Frank Neese         #
                  #        Max Planck Institute fuer Kohlenforschung    #
                  #                Kaiser Wilhelm Platz 1               #
                  #                 D-45470 Muelheim/Ruhr               #
                  #                      Germany                        #
                  #                                                     #
                  #                  All rights reserved                #
                  #                        -***-                        #
                  #######################################################



                         Program Version 5.0.4 -  RELEASE  -

 With contributions from (in alphabetic order):
   Daniel Aravena         : Magnetic Suceptibility
   Michael Atanasov       : Ab Initio Ligand Field Theory (pilot matlab implementation)
   Alexander A. Auer      : GIAO ZORA, VPT2 properties, NMR spectrum
   Ute Becker             : Parallelization
   Giovanni Bistoni       : ED, misc. LED, open-shell LED, HFLD
   Martin Brehm           : Molecular dynamics
   Dmytro Bykov           : SCF Hessian
   Vijay G. Chilkuri      : MRCI spin determinant printing, contributions to CSF-ICE
   Dipayan Datta          : RHF DLPNO-CCSD density
   Achintya Kumar Dutta   : EOM-CC, STEOM-CC
   Dmitry Ganyushin       : Spin-Orbit,Spin-Spin,Magnetic field MRCI
   Miquel Garcia          : C-PCM and meta-GGA Hessian, CC/C-PCM, Gaussian charge scheme
   Yang Guo               : DLPNO-NEVPT2, F12-NEVPT2, CIM, IAO-localization
   Andreas Hansen         : Spin unrestricted coupled pair/coupled cluster methods
   Benjamin Helmich-Paris : MC-RPA, TRAH-SCF, COSX integrals
   Lee Huntington         : MR-EOM, pCC
   Robert Izsak           : Overlap fitted RIJCOSX, COSX-SCS-MP3, EOM
   Marcus Kettner         : VPT2
   Christian Kollmar      : KDIIS, OOCD, Brueckner-CCSD(T), CCSD density, CASPT2, CASPT2-K
   Simone Kossmann        : Meta GGA functionals, TD-DFT gradient, OOMP2, MP2 Hessian
   Martin Krupicka        : Initial AUTO-CI
   Lucas Lang             : DCDCAS
   Marvin Lechner         : AUTO-CI (C++ implementation), FIC-MRCC
   Dagmar Lenk            : GEPOL surface, SMD
   Dimitrios Liakos       : Extrapolation schemes; Compound Job, initial MDCI parallelization
   Dimitrios Manganas     : Further ROCIS development; embedding schemes
   Dimitrios Pantazis     : SARC Basis sets
   Anastasios Papadopoulos: AUTO-CI, single reference methods and gradients
   Taras Petrenko         : DFT Hessian,TD-DFT gradient, ASA, ECA, R-Raman, ABS, FL, XAS/XES, NRVS
   Peter Pinski           : DLPNO-MP2, DLPNO-MP2 Gradient
   Christoph Reimann      : Effective Core Potentials
   Marius Retegan         : Local ZFS, SOC
   Christoph Riplinger    : Optimizer, TS searches, QM/MM, DLPNO-CCSD(T), (RO)-DLPNO pert. Triples
   Tobias Risthaus        : Range-separated hybrids, TD-DFT gradient, RPA, STAB
   Michael Roemelt        : Original ROCIS implementation
   Masaaki Saitow         : Open-shell DLPNO-CCSD energy and density
   Barbara Sandhoefer     : DKH picture change effects
   Avijit Sen             : IP-ROCIS
   Kantharuban Sivalingam : CASSCF convergence, NEVPT2, FIC-MRCI
   Bernardo de Souza      : ESD, SOC TD-DFT
   Georgi Stoychev        : AutoAux, RI-MP2 NMR, DLPNO-MP2 response
   Willem Van den Heuvel  : Paramagnetic NMR
   Boris Wezisla          : Elementary symmetry handling
   Frank Wennmohs         : Technical directorship


 We gratefully acknowledge several colleagues who have allowed us to
 interface, adapt or use parts of their codes:
   Stefan Grimme, W. Hujo, H. Kruse, P. Pracht,  : VdW corrections, initial TS optimization,
                  C. Bannwarth, S. Ehlert          DFT functionals, gCP, sTDA/sTD-DF
   Ed Valeev, F. Pavosevic, A. Kumar             : LibInt (2-el integral package), F12 methods
   Garnet Chan, S. Sharma, J. Yang, R. Olivares  : DMRG
   Ulf Ekstrom                                   : XCFun DFT Library
   Mihaly Kallay                                 : mrcc  (arbitrary order and MRCC methods)
   Jiri Pittner, Ondrej Demel                    : Mk-CCSD
   Frank Weinhold                                : gennbo (NPA and NBO analysis)
   Christopher J. Cramer and Donald G. Truhlar   : smd solvation model
   Lars Goerigk                                  : TD-DFT with DH, B97 family of functionals
   V. Asgeirsson, H. Jonsson                     : NEB implementation
   FAccTs GmbH                                   : IRC, NEB, NEB-TS, DLPNO-Multilevel, CI-OPT
                                                   MM, QMMM, 2- and 3-layer-ONIOM, Crystal-QMMM,
                                                   LR-CPCM, SF, NACMEs, symmetry and pop. for TD-DFT,
                                                   nearIR, NL-DFT gradient (VV10), updates on ESD,
                                                   ML-optimized integration grids
   S Lehtola, MJT Oliveira, MAL Marques          : LibXC Library
   Liviu Ungur et al                             : ANISO software


 Your calculation uses the libint2 library for the computation of 2-el integrals
 For citations please refer to: http://libint.valeyev.net

 Your ORCA version has been built with support for libXC version: 5.1.0
 For citations please refer to: https://tddft.org/programs/libxc/

 This ORCA versions uses:
   CBLAS   interface :  Fast vector & matrix operations
   LAPACKE interface :  Fast linear algebra routines
   Shared memory     :  Shared parallel matrices


================================================================================

----- Orbital basis set information -----
Your calculation utilizes the basis: def2-SVP
   F. Weigend and R. Ahlrichs, Phys. Chem. Chem. Phys. 7, 3297 (2005).

The basis set includes element-specific modifications.

----- AuxJ basis set information -----
Your calculation utilizes the auxiliary basis: def2/J
   F. Weigend, Phys. Chem. Chem. Phys. 8, 1057 (2006).

The basis set includes element-specific modifications.

================================================================================
                                        WARNINGS
                       Please study these warnings very carefully!
================================================================================


INFO   : the flag for use of the SHARK integral package has been found!


WARNING: TRAH-SCF with ROHF wave function is not implemented yet
  ===> : Turning TRAH off

================================================================================
                                       INPUT FILE
================================================================================
NAME = first_job_atom53.inp
|  1> # input to generate an atomic fitting density for I 
|  2> # this file is used internally by ORCA
|  3> #
|  4> # atomic ground state (S=2): 1s2 2s2 2p6 3s2 3p6 4s2 3d10 4p6 5s2 4d10 5p5 
|  5> #
|  6> ! RHF AllowRHF def2-SVP def2/J  NoMulliken NoLoewdin NoMayer NoPrintMOs 
|  7> 
|  8> %output print[p_atomdensfit] 2 end
|  9> 
| 10> %scf
| 11>   guess hcore
| 12>   maxiter 1000
| 13>   maxdisk 500000
| 14>   SCFMode Conventional
| 15>   lshift 1.000000
| 16>   hftyp rohf
| 17>   rohf_case sahf
| 18>   rohf_numop   2
| 19>   rohf_norb[1] 3
| 20>   rohf_nel[1]  5
| 21> end
| 22> 
| 23> %basis
| 24>   NewECP 53
| 25>     N_core 28
| 26>     lmax f
| 27>     s 7
| 28>       1      40.0158350000     49.9942930000  2
| 29>       2      17.4297470000    281.0253170000  2
| 30>       3       9.0054840000     61.5733260000  2
| 31>       4      19.4586090000     21.8420400000  2
| 32>       5      19.3492600000     28.4681910000  2
| 33>       6       4.8237670000      0.2437130000  2
| 34>       7       4.8843150000      0.3208040000  2
| 35>     p 8
| 36>       1      15.3554660000     67.4428410000  2
| 37>       2      14.9718330000    134.8811370000  2
| 38>       3       8.9601640000     14.6750510000  2
| 39>       4       8.2590960000     29.3756660000  2
| 40>       5      19.4586090000     21.8420400000  2
| 41>       6      19.3492600000     28.4681910000  2
| 42>       7       4.8237670000      0.2437130000  2
| 43>       8       4.8843150000      0.3208040000  2
| 44>     d 10
| 45>       1      15.0689080000     35.4395290000  2
| 46>       2      14.5553220000     53.1760570000  2
| 47>       3       6.7186470000      9.0671950000  2
| 48>       4       6.4563930000     13.2069370000  2
| 49>       5       1.1917790000      0.0893350000  2
| 50>       6       1.2911570000      0.0523800000  2
| 51>       7      19.4586090000     21.8420400000  2
| 52>       8      19.3492600000     28.4681910000  2
| 53>       9       4.8237670000      0.2437130000  2
| 54>      10       4.8843150000      0.3208040000  2
| 55>     f 4
| 56>       1      19.4586090000    -21.8420400000  2
| 57>       2      19.3492600000    -28.4681910000  2
| 58>       3       4.8237670000     -0.2437130000  2
| 59>       4       4.8843150000     -0.3208040000  2
| 60>   end
| 61>   NewGTO 53
| 62>     s 6 
| 63>      1     445.9048917600      0.0022025754
| 64>      2      23.3368424120     -0.1647691779
| 65>      3      19.5834461040      0.4005236426
| 66>      4       8.5112089186     -0.8303440534
| 67>      5       2.1996161861      0.9103490390
| 68>      6       1.0668970454      0.4634503367
| 69>     s 2 
| 70>      1      11.7205475720     -0.0469729845
| 71>      2       1.7625986449      1.0252380966
| 72>     s 1 
| 73>      1       0.2869747632      1.0000000000
| 74>     s 1 
| 75>      1       0.1122760961      1.0000000000
| 76>     p 4 
| 77>      1      20.4990272540      0.0845621086
| 78>      2      10.5587545760     -0.4205167918
| 79>      3       1.5015895485      0.9157047730
| 80>      4       0.6459717310      0.1839785228
| 81>     p 1 
| 82>      1       3.0288656771      1.0000000000
| 83>     p 1 
| 84>      1       0.3450659184      1.0000000000
| 85>     p 1 
| 86>      1       0.1113451381      1.0000000000
| 87>     d 5 
| 88>      1      51.2353549200      0.0041015169
| 89>      2      15.6162394820     -0.0051611250
| 90>      3       4.5266002139      0.2963519699
| 91>      4       2.0529808766      0.5199519651
| 92>      5       0.8764028162      0.3175071685
| 93>     d 1 
| 94>      1       0.3090000000      1.0000000000
| 95>   end
| 96>   NewAuxGTO 53
| 97>     S 1
| 98>      1 1310.72 1.0
| 99>     S 1
|100>      1  655.36 1.0
|101>     S 1
|102>      1  327.68 1.0
|103>     S 1
|104>      1  163.84 1.0
|105>     S 1
|106>      1   81.82 1.0
|107>     S 1
|108>      1   40.96 1.0
|109>     S 1
|110>      1   20.48 1.0
|111>     S 1
|112>      1   10.24 1.0
|113>     S 1
|114>      1    5.12 1.0
|115>     S 1
|116>      1    2.56 1.0
|117>     S 1
|118>      1    1.28 1.0
|119>     S 1
|120>      1    0.64 1.0
|121>     S 1
|122>      1    0.32 1.0
|123>     S 1
|124>      1    0.16 1.0
|125>     S 1
|126>      1    0.08 1.0
|127>     S 1
|128>      1    0.04 1.0
|129>     S 1
|130>      1    0.02 1.0
|131>     S 1
|132>      1    0.01 1.0
|133>   end
|134> end
|135> 
|136> * xyz 0 2
|137> 53  0.0 0.0 0.0
|138> *
|139> 
|140> 
|141>                          ****END OF INPUT****
================================================================================

                       ****************************
                       * Single Point Calculation *
                       ****************************

---------------------------------
CARTESIAN COORDINATES (ANGSTROEM)
---------------------------------
  I      0.000000    0.000000    0.000000

----------------------------
CARTESIAN COORDINATES (A.U.)
----------------------------
  NO LB      ZA    FRAG     MASS         X           Y           Z
   0 I    25.0000*   0   126.900    0.000000    0.000000    0.000000
* core charge reduced due to ECP

--------------------------------
INTERNAL COORDINATES (ANGSTROEM)
--------------------------------
 I      0   0   0     0.000000000000     0.00000000     0.00000000

---------------------------
INTERNAL COORDINATES (A.U.)
---------------------------
 I      0   0   0     0.000000000000     0.00000000     0.00000000

---------------------
BASIS SET INFORMATION
---------------------
There are 1 groups of distinct atoms

 Group   1 Type I   : 10s7p6d contracted to 4s4p2d pattern {6211/4111/51}

Atom   0I    basis set group =>   1
---------------------------------
AUXILIARY/J BASIS SET INFORMATION
---------------------------------
There are 1 groups of distinct atoms

 Group   1 Type I   : 18s contracted to 18s pattern {111111111111111111}

Atom   0I    basis set group =>   1
-------------------------
ECP PARAMETER INFORMATION
-------------------------

 Group 1, Type I  ECP (replacing 28 core electrons, lmax=3)

Atom   0I    ECP group =>   1

------------------------------------------------------------------------------
                           ORCA GTO INTEGRAL CALCULATION
------------------------------------------------------------------------------
------------------------------------------------------------------------------
                   ___                                                        
                  /   \      - P O W E R E D   B Y -                         
                 /     \                                                     
                 |  |  |   _    _      __       _____    __    __             
                 |  |  |  | |  | |    /  \     |  _  \  |  |  /  |          
                  \  \/   | |  | |   /    \    | | | |  |  | /  /          
                 / \  \   | |__| |  /  /\  \   | |_| |  |  |/  /          
                |  |  |   |  __  | /  /__\  \  |    /   |      \           
                |  |  |   | |  | | |   __   |  |    \   |  |\   \          
                \     /   | |  | | |  |  |  |  | |\  \  |  | \   \       
                 \___/    |_|  |_| |__|  |__|  |_| \__\ |__|  \__/        
                                                                              
                      - O R C A' S   B I G   F R I E N D -                    
                                      &                                       
                       - I N T E G R A L  F E E D E R -                       
                                                                              
 v1 FN, 2020, v2 2021                                                         
------------------------------------------------------------------------------


Reading SHARK input file first_job_atom53.SHARKINP.tmp ... ok
----------------------
SHARK INTEGRAL PACKAGE
----------------------

Number of atoms                             ...      1
Number of basis functions                   ...     26
Number of shells                            ...     10
Maximum angular momentum                    ...      2
Integral batch strategy                     ... SHARK/LIBINT Hybrid
RI-J (if used) integral strategy            ... SPLIT-RIJ (Revised 2003 algorithm where possible)
Printlevel                                  ...      1
Contraction scheme used                     ... SEGMENTED contraction
Coulomb Range Separation                    ... NOT USED
Exchange Range Separation                   ... NOT USED
Finite Nucleus Model                        ... NOT USED
Auxiliary Coulomb fitting basis             ... AVAILABLE
   # of basis functions in Aux-J            ...     18
   # of shells in Aux-J                     ...     18
   Maximum angular momentum in Aux-J        ...      0
Auxiliary J/K fitting basis                 ... NOT available
Auxiliary Correlation fitting basis         ... NOT available
Auxiliary 'external' fitting basis          ... NOT available
Integral threshold                          ...     1.000000e-10
Primitive cut-off                           ...     1.000000e-11
Primitive pair pre-selection threshold      ...     1.000000e-11

Calculating pre-screening integrals         ... done (  0.1 sec) Dimension = 10
Organizing shell pair data                  ... done (  0.1 sec)
Shell pair information
Total number of shell pairs                 ...        55
Shell pairs after pre-screening             ...        55
Total number of primitive shell pairs       ...       308
Primitive shell pairs kept                  ...       308
          la=0 lb=0:     10 shell pairs
          la=1 lb=0:     16 shell pairs
          la=1 lb=1:     10 shell pairs
          la=2 lb=0:      8 shell pairs
          la=2 lb=1:      8 shell pairs
          la=2 lb=2:      3 shell pairs

Calculating one electron integrals          ... done (  0.0 sec)
Calculating ECP integrals                   ... done (  0.0 sec)
Calculating RI/J V-Matrix + Cholesky decomp.... done (  0.0 sec)
Calculating Nuclear repulsion               ... done (  0.0 sec) ENN=      0.000000000000 Eh
Calculating 4-index integrals               ... 
    -> SHARK/Ints2Disk: Thresh =     1.000000e-10 TCut=    1.000000e-11 
    -> calling libint FockFlag=2 Lmax_loc=2
    -> L=0 1 2 2:     0.004 sec done=        48 (=100.0%) skipped=         0 
    -> L=0 2 2 2:     0.007 sec done=        24 (=100.0%) skipped=         0 
    -> L=1 1 1 2:     0.003 sec done=        80 (=100.0%) skipped=         0 
    -> L=1 1 2 2:     0.004 sec done=        30 (=100.0%) skipped=         0 
    -> L=1 2 1 2:     0.007 sec done=        36 (=100.0%) skipped=         0 
    -> L=1 2 2 2:     0.011 sec done=        24 (=100.0%) skipped=         0 
    -> L=2 2 2 2:     0.011 sec done=         6 (=100.0%) skipped=         0 
    ->Total LIBINT loop time =    0.051 sec
    -> L=0 0 0 0:     0.001 sec done=        55 (=100.0%) skipped=         0 
    -> L=1 0 0 0:     0.002 sec done=       160 (=100.0%) skipped=         0 
    -> L=1 0 1 0:     0.000 sec done=       136 (=100.0%) skipped=         0 
    -> L=1 1 0 0:     0.000 sec done=       100 (=100.0%) skipped=         0 
    -> L=1 1 1 0:     0.002 sec done=       160 (=100.0%) skipped=         0 
    -> L=1 1 1 1:     0.003 sec done=        55 (=100.0%) skipped=         0 
    -> L=2 0 0 0:     0.001 sec done=        80 (=100.0%) skipped=         0 
    -> L=2 0 1 0:     0.001 sec done=       128 (=100.0%) skipped=         0 
    -> L=2 0 1 1:     0.002 sec done=        80 (=100.0%) skipped=         0 
    -> L=2 0 2 0:     0.002 sec done=        36 (=100.0%) skipped=         0 
    -> L=2 1 0 0:     0.001 sec done=        80 (=100.0%) skipped=         0 
    -> L=2 1 1 0:     0.004 sec done=       128 (=100.0%) skipped=         0 
    -> L=2 1 2 0:     0.007 sec done=        64 (=100.0%) skipped=         0 
    -> L=2 2 0 0:     0.001 sec done=        30 (=100.0%) skipped=         0 
    ->Total SHARK integral loop time =    0.029 sec
    -> Total Integral generation matrix time =    1.200 sec
    -> Number of small integrals   =         0
    -> Number of medium integrals  =         0
    -> Number of large integrals   =      7832
    -> Number of MB stored         =         0 MB


SHARK setup successfully completed in   1.6 seconds

Maximum memory used throughout the entire GTOINT-calculation: 32.6 MB
-------------------------------------------------------------------------------
                                 ORCA SCF
-------------------------------------------------------------------------------

------------
SCF SETTINGS
------------
Hamiltonian:
 Ab initio Hamiltonian  Method          .... Hartree-Fock(GTOs)


General Settings:
 Integral files         IntName         .... first_job_atom53
 Hartree-Fock type      HFTyp           .... ROHF
 Total Charge           Charge          ....    0
 Multiplicity           Mult            ....    2
 Number of Electrons    NEL             ....   25
 Basis Dimension        Dim             ....   26
 Nuclear Repulsion      ENuc            ....      0.0000000000 Eh

Convergence Acceleration:
 DIIS                   CNVDIIS         .... on
   Start iteration      DIISMaxIt       ....    12
   Startup error        DIISStart       ....  0.200000
   # of expansion vecs  DIISMaxEq       ....     5
   Bias factor          DIISBfac        ....   1.050
   Max. coefficient     DIISMaxC        ....  10.000
 Trust-Rad. Augm. Hess. CNVTRAH         .... off
 SOSCF                  CNVSOSCF        .... off
 Level Shifting         CNVShift        .... on
   Level shift para.    LevelShift      ....    1.0000
   Turn off err/grad.   ShiftErr        ....    0.0010
 Zerner damping         CNVZerner       .... off
 Static damping         CNVDamp         .... on
   Fraction old density DampFac         ....    0.7000
   Max. Damping (<1)    DampMax         ....    0.9800
   Min. Damping (>=0)   DampMin         ....    0.0000
   Turn off err/grad.   DampErr         ....    0.1000
 Fernandez-Rico         CNVRico         .... off

SCF Procedure:
 Maximum # iterations   MaxIter         ....  1000
 SCF integral mode      SCFMode         .... Conventional
 Integral Threshold     Thresh          ....  1.000e-10 Eh
 Primitive CutOff       TCut            ....  1.000e-11 Eh
 Integral Buffer length BufferLength    .... 1048576
 Integral index format  IndFormat       ....     0
 Integral value format  ValFormat       ....     0
 Integral Storage       Thresh          ....  1.000e-10 Eh

Convergence Tolerance:
 Convergence Check Mode ConvCheckMode   .... Total+1el-Energy
 Convergence forced     ConvForced      .... 0
 Energy Change          TolE            ....  1.000e-06 Eh
 1-El. energy change                    ....  1.000e-03 Eh
 DIIS Error             TolErr          ....  1.000e-06


Diagonalization of the overlap matrix:
Smallest eigenvalue                        ... 6.777e-02
Time for diagonalization                   ...    0.006 sec
Threshold for overlap eigenvalues          ... 1.000e-08
Number of eigenvalues below threshold      ... 0
Time for construction of square roots      ...    0.002 sec
Total time needed                          ...    0.008 sec

--------------------
INITIAL GUESS: HCORE
--------------------
AVERAGE-CONFIGURATION (SAHF) CASE FOUND

-------------------
FINAL ROHF SETTINGS
-------------------
Number of operators             ... 2
  operator   0:  10 orbitals  20 electrons n(mue)= 2.000
  operator   1:   3 orbitals   5 electrons n(mue)= 1.667
Vector coupling coefficients a and b (Zerner convention):
   1.000    1.000           1.000    1.000 
   1.000    0.960           1.000    0.960 

                      -----------------
                      INTIAL GUESS DONE 
                      -----------------

 InCore treatment chosen:
   Memory dedicated               ...    1024 MB
   Memory needed                  ...      0 MB
   Number of tiny    integrals    ...       0
   Number of small   integrals    ...       0
   Number of regular integrals    ...    7832

--------------
SCF ITERATIONS
--------------
ITER       Energy         Delta-E        Max-DP      RMS-DP      [F,P]     Damp
  0   -285.9767777483   0.000000000000 0.29736440  0.01559808  3.8195206 0.7000
  1   -292.1284535826  -6.151675834321 0.42403873  0.01828182  0.6601692 0.7000
  2   -293.7333641343  -1.604910551622 0.42606486  0.01746563  0.2310805 0.7000
                            ****Activating DIIS****
  3   -294.6515058549  -0.918141720677 0.38727256  0.01550666  0.1475195 0.7000
  4   -295.2647157991  -0.613209944190 1.11919320  0.04416107  0.0900062 0.0000
  5   -296.5990181339  -1.334302334770 0.04320505  0.00371928  0.0615049 0.0000
  6   -296.6248552482  -0.025837114294 0.14248462  0.00569678  0.0464840 0.0000
  7   -296.6293175893  -0.004462341089 0.01123809  0.00080589  0.0564631 0.0000
  8   -296.6365638757  -0.007246286436 0.00609372  0.00067447  0.0366860 0.0000
  9   -296.6418532450  -0.005289369325 0.02005389  0.00136174  0.0174352 0.0000
 10   -296.6454606343  -0.003607389257 0.01815361  0.00088858  0.0115404 0.0000
 11   -296.6461131416  -0.000652507258 0.01236836  0.00052015  0.0062182 0.0000
 12   -296.6462391434  -0.000126001826 0.00518722  0.00018253  0.0026531 0.0000
 13   -296.6462514271  -0.000012283700 0.00233903  0.00007533  0.0012243 0.0000
 14   -296.6462535409  -0.000002113808 0.00151127  0.00004923  0.0006205 0.0000
                 **** Energy Check signals convergence ****

               *****************************************************
               *                     SUCCESS                       *
               *           SCF CONVERGED AFTER  15 CYCLES          *
               *****************************************************


----------------
TOTAL SCF ENERGY
----------------

Total Energy       :         -296.64625423 Eh           -8072.15496 eV

Components:
Nuclear Repulsion  :            0.00000000 Eh               0.00000 eV
Electronic Energy  :         -296.64625423 Eh           -8072.15496 eV
One Electron Energy:         -517.39274490 Eh          -14078.97235 eV
Two Electron Energy:          220.74649067 Eh            6006.81739 eV

Virial components:
Potential Energy   :         -410.32032761 Eh          -11165.38375 eV
Kinetic Energy     :          113.67407338 Eh            3093.22879 eV
Virial Ratio       :            3.60962105


---------------
SCF CONVERGENCE
---------------

  Last Energy change         ...   -6.8913e-07  Tolerance :   1.0000e-06
  Last MAX-Density change    ...    9.1302e-04  Tolerance :   1.0000e-05
  Last RMS-Density change    ...    3.0103e-05  Tolerance :   1.0000e-06
  Last DIIS Error            ...    2.4835e-04  Tolerance :   1.0000e-06

             **** THE GBW FILE WAS UPDATED (first_job_atom53.gbw) ****
             **** DENSITY first_job_atom53.scfp WAS UPDATED ****
             **** ENERGY FILE WAS UPDATED (first_job_atom53.en.tmp) ****
             **** THE GBW FILE WAS UPDATED (first_job_atom53.gbw) ****
             **** DENSITY first_job_atom53.scfp WAS UPDATED ****
----------------
ORBITAL ENERGIES
----------------

  NO   OCC          E(Eh)            E(eV) 
   0   2.0000      -7.757921      -211.1038 
   1   2.0000      -5.605857      -152.5431 
   2   2.0000      -5.605857      -152.5431 
   3   2.0000      -5.605857      -152.5431 
   4   2.0000      -2.299820       -62.5813 
   5   2.0000      -2.299820       -62.5813 
   6   2.0000      -2.299820       -62.5813 
   7   2.0000      -2.299820       -62.5813 
   8   2.0000      -2.299820       -62.5813 
   9   2.0000      -0.874792       -23.8043 
  10   1.6667      -0.400329       -10.8935 
  11   1.6667      -0.400329       -10.8935 
  12   1.6667      -0.400329       -10.8935 
  13   0.0000       0.344373         9.3709 
  14   0.0000       0.494149        13.4465 
  15   0.0000       0.494149        13.4465 
  16   0.0000       0.494149        13.4465 
  17   0.0000       0.529253        14.4017 
  18   0.0000       0.529253        14.4017 
  19   0.0000       0.529253        14.4017 
  20   0.0000       0.529253        14.4017 
  21   0.0000       0.529253        14.4017 
  22   0.0000      19.017108       517.4818 
  23   0.0000      19.017108       517.4818 
  24   0.0000      19.017108       517.4818 
  25   0.0000      56.221085      1529.8535 

Warning: MO coefficients are modified such that the real solid harmonic m components
have the correct order within each shell (0, +1, -1, +2, -2, ...) and all s orbitals
come before all p orbitals etc. (with increasing orbital energy within each block of given angular momentum).

--------------------------
ATOM BASIS FOR ELEMENT I 
--------------------------
 NewGTO I 
 S 10
    1        445.904891760000        -0.002012492216
    2         23.336842412000         0.150549528494
    3         19.583446104000        -0.365958283659
    4          8.511208918600         0.758685012091
    5          2.199616186100        -0.831785533759
    6          1.066897045400        -0.423454377572
    7         11.720547572000         0.004004537171
    8          1.762598644900        -0.087403517371
    9          0.286974763200        -0.012163206234
   10          0.112276096100         0.001668269406
 S 10
    1        445.904891760000        -0.000865180252
    2         23.336842412000         0.064721979012
    3         19.583446104000        -0.157327256957
    4          8.511208918600         0.326162399312
    5          2.199616186100        -0.357588671294
    6          1.066897045400        -0.182045109086
    7         11.720547572000         0.016858704734
    8          1.762598644900        -0.367960148516
    9          0.286974763200         0.854160343002
   10          0.112276096100         0.403393523065
 S 10
    1        445.904891760000        -0.000797840570
    2         23.336842412000         0.059684465201
    3         19.583446104000        -0.145081985076
    4          8.511208918600         0.300776160881
    5          2.199616186100        -0.329756427942
    6          1.066897045400        -0.167875969558
    7         11.720547572000         0.020964220876
    8          1.762598644900        -0.457567645250
    9          0.286974763200         2.399686114330
   10          0.112276096100        -2.078605504871
 S 10
    1        445.904891760000        -0.005749400085
    2         23.336842412000         0.430098295560
    3         19.583446104000        -1.045490049834
    4          8.511208918600         2.167453686712
    5          2.199616186100        -2.376291336942
    6          1.066897045400        -1.209748099930
    7         11.720547572000        -0.116230731426
    8          1.762598644900         2.536866139599
    9          0.286974763200         0.621996131196
   10          0.112276096100        -0.277635005142
 P 7
    1         20.499027254000        -0.047830072329
    2         10.558754576000         0.237852968667
    3          1.501589548500        -0.517941501809
    4          0.645971731000        -0.104062046207
    5          3.028865677100        -0.538739067436
    6          0.345065918400         0.004461872974
    7          0.111345138100        -0.002232097212
 P 7
    1         20.499027254000        -0.017271475204
    2         10.558754576000         0.085888886438
    3          1.501589548500        -0.187029067073
    4          0.645971731000        -0.037576883397
    5          3.028865677100        -0.250086102330
    6          0.345065918400         0.620438466587
    7          0.111345138100         0.549792644841
 P 7
    1         20.499027254000        -0.021714895154
    2         10.558754576000         0.107985458213
    3          1.501589548500        -0.235145900064
    4          0.645971731000        -0.047244261046
    5          3.028865677100        -0.306359529855
    6          0.345065918400         1.471879439767
    7          0.111345138100        -1.306692792537
 P 7
    1         20.499027254000        -0.135022541694
    2         10.558754576000         0.671450215631
    3          1.501589548500        -1.462129882266
    4          0.645971731000        -0.293763343615
    5          3.028865677100         1.160919607402
    6          0.345065918400         0.924347911087
    7          0.111345138100        -0.338528486041
 D 6
    1         51.235354920000         0.004034528773
    2         15.616239482000        -0.005076830798
    3          4.526600213900         0.291511793984
    4          2.052980876600         0.511459836703
    5          0.876402816200         0.312321474777
    6          0.309000000000         0.043490599914
 D 6
    1         51.235354920000         0.001730646552
    2         15.616239482000        -0.002177751160
    3          4.526600213900         0.125046544333
    4          2.052980876600         0.219395189027
    5          0.876402816200         0.133973039677
    6          0.309000000000        -1.069464556320
 end
-------------------------------------------
RADIAL EXPECTATION VALUES <R**-3> TO <R**3>
-------------------------------------------
   0 :     0.000000     2.323194     1.446632     0.758005     0.628226     0.568238
   1 :     0.000000     0.474972     0.592308     2.015205     4.602175    11.723881
   2 :     0.000000     0.313741     0.429078     3.138338    11.389734    44.783868
   3 :     0.000000    22.197457     3.909762     0.371831     0.310489     0.722643
   4 :     3.599434     2.087429     1.368858     0.808947     0.722469     0.711158
   5 :     3.599434     2.087429     1.368858     0.808947     0.722469     0.711158
   6 :     3.599434     2.087429     1.368858     0.808947     0.722469     0.711158
   7 :     0.371640     0.331433     0.489004     2.469697     6.987658    22.254150
   8 :     0.371640     0.331433     0.489004     2.469697     6.987658    22.254150
   9 :     0.371640     0.331433     0.489004     2.469697     6.987658    22.254150
  10 :     0.400394     0.315861     0.434601     3.193884    12.186506    51.302846
  11 :     0.400394     0.315861     0.434601     3.193884    12.186506    51.302846
  12 :     0.400394     0.315861     0.434601     3.193884    12.186506    51.302846
  13 :    29.492664     7.053032     2.227790     0.810998     1.363576     3.907313
  14 :    29.492664     7.053032     2.227790     0.810998     1.363576     3.907313
  15 :    29.492664     7.053032     2.227790     0.810998     1.363576     3.907313
  16 :     3.182869     1.829232     1.252555     0.920911     0.972452     5.865539
  17 :     3.182869     1.829232     1.252555     0.920911     0.972452     5.865539
  18 :     3.182869     1.829232     1.252555     0.920911     0.972452     5.865539
  19 :     3.182869     1.829232     1.252555     0.920911     0.972452     5.865539
  20 :     3.182869     1.829232     1.252555     0.920911     0.972452     5.865539
  21 :     0.478751     0.375062     0.509643     2.329197     5.914246    79.615282
  22 :     0.478751     0.375062     0.509643     2.329197     5.914246    79.615282
  23 :     0.478751     0.375062     0.509643     2.329197     5.914246    79.615282
  24 :     0.478751     0.375062     0.509643     2.329197     5.914246    79.615282
  25 :     0.478751     0.375062     0.509643     2.329197     5.914246    79.615282
Making the total density                ... o.k.
o.k.
Initializing the integrals              ... done
Making exponents                        ... done
Making rho(0)                           ... done (         0.094867775)
Integral calculation                    ... Two index integrals                     ... done
Solving the equation system             ... done
atomic density will be written to file first_job_atom53.adf

-------
TIMINGS
-------

Total SCF time: 0 days 0 hours 0 min 6 sec 

Total time                  ....       6.370 sec
Sum of individual times     ....       1.387 sec  ( 21.8%)

Fock matrix formation       ....       0.154 sec  (  2.4%)
Diagonalization             ....       0.086 sec  (  1.4%)
Density matrix formation    ....       0.000 sec  (  0.0%)
Population analysis         ....       0.000 sec  (  0.0%)
Initial guess               ....       0.007 sec  (  0.1%)
Orbital Transformation      ....       0.000 sec  (  0.0%)
Orbital Orthonormalization  ....       0.000 sec  (  0.0%)
DIIS solution               ....       1.140 sec  ( 17.9%)

Maximum memory used throughout the entire SCF-calculation: 227.0 MB

-------------------------   --------------------
FINAL SINGLE POINT ENERGY      -296.646254230020
-------------------------   --------------------


                            ***************************************
                            *     ORCA property calculations      *
                            ***************************************

                                    ---------------------
                                    Active property flags
                                    ---------------------
   (+) Dipole Moment


------------------------------------------------------------------------------
                       ORCA ELECTRIC PROPERTIES CALCULATION
------------------------------------------------------------------------------

Dipole Moment Calculation                       ... on
Quadrupole Moment Calculation                   ... off
Polarizability Calculation                      ... off
GBWName                                         ... first_job_atom53.gbw
Electron density                                ... first_job_atom53.scfp
The origin for moment calculation is the CENTER OF MASS  = ( 0.000000,  0.000000  0.000000)

-------------
DIPOLE MOMENT
-------------
                                X             Y             Z
Electronic contribution:     -0.00000      -0.00000      -0.00000
Nuclear contribution   :      0.00000       0.00000       0.00000
                        -----------------------------------------
Total Dipole Moment    :     -0.00000      -0.00000      -0.00000
                        -----------------------------------------
Magnitude (a.u.)       :      0.00000
Magnitude (Debye)      :      0.00000



--------------------
Rotational spectrum 
--------------------
 
Rotational constants in cm-1:     0.000000     0.000000     0.000000 
Rotational constants in MHz :     0.000000     0.000000     0.000000 

 Dipole components along the rotational axes: 
x,y,z [a.u.] :    -0.000000    -0.000000    -0.000000 
x,y,z [Debye]:    -0.000000    -0.000000    -0.000000 

 

Timings for individual modules:

Sum of individual times         ...        8.945 sec (=   0.149 min)
GTO integral calculation        ...        1.886 sec (=   0.031 min)  21.1 %
SCF iterations                  ...        7.059 sec (=   0.118 min)  78.9 %
                             ****ORCA TERMINATED NORMALLY****
TOTAL RUN TIME: 0 days 0 hours 0 minutes 10 seconds 139 msec
