
                                 *****************
                                 * O   R   C   A *
                                 *****************

                                            #,                                       
                                            ###                                      
                                            ####                                     
                                            #####                                    
                                            ######                                   
                                           ########,                                 
                                     ,,################,,,,,                         
                               ,,#################################,,                 
                          ,,##########################################,,             
                       ,#########################################, ''#####,          
                    ,#############################################,,   '####,        
                  ,##################################################,,,,####,       
                ,###########''''           ''''###############################       
              ,#####''   ,,,,##########,,,,          '''####'''          '####       
            ,##' ,,,,###########################,,,                        '##       
           ' ,,###''''                  '''############,,,                           
         ,,##''                                '''############,,,,        ,,,,,,###''
      ,#''                                            '''#######################'''  
     '                                                          ''''####''''         
             ,#######,   #######,   ,#######,      ##                                
            ,#'     '#,  ##    ##  ,#'     '#,    #''#        ######   ,####,        
            ##       ##  ##   ,#'  ##            #'  '#       #        #'  '#        
            ##       ##  #######   ##           ,######,      #####,   #    #        
            '#,     ,#'  ##    ##  '#,     ,#' ,#      #,         ##   #,  ,#        
             '#######'   ##     ##  '#######'  #'      '#     #####' # '####'        



                  #######################################################
                  #                        -***-                        #
                  #          Department of theory and spectroscopy      #
                  #    Directorship and core code : Frank Neese         #
                  #        Max Planck Institute fuer Kohlenforschung    #
                  #                Kaiser Wilhelm Platz 1               #
                  #                 D-45470 Muelheim/Ruhr               #
                  #                      Germany                        #
                  #                                                     #
                  #                  All rights reserved                #
                  #                        -***-                        #
                  #######################################################



                         Program Version 5.0.4 -  RELEASE  -

 With contributions from (in alphabetic order):
   Daniel Aravena         : Magnetic Suceptibility
   Michael Atanasov       : Ab Initio Ligand Field Theory (pilot matlab implementation)
   Alexander A. Auer      : GIAO ZORA, VPT2 properties, NMR spectrum
   Ute Becker             : Parallelization
   Giovanni Bistoni       : ED, misc. LED, open-shell LED, HFLD
   Martin Brehm           : Molecular dynamics
   Dmytro Bykov           : SCF Hessian
   Vijay G. Chilkuri      : MRCI spin determinant printing, contributions to CSF-ICE
   Dipayan Datta          : RHF DLPNO-CCSD density
   Achintya Kumar Dutta   : EOM-CC, STEOM-CC
   Dmitry Ganyushin       : Spin-Orbit,Spin-Spin,Magnetic field MRCI
   Miquel Garcia          : C-PCM and meta-GGA Hessian, CC/C-PCM, Gaussian charge scheme
   Yang Guo               : DLPNO-NEVPT2, F12-NEVPT2, CIM, IAO-localization
   Andreas Hansen         : Spin unrestricted coupled pair/coupled cluster methods
   Benjamin Helmich-Paris : MC-RPA, TRAH-SCF, COSX integrals
   Lee Huntington         : MR-EOM, pCC
   Robert Izsak           : Overlap fitted RIJCOSX, COSX-SCS-MP3, EOM
   Marcus Kettner         : VPT2
   Christian Kollmar      : KDIIS, OOCD, Brueckner-CCSD(T), CCSD density, CASPT2, CASPT2-K
   Simone Kossmann        : Meta GGA functionals, TD-DFT gradient, OOMP2, MP2 Hessian
   Martin Krupicka        : Initial AUTO-CI
   Lucas Lang             : DCDCAS
   Marvin Lechner         : AUTO-CI (C++ implementation), FIC-MRCC
   Dagmar Lenk            : GEPOL surface, SMD
   Dimitrios Liakos       : Extrapolation schemes; Compound Job, initial MDCI parallelization
   Dimitrios Manganas     : Further ROCIS development; embedding schemes
   Dimitrios Pantazis     : SARC Basis sets
   Anastasios Papadopoulos: AUTO-CI, single reference methods and gradients
   Taras Petrenko         : DFT Hessian,TD-DFT gradient, ASA, ECA, R-Raman, ABS, FL, XAS/XES, NRVS
   Peter Pinski           : DLPNO-MP2, DLPNO-MP2 Gradient
   Christoph Reimann      : Effective Core Potentials
   Marius Retegan         : Local ZFS, SOC
   Christoph Riplinger    : Optimizer, TS searches, QM/MM, DLPNO-CCSD(T), (RO)-DLPNO pert. Triples
   Tobias Risthaus        : Range-separated hybrids, TD-DFT gradient, RPA, STAB
   Michael Roemelt        : Original ROCIS implementation
   Masaaki Saitow         : Open-shell DLPNO-CCSD energy and density
   Barbara Sandhoefer     : DKH picture change effects
   Avijit Sen             : IP-ROCIS
   Kantharuban Sivalingam : CASSCF convergence, NEVPT2, FIC-MRCI
   Bernardo de Souza      : ESD, SOC TD-DFT
   Georgi Stoychev        : AutoAux, RI-MP2 NMR, DLPNO-MP2 response
   Willem Van den Heuvel  : Paramagnetic NMR
   Boris Wezisla          : Elementary symmetry handling
   Frank Wennmohs         : Technical directorship


 We gratefully acknowledge several colleagues who have allowed us to
 interface, adapt or use parts of their codes:
   Stefan Grimme, W. Hujo, H. Kruse, P. Pracht,  : VdW corrections, initial TS optimization,
                  C. Bannwarth, S. Ehlert          DFT functionals, gCP, sTDA/sTD-DF
   Ed Valeev, F. Pavosevic, A. Kumar             : LibInt (2-el integral package), F12 methods
   Garnet Chan, S. Sharma, J. Yang, R. Olivares  : DMRG
   Ulf Ekstrom                                   : XCFun DFT Library
   Mihaly Kallay                                 : mrcc  (arbitrary order and MRCC methods)
   Jiri Pittner, Ondrej Demel                    : Mk-CCSD
   Frank Weinhold                                : gennbo (NPA and NBO analysis)
   Christopher J. Cramer and Donald G. Truhlar   : smd solvation model
   Lars Goerigk                                  : TD-DFT with DH, B97 family of functionals
   V. Asgeirsson, H. Jonsson                     : NEB implementation
   FAccTs GmbH                                   : IRC, NEB, NEB-TS, DLPNO-Multilevel, CI-OPT
                                                   MM, QMMM, 2- and 3-layer-ONIOM, Crystal-QMMM,
                                                   LR-CPCM, SF, NACMEs, symmetry and pop. for TD-DFT,
                                                   nearIR, NL-DFT gradient (VV10), updates on ESD,
                                                   ML-optimized integration grids
   S Lehtola, MJT Oliveira, MAL Marques          : LibXC Library
   Liviu Ungur et al                             : ANISO software


 Your calculation uses the libint2 library for the computation of 2-el integrals
 For citations please refer to: http://libint.valeyev.net

 Your ORCA version has been built with support for libXC version: 5.1.0
 For citations please refer to: https://tddft.org/programs/libxc/

 This ORCA versions uses:
   CBLAS   interface :  Fast vector & matrix operations
   LAPACKE interface :  Fast linear algebra routines
   Shared memory     :  Shared parallel matrices


Your calculation utilizes the atom-pairwise dispersion correction
based on tight binding partial charges (D4)
Cite in your paper:
E.Caldeweyher, C.Bannwarth, S.Grimme, J.Chem.Phys., (2017), 147, 034112.
E.Caldeweyher, S.Ehlert, A.Hansen, H.Neugebauer, S.Grimme, J.Chem.Phys., (2018), in progress.
   

================================================================================

cite the ECPs for I  [Def2-ECP] as follows:
Ce-Yb(ecp-28): M. Dolg, H. Stoll, H.Preuss, J. Chem. Phys., 1989, 90, 1730-1734.
Y-Cd(ecp-28), Hf-Hg(ecp-46): D. Andrae,U. Haeussermann, M. Dolg, H. Stoll, H. Preuss, Theor. Chim. Acta, 1990, 77, 123-141.
In-Sb(ecp-28), Tl-Bi(ecp-46): B. Metz, H. Stoll, M. Dolg, J. Chem. Phys., 2000, 113, 2563-2569.
Te-Xe(ecp-28), Po-Rn(ecp-46): K. A. Peterson, D. Figgen, E. Goll, H. Stoll, M. Dolg, J. Chem. Phys., 2003, 119, 11113-11123.
Rb(ecp-28), Cs(ecp-46): T. Leininger, A. Nicklass, W. Kuechle, H. Stoll, M. Dolg, A. Bergner, Chem. Phys. Lett., 1996, 255, 274-280.
Sr(ecp-28), Ba(ecp-46): M. Kaupp, P. V. Schleyer, H. Stoll and H. Preuss, J. Chem. Phys., 1991, 94, 1360-1366.
La(ecp-46): M. Dolg, H. Stoll, A. Savin, H. Preuss, Theor. Chim. Acta, 1989, 75, 173-194.
Lu(ecp-28): X. Cao, M. Dolg, J. Chem. Phys., 2001, 115, 7348-7355.

ECP parameters for I  [Def2-ECP] have been obtained from:
TURBOMOLE (7.0.2)

----- Orbital basis set information -----
Your calculation utilizes the basis: def2-SVP
   F. Weigend and R. Ahlrichs, Phys. Chem. Chem. Phys. 7, 3297 (2005).

----- AuxJ basis set information -----
Your calculation utilizes the auxiliary basis: def2/J
   F. Weigend, Phys. Chem. Chem. Phys. 8, 1057 (2006).

================================================================================
                                        WARNINGS
                       Please study these warnings very carefully!
================================================================================


WARNING: Geometry Optimization
  ===> : Switching off AutoStart
         For restart on a previous wavefunction, please use MOREAD

INFO   : the flag for use of the SHARK integral package has been found!



***************************************
The coordinates will be read from file: "first_job.xyz"ÿÿÿÿÿÿÿÿÿÿÿÿÿÿÿÿÿÿÿÿÿÿÿÿÿÿÿÿÿÿÿÿÿÿÿÿÿÿÿÿÿÿÿÿÿÿÿÿÿÿÿÿÿÿÿÿÿÿÿÿÿÿÿÿÿÿÿÿÿÿÿÿÿÿÿÿÿÿÿÿÿÿÿÿÿÿÿÿÿÿÿÿÿÿÿÿÿÿÿÿÿÿÿÿÿÿÿÿÿÿÿÿÿÿÿÿÿÿÿÿÿÿÿÿÿÿÿÿÿÿÿÿÿÿÿÿÿÿÿÿÿÿÿÿÿÿÿÿÿÿÿÿÿÿÿÿÿÿÿÿÿÿÿÿÿÿÿÿÿÿÿÿÿÿÿÿÿÿÿÿÿÿÿÿÿÿÿÿÿÿÿÿÿÿÿÿÿÿÿÿÿÿÿÿÿÿÿÿÿÿÿÿÿÿÿÿÿÿÿÿÿÿÿÿÿÿÿÿÿÿÿÿÿÿÿÿÿÿÿÿÿÿÿÿÿÿÿÿÿÿÿÿÿÿÿÿÿÿÿÿÿÿÿÿÿÿÿÿÿÿÿÿÿÿÿÿÿÿÿÿÿÿÿÿÿÿÿÿÿÿÿÿÿÿÿÿÿÿÿÿÿÿÿÿÿÿÿÿÿÿÿÿÿÿÿÿÿÿÿÿÿÿÿÿÿÿÿÿÿÿÿÿÿÿÿÿÿÿÿÿÿÿÿÿÿÿÿÿÿÿÿÿÿÿÿÿÿÿÿÿÿÿÿÿÿÿÿÿÿÿÿÿÿÿÿÿÿÿÿÿÿÿÿÿÿÿÿÿÿÿÿÿÿÿÿÿÿÿÿÿÿÿÿÿÿÿÿÿÿÿÿÿÿÿÿÿÿÿÿÿÿÿÿÿÿÿÿÿÿÿÿÿÿÿÿÿÿÿÿÿÿÿÿÿÿÿÿÿÿÿÿÿÿÿÿÿÿÿÿÿÿÿÿÿÿÿÿÿÿÿÿÿÿÿÿÿÿÿÿÿÿÿÿÿXYZfile
***************************************


Your calculation utilizes the atom-pairwise dispersion correction
based on tight binding partial charges (D4)
Cite in your paper:
E.Caldeweyher, C.Bannwarth, S.Grimme, J.Chem.Phys., (2017), 147, 034112.
E.Caldeweyher, S.Ehlert, A.Hansen, H.Neugebauer, S.Grimme, J.Chem.Phys., (2018), in progress.
   

Your calculation utilizes the SMD solvation module
Please cite in your paper:
A.V. Marenich, C.J. Cramer, D.G. Truhlar J. Phys. Chem. B, 113, (2009), 6378 

================================================================================

cite the ECPs for I  [Def2-ECP] as follows:
Ce-Yb(ecp-28): M. Dolg, H. Stoll, H.Preuss, J. Chem. Phys., 1989, 90, 1730-1734.
Y-Cd(ecp-28), Hf-Hg(ecp-46): D. Andrae,U. Haeussermann, M. Dolg, H. Stoll, H. Preuss, Theor. Chim. Acta, 1990, 77, 123-141.
In-Sb(ecp-28), Tl-Bi(ecp-46): B. Metz, H. Stoll, M. Dolg, J. Chem. Phys., 2000, 113, 2563-2569.
Te-Xe(ecp-28), Po-Rn(ecp-46): K. A. Peterson, D. Figgen, E. Goll, H. Stoll, M. Dolg, J. Chem. Phys., 2003, 119, 11113-11123.
Rb(ecp-28), Cs(ecp-46): T. Leininger, A. Nicklass, W. Kuechle, H. Stoll, M. Dolg, A. Bergner, Chem. Phys. Lett., 1996, 255, 274-280.
Sr(ecp-28), Ba(ecp-46): M. Kaupp, P. V. Schleyer, H. Stoll and H. Preuss, J. Chem. Phys., 1991, 94, 1360-1366.
La(ecp-46): M. Dolg, H. Stoll, A. Savin, H. Preuss, Theor. Chim. Acta, 1989, 75, 173-194.
Lu(ecp-28): X. Cao, M. Dolg, J. Chem. Phys., 2001, 115, 7348-7355.

ECP parameters for I  [Def2-ECP] have been obtained from:
TURBOMOLE (7.0.2)

----- Orbital basis set information -----
Your calculation utilizes the basis: def2-TZVP
   F. Weigend and R. Ahlrichs, Phys. Chem. Chem. Phys. 7, 3297 (2005).

----- AuxJ basis set information -----
Your calculation utilizes the auxiliary basis: def2/J
   F. Weigend, Phys. Chem. Chem. Phys. 8, 1057 (2006).

================================================================================
                                        WARNINGS
                       Please study these warnings very carefully!
================================================================================

INFO   : Checking CIS options ...

INFO   : the flag for use of the SHARK integral package has been found!

================================================================================
                                       INPUT FILE
================================================================================
NAME = iod.inp
|  1> !BP86 def2-SVP D4 OPT FREQ
|  2> 
|  3> %base "first_job"
|  4> 
|  5> %CPCM
|  6> smdsolvent "water"
|  7> end
|  8> 
|  9> *xyz 0 1
| 10> I 0 0 0
| 11> I 1 0 0
| 12> *
| 13> 
| 14> $new_job
| 15> 
| 16> !B3PW91 def2-TZVP D4
| 17> 
| 18> %base "uv_vis_spectra"
| 19> 
| 20> %maxcore 2000
| 21> 
| 22> %tddft
| 23> nroots 150
| 24> maxdim 5
| 25> end
| 26> 
| 27> %CPCM smd true
| 28> smdsolvent "water"
| 29> end
| 30> 
| 31> * XYZfile 0 1 "first_job.xyz""                         ****END OF INPUT****
================================================================================


                 $$$$$$$$$$$$$$$$$$$$$$$$$$$$$$$$$$$$$$$$$$$$$$ 
                 $ THERE ARE  2 JOBS TO BE PROCESSED THIS RUN $
                 $$$$$$$$$$$$$$$$$$$$$$$$$$$$$$$$$$$$$$$$$$$$$$ 




                 $$$$$$$$$$$$$$$$  JOB NUMBER  1 $$$$$$$$$$$$$$


                       *****************************
                       * Geometry Optimization Run *
                       *****************************

Geometry optimization settings:
Update method            Update   .... BFGS
Choice of coordinates    CoordSys .... Z-matrix Internals
Initial Hessian          InHess   .... Almoef's Model

Convergence Tolerances:
Energy Change            TolE     ....  5.0000e-06 Eh
Max. Gradient            TolMAXG  ....  3.0000e-04 Eh/bohr
RMS Gradient             TolRMSG  ....  1.0000e-04 Eh/bohr
Max. Displacement        TolMAXD  ....  4.0000e-03 bohr
RMS Displacement         TolRMSD  ....  2.0000e-03 bohr
Strict Convergence                ....  False
------------------------------------------------------------------------------
                        ORCA OPTIMIZATION COORDINATE SETUP
------------------------------------------------------------------------------

The optimization will be done in new redundant internal coordinates
Making redundant internal coordinates   ...  (new redundants) done
Evaluating the initial hessian          ...  (Almloef) done
Evaluating the coordinates              ...  done
Calculating the B-matrix                .... done
Calculating the G-matrix                .... done
Diagonalizing the G-matrix              .... done
The first mode is                       ....    0
The number of degrees of freedom        ....    1

    -----------------------------------------------------------------
                    Redundant Internal Coordinates


    -----------------------------------------------------------------
         Definition                    Initial Value    Approx d2E/dq
    -----------------------------------------------------------------
      1. B(I   1,I   0)                  1.0000        29.576485   
    -----------------------------------------------------------------

Number of atoms                         .... 2
Number of degrees of freedom            .... 1

         *************************************************************
         *                GEOMETRY OPTIMIZATION CYCLE   1            *
         *************************************************************
---------------------------------
CARTESIAN COORDINATES (ANGSTROEM)
---------------------------------
  I      0.000000    0.000000    0.000000
  I      1.000000    0.000000    0.000000

----------------------------
CARTESIAN COORDINATES (A.U.)
----------------------------
  NO LB      ZA    FRAG     MASS         X           Y           Z
   0 I    25.0000*   0   126.900    0.000000    0.000000    0.000000
   1 I    25.0000*   0   126.900    1.889726    0.000000    0.000000
* core charge reduced due to ECP

--------------------------------
INTERNAL COORDINATES (ANGSTROEM)
--------------------------------
 I      0   0   0     0.000000000000     0.00000000     0.00000000
 I      1   0   0     1.000000000000     0.00000000     0.00000000

---------------------------
INTERNAL COORDINATES (A.U.)
---------------------------
 I      0   0   0     0.000000000000     0.00000000     0.00000000
 I      1   0   0     1.889726133921     0.00000000     0.00000000

---------------------
BASIS SET INFORMATION
---------------------
There are 1 groups of distinct atoms

 Group   1 Type I   : 10s7p6d contracted to 4s4p2d pattern {6211/4111/51}

Atom   0I    basis set group =>   1
Atom   1I    basis set group =>   1
---------------------------------
AUXILIARY/J BASIS SET INFORMATION
---------------------------------
There are 1 groups of distinct atoms

 Group   1 Type I   : 11s5p5d3f1g contracted to 8s4p3d2f1g pattern {41111111/2111/311/21/1}

Atom   0I    basis set group =>   1
Atom   1I    basis set group =>   1
-------------------------
ECP PARAMETER INFORMATION
-------------------------

 Group 1, Type I  ECP Def2-ECP (replacing 28 core electrons, lmax=3)

Atom   0I    ECP group =>   1
Atom   1I    ECP group =>   1

------------------------------------------------------------------------------
                           ORCA GTO INTEGRAL CALCULATION
                           -- RI-GTO INTEGRALS CHOSEN --
------------------------------------------------------------------------------
------------------------------------------------------------------------------
                   ___                                                        
                  /   \      - P O W E R E D   B Y -                         
                 /     \                                                     
                 |  |  |   _    _      __       _____    __    __             
                 |  |  |  | |  | |    /  \     |  _  \  |  |  /  |          
                  \  \/   | |  | |   /    \    | | | |  |  | /  /          
                 / \  \   | |__| |  /  /\  \   | |_| |  |  |/  /          
                |  |  |   |  __  | /  /__\  \  |    /   |      \           
                |  |  |   | |  | | |   __   |  |    \   |  |\   \          
                \     /   | |  | | |  |  |  |  | |\  \  |  | \   \       
                 \___/    |_|  |_| |__|  |__|  |_| \__\ |__|  \__/        
                                                                              
                      - O R C A' S   B I G   F R I E N D -                    
                                      &                                       
                       - I N T E G R A L  F E E D E R -                       
                                                                              
 v1 FN, 2020, v2 2021                                                         
------------------------------------------------------------------------------


Reading SHARK input file first_job.SHARKINP.tmp ... ok
----------------------
SHARK INTEGRAL PACKAGE
----------------------

Number of atoms                             ...      2
Number of basis functions                   ...     52
Number of shells                            ...     20
Maximum angular momentum                    ...      2
Integral batch strategy                     ... SHARK/LIBINT Hybrid
RI-J (if used) integral strategy            ... SPLIT-RIJ (Revised 2003 algorithm where possible)
Printlevel                                  ...      1
Contraction scheme used                     ... SEGMENTED contraction
Coulomb Range Separation                    ... NOT USED
Exchange Range Separation                   ... NOT USED
Finite Nucleus Model                        ... NOT USED
Auxiliary Coulomb fitting basis             ... AVAILABLE
   # of basis functions in Aux-J            ...    116
   # of shells in Aux-J                     ...     36
   Maximum angular momentum in Aux-J        ...      4
Auxiliary J/K fitting basis                 ... NOT available
Auxiliary Correlation fitting basis         ... NOT available
Auxiliary 'external' fitting basis          ... NOT available
Integral threshold                          ...     2.500000e-11
Primitive cut-off                           ...     2.500000e-12
Primitive pair pre-selection threshold      ...     2.500000e-12

Calculating pre-screening integrals         ... done (  0.1 sec) Dimension = 20
Organizing shell pair data                  ... done (  0.0 sec)
Shell pair information
Total number of shell pairs                 ...       210
Shell pairs after pre-screening             ...       210
Total number of primitive shell pairs       ...      1145
Primitive shell pairs kept                  ...      1100
          la=0 lb=0:     36 shell pairs
          la=1 lb=0:     64 shell pairs
          la=1 lb=1:     36 shell pairs
          la=2 lb=0:     32 shell pairs
          la=2 lb=1:     32 shell pairs
          la=2 lb=2:     10 shell pairs

Calculating one electron integrals          ... done (  0.0 sec)
Calculating ECP integrals                   ... done (  0.3 sec)
Calculating RI/J V-Matrix + Cholesky decomp.... done (  0.0 sec)
Calculating Nuclear repulsion               ... done (  0.0 sec) ENN=    330.735755187500 Eh

SHARK setup successfully completed in   0.8 seconds

Maximum memory used throughout the entire GTOINT-calculation: 13.0 MB
-------------------------------------------------------------------------------
                                 ORCA SCF
-------------------------------------------------------------------------------

------------
SCF SETTINGS
------------
Hamiltonian:
 Density Functional     Method          .... DFT(GTOs)
 Exchange Functional    Exchange        .... B88
   X-Alpha parameter    XAlpha          ....  0.666667
   Becke's b parameter  XBeta           ....  0.004200
 Correlation Functional Correlation     .... P86
 LDA part of GGA corr.  LDAOpt          .... PW91-LDA
 Gradients option       PostSCFGGA      .... off
   Density functional embedding theory  .... OFF
   NL short-range parameter             ....  4.400000
 RI-approximation to the Coulomb term is turned on
   Number of AuxJ basis functions       .... 116


General Settings:
 Integral files         IntName         .... first_job
 Hartree-Fock type      HFTyp           .... RHF
 Total Charge           Charge          ....    0
 Multiplicity           Mult            ....    1
 Number of Electrons    NEL             ....   50
 Basis Dimension        Dim             ....   52
 Nuclear Repulsion      ENuc            ....    330.7357551875 Eh

Convergence Acceleration:
 DIIS                   CNVDIIS         .... on
   Start iteration      DIISMaxIt       ....    12
   Startup error        DIISStart       ....  0.200000
   # of expansion vecs  DIISMaxEq       ....     5
   Bias factor          DIISBfac        ....   1.050
   Max. coefficient     DIISMaxC        ....  10.000
 Trust-Rad. Augm. Hess. CNVTRAH         .... auto
   Auto Start mean grad. ratio tolernc. ....  1.125000
   Auto Start start iteration           ....    20
   Auto Start num. interpolation iter.  ....    10
   Max. Number of Micro iterations      ....    16
   Max. Number of Macro iterations      .... Maxiter - #DIIS iter
   Number of Davidson start vectors     ....     2
   Converg. threshold I  (grad. norm)   ....   1.000e-05
   Converg. threshold II (energy diff.) ....   1.000e-08
   Grad. Scal. Fac. for Micro threshold ....   0.100
   Minimum threshold for Micro iter.    ....   0.010
   NR start threshold (gradient norm)   ....   0.001
   Initial trust radius                 ....   0.400
   Minimum AH scaling param. (alpha)    ....   1.000
   Maximum AH scaling param. (alpha)    .... 1000.000
   Orbital update algorithm             .... Taylor
   White noise on init. David. guess    .... on
   Maximum white noise                  ....   0.010
   Quad. conv. algorithm                .... NR
 SOSCF                  CNVSOSCF        .... on
   Start iteration      SOSCFMaxIt      ....   150
   Startup grad/error   SOSCFStart      ....  0.003300
 Level Shifting         CNVShift        .... on
   Level shift para.    LevelShift      ....    0.2500
   Turn off err/grad.   ShiftErr        ....    0.0010
 Zerner damping         CNVZerner       .... off
 Static damping         CNVDamp         .... on
   Fraction old density DampFac         ....    0.7000
   Max. Damping (<1)    DampMax         ....    0.9800
   Min. Damping (>=0)   DampMin         ....    0.0000
   Turn off err/grad.   DampErr         ....    0.1000
 Fernandez-Rico         CNVRico         .... off

SCF Procedure:
 Maximum # iterations   MaxIter         ....   125
 SCF integral mode      SCFMode         .... Direct
   Integral package                     .... SHARK and LIBINT hybrid scheme
 Reset frequency        DirectResetFreq ....    20
 Integral Threshold     Thresh          ....  2.500e-11 Eh
 Primitive CutOff       TCut            ....  2.500e-12 Eh

Convergence Tolerance:
 Convergence Check Mode ConvCheckMode   .... Total+1el-Energy
 Convergence forced     ConvForced      .... 0
 Energy Change          TolE            ....  1.000e-08 Eh
 1-El. energy change                    ....  1.000e-05 Eh
 Orbital Gradient       TolG            ....  1.000e-05
 Orbital Rotation angle TolX            ....  1.000e-05
 DIIS Error             TolErr          ....  5.000e-07


Diagonalization of the overlap matrix:
Smallest eigenvalue                        ... 2.779e-04
Time for diagonalization                   ...    0.006 sec
Threshold for overlap eigenvalues          ... 1.000e-08
Number of eigenvalues below threshold      ... 0
Time for construction of square roots      ...    0.005 sec
Total time needed                          ...    0.011 sec

Time for model grid setup =    0.144 sec

------------------------------
INITIAL GUESS: MODEL POTENTIAL
------------------------------
Loading Hartree-Fock densities                     ... done
  calling orca first_job_atom53.inp > first_job_atom53.out in order to generate an atomic fitting density for atom 0 (I  with ECP) on-the-fly... 
    atom 0 (I ), assumed electronic state with S=2: 1s2 2s2 2p6 3s2 3p6 4s2 3d10 4p6 5s2 4d10 5p5           ... done
Calculating cut-offs                               ... done
Initializing the effective Hamiltonian             ... done
Setting up the integral package (SHARK)            ... done
Starting the Coulomb interaction                   ... done (   0.7 sec)
Reading the grid                                   ... done
Mapping shells                                     ... done
Starting the XC term evaluation                    ... done (   0.1 sec)
  promolecular density results
     # of electrons  =    106.000973137
     EX              =   -349.844712769
     EC              =     -6.683406488
     EX+EC           =   -356.528119258
Transforming the Hamiltonian                       ... done (   0.0 sec)
Diagonalizing the Hamiltonian                      ... done (   0.0 sec)
Back transforming the eigenvectors                 ... done (   0.0 sec)
Now organizing SCF variables                       ... done
                      ------------------
                      INITIAL GUESS DONE (  11.2 sec)
                      ------------------
-------------------
DFT GRID GENERATION
-------------------

General Integration Accuracy     IntAcc      ... 4.388
Radial Grid Type                 RadialGrid  ... OptM3 with GC (2021)
Angular Grid (max. ang.)         AngularGrid ... 4 (Lebedev-302)
Angular grid pruning method      GridPruning ... 4 (adaptive)
Weight generation scheme         WeightScheme... Becke
Basis function cutoff            BFCut       ... 1.0000e-11
Integration weight cutoff        WCut        ... 1.0000e-14
Angular grids for H and He will be reduced by one unit
Partially contracted basis set               ... off
Rotationally invariant grid construction     ... off

Total number of grid points                  ...    23542
Total number of batches                      ...      368
Average number of points per batch           ...       63
Average number of grid points per atom       ...    11771
Time for grid setup =    0.519 sec


--------------------
CPCM SOLVATION MODEL
--------------------
CPCM parameters:
  Epsilon                                         ...     INFINITY
  Refrac                                          ...       1.0000
  Rsolv                                           ...       1.3000
  Surface type                                    ... GAUSSIAN VDW
  Epsilon function type                           ...         CPCM
Radii:
 Radius for I  used is    4.4900 Bohr (=   2.3760 Ang.)
Calculating surface                               ...        done! (  0.0s)
GEPOL surface points                              ...          194
GEPOL Volume                                      ...     496.4467
GEPOL Surface-area                                ...     306.5908
Calculating surface distance matrix               ...        done! (  0.0s)
Performing Cholesky decomposition & store         ...        done! (  0.0s)
Overall time for CPCM initialization              ...                 0.0s
--------------
SCF ITERATIONS
--------------
ITER       Energy         Delta-E        Max-DP      RMS-DP      [F,P]     Damp
               ***  Starting incremental Fock matrix formation  ***
  0   -581.4042721822   0.000000000000 0.27009253  0.01965011  0.4392793 0.7000
  1   -581.4468000183  -0.042527836147 0.18592956  0.01401639  0.2953011 0.7000
                               ***Turning on DIIS***
  2   -581.4732729661  -0.026472947767 0.11346414  0.00830392  0.1986712 0.7000
  3   -581.4904432151  -0.017170249068 0.05467414  0.00375345  0.1345453 0.7000
  4   -581.5021183508  -0.011675135622 0.12038082  0.00781531  0.0940192 0.0000
                      *** Initiating the SOSCF procedure ***
                           *** Shutting down DIIS ***
                      *** Re-Reading the Fockian *** 
                      *** Removing any level shift *** 
ITER      Energy       Delta-E        Grad      Rot      Max-DP    RMS-DP
  5   -581.52870496  -0.0265866070  0.001462  0.001462  0.019634  0.001462
               *** Restarting incremental Fock matrix formation ***
  6   -581.52872614  -0.0000211864  0.000612  0.001155  0.019292  0.000942
  7   -581.52872670  -0.0000005566  0.000618  0.000598  0.008817  0.000431
  8   -581.52873079  -0.0000040846  0.000014  0.000012  0.000131  0.000010
  9   -581.52873079  -0.0000000014  0.000003  0.000002  0.000031  0.000002
                 **** Energy Check signals convergence ****
              ***Rediagonalizing the Fockian in SOSCF/NRSCF***

               *****************************************************
               *                     SUCCESS                       *
               *           SCF CONVERGED AFTER  10 CYCLES          *
               *****************************************************


----------------
TOTAL SCF ENERGY
----------------

Total Energy       :         -581.52873079 Eh          -15824.20125 eV

Components:
Nuclear Repulsion  :          330.73575519 Eh            8999.77744 eV
Electronic Energy  :         -912.26448597 Eh          -24823.97869 eV
One Electron Energy:        -1639.16109606 Eh          -44603.84104 eV
Two Electron Energy:          726.89661009 Eh           19779.86235 eV
CPCM Dielectric    :           -0.01340911 Eh              -0.36488 eV

Virial components:
Potential Energy   :         -830.15226078 Eh          -22589.59145 eV
Kinetic Energy     :          248.62353000 Eh            6765.39020 eV
Virial Ratio       :            3.33899314


DFT components:
N(Alpha)           :       24.999992820138 electrons
N(Beta)            :       24.999992820138 electrons
N(Total)           :       49.999985640276 electrons
E(X)               :      -44.563807836788 Eh       
E(C)               :       -2.565599820441 Eh       
E(XC)              :      -47.129407657229 Eh       
DFET-embed. en.    :        0.000000000000 Eh       
CPCM Solvation Model Properties:
Surface-charge          :           -0.02643514
Charge-correction       :            0.00039677 Eh               0.01080 eV
Free-energy (cav+disp)  :  This term is not implemented in the current solvation scheme

---------------
SCF CONVERGENCE
---------------

  Last Energy change         ...   -6.8326e-11  Tolerance :   1.0000e-08
  Last MAX-Density change    ...    2.8408e-05  Tolerance :   1.0000e-07
  Last RMS-Density change    ...    9.7936e-07  Tolerance :   5.0000e-09
  Last Orbital Gradient      ...    2.6956e-07  Tolerance :   1.0000e-05
  Last Orbital Rotation      ...    3.1640e-07  Tolerance :   1.0000e-05

================================================================================
                                        WARNING
Check your MOs and check whether a frozen core calculation is appropriate
MO 0 should be a I  s core orbital but seems to be delocalized with a I  p orbital (66.2% vs. 27.9%)
================================================================================
================================================================================
                                        WARNING
Check your MOs and check whether a frozen core calculation is appropriate
MO 2 should be a I  p core orbital but seems to be delocalized with a I  s orbital (58.1% vs. 35.0%)
================================================================================
             **** THE GBW FILE WAS UPDATED (first_job.gbw) ****
             **** DENSITY first_job.scfp WAS UPDATED ****
             **** ENERGY FILE WAS UPDATED (first_job.en.tmp) ****
             **** THE GBW FILE WAS UPDATED (first_job.gbw) ****
             **** DENSITY first_job.scfp WAS UPDATED ****
----------------
ORBITAL ENERGIES
----------------

  NO   OCC          E(Eh)            E(eV) 
   0   2.0000      -8.641687      -235.1523 
   1   2.0000      -7.087840      -192.8699 
   2   2.0000      -5.915423      -160.9668 
   3   2.0000      -5.766099      -156.9035 
   4   2.0000      -5.766099      -156.9035 
   5   2.0000      -5.192945      -141.3072 
   6   2.0000      -5.192945      -141.3072 
   7   2.0000      -4.772195      -129.8580 
   8   2.0000      -2.978189       -81.0406 
   9   2.0000      -2.978189       -81.0406 
  10   2.0000      -2.843106       -77.3649 
  11   2.0000      -2.582190       -70.2650 
  12   2.0000      -2.582187       -70.2649 
  13   2.0000      -2.258759       -61.4640 
  14   2.0000      -2.258754       -61.4638 
  15   2.0000      -1.993328       -54.2412 
  16   2.0000      -1.993328       -54.2412 
  17   2.0000      -1.727503       -47.0077 
  18   2.0000      -1.106102       -30.0986 
  19   2.0000      -0.662544       -18.0287 
  20   2.0000      -0.662544       -18.0287 
  21   2.0000      -0.507577       -13.8119 
  22   2.0000      -0.230171        -6.2633 
  23   2.0000      -0.124450        -3.3864 
  24   2.0000      -0.124450        -3.3864 
  25   0.0000       0.047403         1.2899 
  26   0.0000       0.047429         1.2906 
  27   0.0000       0.080764         2.1977 
  28   0.0000       0.108885         2.9629 
  29   0.0000       0.130574         3.5531 
  30   0.0000       0.130574         3.5531 
  31   0.0000       0.299857         8.1595 
  32   0.0000       0.344377         9.3710 
  33   0.0000       0.379124        10.3165 
  34   0.0000       0.379124        10.3165 
  35   0.0000       0.405989        11.0475 
  36   0.0000       0.405989        11.0475 
  37   0.0000       0.442012        12.0278 
  38   0.0000       0.442027        12.0282 
  39   0.0000       0.637350        17.3432 
  40   0.0000       0.684509        18.6264 
  41   0.0000       0.807221        21.9656 
  42   0.0000       0.807221        21.9656 
  43   0.0000       1.552005        42.2322 
  44   0.0000      17.535031       477.1524 
  45   0.0000      17.535031       477.1524 
  46   0.0000      18.136922       493.5307 
  47   0.0000      19.409061       528.1474 
  48   0.0000      19.409061       528.1474 
  49   0.0000      23.273791       633.3120 
  50   0.0000      55.790489      1518.1364 
  51   0.0000      56.472524      1536.6955 

                    ********************************
                    * MULLIKEN POPULATION ANALYSIS *
                    ********************************

-----------------------
MULLIKEN ATOMIC CHARGES
-----------------------
   0 I :    0.000000
   1 I :   -0.000000
Sum of atomic charges:    0.0000000

--------------------------------
MULLIKEN REDUCED ORBITAL CHARGES
--------------------------------
  0 I s       :     4.140868  s :     4.140868
      pz      :     4.035754  p :    11.113503
      px      :     3.041996
      py      :     4.035754
      dz2     :     1.954284  d :     9.745629
      dxz     :     1.964246
      dyz     :     2.000000
      dx2y2   :     1.862852
      dxy     :     1.964246
  1 I s       :     4.140868  s :     4.140868
      pz      :     4.035754  p :    11.113503
      px      :     3.041996
      py      :     4.035754
      dz2     :     1.954284  d :     9.745629
      dxz     :     1.964246
      dyz     :     2.000000
      dx2y2   :     1.862852
      dxy     :     1.964246


                     *******************************
                     * LOEWDIN POPULATION ANALYSIS *
                     *******************************

----------------------
LOEWDIN ATOMIC CHARGES
----------------------
   0 I :    0.000000
   1 I :   -0.000000

-------------------------------
LOEWDIN REDUCED ORBITAL CHARGES
-------------------------------
  0 I s       :     3.231389  s :     3.231389
      pz      :     3.503536  p :    10.635140
      px      :     3.628068
      py      :     3.503536
      dz2     :     2.035136  d :    11.133471
      dxz     :     2.496464
      dyz     :     2.000000
      dx2y2   :     2.105407
      dxy     :     2.496464
  1 I s       :     3.231389  s :     3.231389
      pz      :     3.503536  p :    10.635140
      px      :     3.628068
      py      :     3.503536
      dz2     :     2.035136  d :    11.133471
      dxz     :     2.496464
      dyz     :     2.000000
      dx2y2   :     2.105407
      dxy     :     2.496464


                      *****************************
                      * MAYER POPULATION ANALYSIS *
                      *****************************

  NA   - Mulliken gross atomic population
  ZA   - Total nuclear charge
  QA   - Mulliken gross atomic charge
  VA   - Mayer's total valence
  BVA  - Mayer's bonded valence
  FA   - Mayer's free valence

  ATOM       NA         ZA         QA         VA         BVA        FA
  0 I     25.0000    25.0000     0.0000     2.4640     2.4640     0.0000
  1 I     25.0000    25.0000    -0.0000     2.4640     2.4640     0.0000

  Mayer bond orders larger than 0.100000
B(  0-I ,  1-I ) :   2.4640 

-------
TIMINGS
-------

Total SCF time: 0 days 0 hours 0 min 21 sec 

Total time                  ....      21.438 sec
Sum of individual times     ....      21.086 sec  ( 98.4%)

Fock matrix formation       ....       9.136 sec  ( 42.6%)
  Split-RI-J                ....       0.527 sec  (  5.8% of F)
  XC integration            ....       4.645 sec  ( 50.8% of F)
    Basis function eval.    ....       0.784 sec  ( 16.9% of XC)
    Density eval.           ....       0.626 sec  ( 13.5% of XC)
    XC-Functional eval.     ....       0.374 sec  (  8.1% of XC)
    XC-Potential eval.      ....       0.371 sec  (  8.0% of XC)
Diagonalization             ....       0.008 sec  (  0.0%)
Density matrix formation    ....       0.001 sec  (  0.0%)
Population analysis         ....       0.043 sec  (  0.2%)
Initial guess               ....      11.103 sec  ( 51.8%)
Orbital Transformation      ....       0.000 sec  (  0.0%)
Orbital Orthonormalization  ....       0.000 sec  (  0.0%)
DIIS solution               ....       0.106 sec  (  0.5%)
SOSCF solution              ....       0.026 sec  (  0.1%)
Grid generation             ....       0.663 sec  (  3.1%)

Maximum memory used throughout the entire SCF-calculation: 20.7 MB


-------------------------------------------------------------------------------
                          DFT DISPERSION CORRECTION                            
                                                                               
                                 DFTD4 V2.5                                    
-------------------------------------------------------------------------------
The BP86 functional is recognized
Active option DFTDOPT                   ...         5   

Starting D4
-------------------------   ----------------
Dispersion correction           -0.003061638
-------------------------   ----------------


-------------------------   --------------------
FINAL SINGLE POINT ENERGY      -581.531792424440
-------------------------   --------------------

------------------------------------------------------------------------------
                         ORCA SCF GRADIENT CALCULATION
------------------------------------------------------------------------------

Gradient of the Kohn-Sham DFT energy:
Kohn-Sham wavefunction type      ... RKS
Hartree-Fock exchange scaling    ...    0.000
Number of operators              ...    1
Number of atoms                  ...    2
Basis set dimensions             ...   52
Integral neglect threshold       ... 2.5e-11
Integral primitive cutoff        ... 2.5e-12
SHARK Integral package           ... ON

Nuc. rep. gradient       (SHARK) ... done (  0.0 sec)
HCore & Overlap gradient (SHARK) ... done (  0.0 sec)
ECP gradient             (SHARK) ... done (  0.3 sec)
RI-J gradient            (SHARK) ... done (  0.7 sec)
Exchange-correlation gradient    ... done
Dispersion correction            ... Starting D4


------------------- 
Dispersion Gradient 
------------------- 
   1  :   -0.000000200    0.000000000    0.000000000
   2  :    0.000000200    0.000000000    0.000000000

  |G| =    0.000000282

done

------------------
CARTESIAN GRADIENT
------------------

   1   I   :   32.540542872    0.000000001    0.000000003
   2   I   :  -32.540542872   -0.000000001   -0.000000003

Difference to translation invariance:
           :    0.0000000000   -0.0000000000   -0.0000000000

Difference to rotation invariance:
           :    0.0000000000    0.0000000051   -0.0000000014

Norm of the cartesian gradient     ...   46.0192770561
RMS gradient                       ...   18.7872911865
MAX gradient                       ...   32.5405428716

-------
TIMINGS
-------

Total SCF gradient time            ...        1.967 sec

One electron gradient       ....       0.288 sec  ( 14.6%)
RI-J Coulomb gradient       ....       0.651 sec  ( 33.1%)
XC gradient                 ....       0.554 sec  ( 28.2%)
CPCM gradient               ....       0.094 sec  (  4.8%)
   A-Matrix (El+Nuc)        ....       0.005 sec  (  0.3%)
   Potential                ....       0.089 sec  (  4.5%)

Maximum memory used throughout the entire SCFGRAD-calculation: 35.6 MB
------------------------------------------------------------------------------
                         ORCA GEOMETRY RELAXATION STEP
------------------------------------------------------------------------------

Reading the OPT-File                    .... done
Getting information on internals        .... done
Copying old internal coords+grads       .... done
Making the new internal coordinates     .... (new redundants).... done
Validating the new internal coordinates .... (new redundants).... done
Calculating the B-matrix                .... done
Calculating the G,G- and P matrices     .... done
Transforming gradient to internals      .... done
Projecting the internal gradient        .... done
Number of atoms                         ....   2
Number of internal coordinates          ....   1
Current Energy                          ....  -581.531792424 Eh
Current gradient norm                   ....    46.019277056 Eh/bohr
Maximum allowed component of the step   ....  0.300
Current trust radius                    ....  0.300
Evaluating the initial hessian          ....  (Almloef) done
Projecting the Hessian                  .... done
Forming the augmented Hessian           .... done
Diagonalizing the augmented Hessian     .... done
Last element of RFO vector              ....  0.840754242
Lowest eigenvalues of augmented Hessian:
 -20.954995301
Length of the computed step             ....  0.643965756
Warning: the length of the step is outside the trust region - taking restricted step instead
The input lambda is                     ....   -20.954995
   iter:   1  x=  -40.737347  g=    0.016413 f(x)=     0.324692
   iter:   2  x=  -61.120701  g=    0.006092 f(x)=     0.124175
   iter:   3  x=  -74.763082  g=    0.002839 f(x)=     0.038725
   iter:   4  x=  -78.659229  g=    0.001864 f(x)=     0.007264
   iter:   5  x=  -78.891243  g=    0.001670 f(x)=     0.000388
   iter:   6  x=  -78.891991  g=    0.001660 f(x)=     0.000001
   iter:   7  x=  -78.891991  g=    0.001659 f(x)=     0.000000
   iter:   8  x=  -78.891991  g=    0.001659 f(x)=     0.000000
The output lambda is                    ....   -78.891991 (8 iterations)
The final length of the internal step   ....  0.300000000
Converting the step to cartesian space:
 Initial RMS(Int)=    0.3000000000
Transforming coordinates:
 Iter   0:  RMS(Cart)=    0.0577350269 RMS(Int)=    0.2000000000
 Iter   1:  RMS(Cart)=    0.0288675135 RMS(Int)=    0.1000000000
 Iter   2:  RMS(Cart)=    0.0000000000 RMS(Int)=    0.0000000000
done
Storing new coordinates                 .... done

                                .--------------------.
          ----------------------|Geometry convergence|-------------------------
          Item                value                   Tolerance       Converged
          ---------------------------------------------------------------------
          RMS gradient       32.5405428716            0.0001000000      NO
          MAX gradient       32.5405428716            0.0003000000      NO
          RMS step            0.3000000000            0.0020000000      NO
          MAX step            0.3000000000            0.0040000000      NO
          ........................................................
          Max(Bonds)      0.1588      Max(Angles)    0.00
          Max(Dihed)        0.00      Max(Improp)    0.00
          ---------------------------------------------------------------------

The optimization has not yet converged - more geometry cycles are needed


    ---------------------------------------------------------------------------
                         Redundant Internal Coordinates
                            (Angstroem and degrees)

        Definition                    Value    dE/dq     Step     New-Value
    ----------------------------------------------------------------------------
     1. B(I   1,I   0)                1.0000 -32.540543  0.1588    1.1588   
    ----------------------------------------------------------------------------

         *************************************************************
         *                GEOMETRY OPTIMIZATION CYCLE   2            *
         *************************************************************
---------------------------------
CARTESIAN COORDINATES (ANGSTROEM)
---------------------------------
  I     -0.079377    0.000000    0.000000
  I      1.079377    0.000000    0.000000

----------------------------
CARTESIAN COORDINATES (A.U.)
----------------------------
  NO LB      ZA    FRAG     MASS         X           Y           Z
   0 I    25.0000*   0   126.900   -0.150000    0.000000    0.000000
   1 I    25.0000*   0   126.900    2.039726    0.000000    0.000000
* core charge reduced due to ECP

--------------------------------
INTERNAL COORDINATES (ANGSTROEM)
--------------------------------
 I      0   0   0     0.000000000000     0.00000000     0.00000000
 I      1   0   0     1.158753162490     0.00000000     0.00000000

---------------------------
INTERNAL COORDINATES (A.U.)
---------------------------
 I      0   0   0     0.000000000000     0.00000000     0.00000000
 I      1   0   0     2.189726133921     0.00000000     0.00000000

------------------------------------------------------------------------------
                   ___                                                        
                  /   \      - P O W E R E D   B Y -                         
                 /     \                                                     
                 |  |  |   _    _      __       _____    __    __             
                 |  |  |  | |  | |    /  \     |  _  \  |  |  /  |          
                  \  \/   | |  | |   /    \    | | | |  |  | /  /          
                 / \  \   | |__| |  /  /\  \   | |_| |  |  |/  /          
                |  |  |   |  __  | /  /__\  \  |    /   |      \           
                |  |  |   | |  | | |   __   |  |    \   |  |\   \          
                \     /   | |  | | |  |  |  |  | |\  \  |  | \   \       
                 \___/    |_|  |_| |__|  |__|  |_| \__\ |__|  \__/        
                                                                              
                      - O R C A' S   B I G   F R I E N D -                    
                                      &                                       
                       - I N T E G R A L  F E E D E R -                       
                                                                              
 v1 FN, 2020, v2 2021                                                         
------------------------------------------------------------------------------


Reading SHARK input file first_job.SHARKINP.tmp ... ok
----------------------
SHARK INTEGRAL PACKAGE
----------------------

Number of atoms                             ...      2
Number of basis functions                   ...     52
Number of shells                            ...     20
Maximum angular momentum                    ...      2
Integral batch strategy                     ... SHARK/LIBINT Hybrid
RI-J (if used) integral strategy            ... SPLIT-RIJ (Revised 2003 algorithm where possible)
Printlevel                                  ...      1
Contraction scheme used                     ... SEGMENTED contraction
Coulomb Range Separation                    ... NOT USED
Exchange Range Separation                   ... NOT USED
Finite Nucleus Model                        ... NOT USED
Auxiliary Coulomb fitting basis             ... AVAILABLE
   # of basis functions in Aux-J            ...    116
   # of shells in Aux-J                     ...     36
   Maximum angular momentum in Aux-J        ...      4
Auxiliary J/K fitting basis                 ... NOT available
Auxiliary Correlation fitting basis         ... NOT available
Auxiliary 'external' fitting basis          ... NOT available
Integral threshold                          ...     2.500000e-11
Primitive cut-off                           ...     2.500000e-12
Primitive pair pre-selection threshold      ...     2.500000e-12

Calculating pre-screening integrals         ... done (  0.1 sec) Dimension = 20
Organizing shell pair data                  ... done (  0.0 sec)
Shell pair information
Total number of shell pairs                 ...       210
Shell pairs after pre-screening             ...       210
Total number of primitive shell pairs       ...      1145
Primitive shell pairs kept                  ...      1082
          la=0 lb=0:     36 shell pairs
          la=1 lb=0:     64 shell pairs
          la=1 lb=1:     36 shell pairs
          la=2 lb=0:     32 shell pairs
          la=2 lb=1:     32 shell pairs
          la=2 lb=2:     10 shell pairs

Calculating one electron integrals          ... done (  0.0 sec)
Calculating ECP integrals                   ... done (  0.1 sec)
Calculating RI/J V-Matrix + Cholesky decomp.... done (  0.0 sec)
Calculating Nuclear repulsion               ... done (  0.0 sec) ENN=    285.423820960104 Eh

SHARK setup successfully completed in   0.3 seconds

Maximum memory used throughout the entire GTOINT-calculation: 12.9 MB

Diagonalization of the overlap matrix:
Smallest eigenvalue                        ... 6.005e-04
Time for diagonalization                   ...    0.007 sec
Threshold for overlap eigenvalues          ... 1.000e-08
Number of eigenvalues below threshold      ... 0
Time for construction of square roots      ...    0.002 sec
Total time needed                          ...    0.009 sec

-------------------
DFT GRID GENERATION
-------------------

General Integration Accuracy     IntAcc      ... 4.388
Radial Grid Type                 RadialGrid  ... OptM3 with GC (2021)
Angular Grid (max. ang.)         AngularGrid ... 4 (Lebedev-302)
Angular grid pruning method      GridPruning ... 4 (adaptive)
Weight generation scheme         WeightScheme... Becke
Basis function cutoff            BFCut       ... 1.0000e-11
Integration weight cutoff        WCut        ... 1.0000e-14
Angular grids for H and He will be reduced by one unit
Partially contracted basis set               ... off
Rotationally invariant grid construction     ... off

Total number of grid points                  ...    23562
Total number of batches                      ...      370
Average number of points per batch           ...       63
Average number of grid points per atom       ...    11781
Time for grid setup =    0.330 sec


--------------------
CPCM SOLVATION MODEL
--------------------
CPCM parameters:
  Epsilon                                         ...     INFINITY
  Refrac                                          ...       1.0000
  Rsolv                                           ...       1.3000
  Surface type                                    ... GAUSSIAN VDW
  Epsilon function type                           ...         CPCM
Radii:
 Radius for I  used is    4.4900 Bohr (=   2.3760 Ang.)
Calculating surface                               ...        done! (  0.0s)
GEPOL surface points                              ...          194
GEPOL Volume                                      ...     515.0113
GEPOL Surface-area                                ...     315.3791
Calculating surface distance matrix               ...        done! (  0.0s)
Performing Cholesky decomposition & store         ...        done! (  0.0s)
Overall time for CPCM initialization              ...                 0.0s
--------------
SCF ITERATIONS
--------------
ITER       Energy         Delta-E        Max-DP      RMS-DP      [F,P]     Damp
               ***  Starting incremental Fock matrix formation  ***
  0   -588.0222784476   0.000000000000 0.38832334  0.01512550  0.6562483 0.7000
  1   -588.1074851896  -0.085206742014 0.27177025  0.01053371  0.4612148 0.7000
  2   -588.1650028670  -0.057517677421 0.16471641  0.00638622  0.3236756 0.7000
  3   -588.2045736414  -0.039570774452 0.09760906  0.00391533  0.2269972 0.7000
                               ***Turning on DIIS***
  4   -588.2321757225  -0.027602081078 0.05928730  0.00255201  0.1590599 0.7000
  5   -588.2514840787  -0.019308356183 0.03366861  0.00168456  0.1113824 0.7000
  6   -588.2649942495  -0.013510170769 0.07824846  0.00405073  0.0779345 0.0000
                      *** Initiating the SOSCF procedure ***
                           *** Shutting down DIIS ***
                      *** Re-Reading the Fockian *** 
                      *** Removing any level shift *** 
ITER      Energy       Delta-E        Grad      Rot      Max-DP    RMS-DP
  7   -588.29649886  -0.0315046133  0.000230  0.000230  0.004099  0.000228
               *** Restarting incremental Fock matrix formation ***
  8   -588.29649914  -0.0000002813  0.000183  0.000340  0.003558  0.000186
  9   -588.29649916  -0.0000000196  0.000180  0.000169  0.001755  0.000091
 10   -588.29649958  -0.0000004205  0.000003  0.000004  0.000022  0.000002
                  ***Gradient check signals convergence***
              ***Rediagonalizing the Fockian in SOSCF/NRSCF***

               *****************************************************
               *                     SUCCESS                       *
               *           SCF CONVERGED AFTER  11 CYCLES          *
               *****************************************************

Total Energy       :         -588.29649958 Eh          -16008.36160 eV
  Last Energy change         ...   -5.9458e-11  Tolerance :   1.0000e-08
  Last MAX-Density change    ...    1.1325e-05  Tolerance :   1.0000e-07
================================================================================
                                        WARNING
Check your MOs and check whether a frozen core calculation is appropriate
MO 0 should be a I  s core orbital but seems to be delocalized with a I  p orbital (82.2% vs. 15.1%)
================================================================================
================================================================================
                                        WARNING
Check your MOs and check whether a frozen core calculation is appropriate
MO 2 should be a I  p core orbital but seems to be delocalized with a I  s orbital (76.8% vs. 18.1%)
================================================================================
             **** THE GBW FILE WAS UPDATED (first_job.gbw) ****
             **** DENSITY first_job.scfp WAS UPDATED ****
             **** ENERGY FILE WAS UPDATED (first_job.en.tmp) ****
             **** THE GBW FILE WAS UPDATED (first_job.gbw) ****
             **** DENSITY first_job.scfp WAS UPDATED ****
Total SCF time: 0 days 0 hours 0 min 5 sec 

Maximum memory used throughout the entire SCF-calculation: 20.5 MB


-------------------------------------------------------------------------------
                          DFT DISPERSION CORRECTION                            
                                                                               
                                 DFTD4 V2.5                                    
-------------------------------------------------------------------------------
Starting D4
-------------------------   ----------------
Dispersion correction           -0.003061545
-------------------------   ----------------


-------------------------   --------------------
FINAL SINGLE POINT ENERGY      -588.299561129532
-------------------------   --------------------

------------------------------------------------------------------------------
                         ORCA SCF GRADIENT CALCULATION
------------------------------------------------------------------------------

Gradient of the Kohn-Sham DFT energy:
Kohn-Sham wavefunction type      ... RKS
Hartree-Fock exchange scaling    ...    0.000
Number of operators              ...    1
Number of atoms                  ...    2
Basis set dimensions             ...   52
Integral neglect threshold       ... 2.5e-11
Integral primitive cutoff        ... 2.5e-12
SHARK Integral package           ... ON

Nuc. rep. gradient       (SHARK) ... done (  0.0 sec)
HCore & Overlap gradient (SHARK) ... done (  0.0 sec)
ECP gradient             (SHARK) ... done (  0.2 sec)
RI-J gradient            (SHARK) ... done (  1.6 sec)
Exchange-correlation gradient    ... done
Dispersion correction            ... Starting D4


------------------- 
Dispersion Gradient 
------------------- 
   1  :   -0.000000442    0.000000000    0.000000000
   2  :    0.000000442    0.000000000    0.000000000

  |G| =    0.000000625

done

------------------
CARTESIAN GRADIENT
------------------

   1   I   :   15.179419364   -0.000000001   -0.000000001
   2   I   :  -15.179419364    0.000000001    0.000000001

Difference to translation invariance:
           :   -0.0000000000   -0.0000000000   -0.0000000000

Difference to rotation invariance:
           :    0.0000000000   -0.0000000018    0.0000000012

Norm of the cartesian gradient     ...   21.4669407335
RMS gradient                       ...    8.7638418559
MAX gradient                       ...   15.1794193640

-------
TIMINGS
-------

Total SCF gradient time            ...        2.983 sec

One electron gradient       ....       0.229 sec  (  7.7%)
RI-J Coulomb gradient       ....       1.648 sec  ( 55.2%)
XC gradient                 ....       0.571 sec  ( 19.1%)
CPCM gradient               ....       0.091 sec  (  3.1%)
   A-Matrix (El+Nuc)        ....       0.008 sec  (  0.3%)
   Potential                ....       0.083 sec  (  2.8%)

Maximum memory used throughout the entire SCFGRAD-calculation: 35.5 MB
------------------------------------------------------------------------------
                         ORCA GEOMETRY RELAXATION STEP
------------------------------------------------------------------------------

Reading the OPT-File                    .... done
Getting information on internals        .... done
Copying old internal coords+grads       .... done
Making the new internal coordinates     .... (new redundants).... done
Validating the new internal coordinates .... (new redundants).... done
Calculating the B-matrix                .... done
Calculating the G,G- and P matrices     .... done
Transforming gradient to internals      .... done
Projecting the internal gradient        .... done
Number of atoms                         ....   2
Number of internal coordinates          ....   1
Current Energy                          ....  -588.299561130 Eh
Current gradient norm                   ....    21.466940733 Eh/bohr
Maximum allowed component of the step   ....  0.300
Current trust radius                    ....  0.300
Updating the Hessian (BFGS)             .... done
Forming the augmented Hessian           .... done
Diagonalizing the augmented Hessian     .... done
Last element of RFO vector              ....  0.970964343
Lowest eigenvalues of augmented Hessian:
 -3.739875020
Length of the computed step             ....  0.246378002
The final length of the internal step   ....  0.246378002
Converting the step to cartesian space:
 Initial RMS(Int)=    0.2463780023
Transforming coordinates:
 Iter   0:  RMS(Cart)=    0.0577350269 RMS(Int)=    0.2000000000
 Iter   1:  RMS(Cart)=    0.0133881761 RMS(Int)=    0.0463780023
 Iter   2:  RMS(Cart)=    0.0000000000 RMS(Int)=    0.0000000000
done
Storing new coordinates                 .... done

                                .--------------------.
          ----------------------|Geometry convergence|-------------------------
          Item                value                   Tolerance       Converged
          ---------------------------------------------------------------------
          Energy change      -6.7677687051            0.0000050000      NO
          RMS gradient       15.1794193640            0.0001000000      NO
          MAX gradient       15.1794193640            0.0003000000      NO
          RMS step            0.2463780023            0.0020000000      NO
          MAX step            0.2463780023            0.0040000000      NO
          ........................................................
          Max(Bonds)      0.1304      Max(Angles)    0.00
          Max(Dihed)        0.00      Max(Improp)    0.00
          ---------------------------------------------------------------------

The optimization has not yet converged - more geometry cycles are needed


    ---------------------------------------------------------------------------
                         Redundant Internal Coordinates
                            (Angstroem and degrees)

        Definition                    Value    dE/dq     Step     New-Value
    ----------------------------------------------------------------------------
     1. B(I   1,I   0)                1.1588 -15.179419  0.1304    1.2891   
    ----------------------------------------------------------------------------

         *************************************************************
         *                GEOMETRY OPTIMIZATION CYCLE   3            *
         *************************************************************
---------------------------------
CARTESIAN COORDINATES (ANGSTROEM)
---------------------------------
  I     -0.144565    0.000000    0.000000
  I      1.144565    0.000000    0.000000

----------------------------
CARTESIAN COORDINATES (A.U.)
----------------------------
  NO LB      ZA    FRAG     MASS         X           Y           Z
   0 I    25.0000*   0   126.900   -0.273189    0.000000    0.000000
   1 I    25.0000*   0   126.900    2.162915    0.000000    0.000000
* core charge reduced due to ECP

--------------------------------
INTERNAL COORDINATES (ANGSTROEM)
--------------------------------
 I      0   0   0     0.000000000000     0.00000000     0.00000000
 I      1   0   0     1.289130785957     0.00000000     0.00000000

---------------------------
INTERNAL COORDINATES (A.U.)
---------------------------
 I      0   0   0     0.000000000000     0.00000000     0.00000000
 I      1   0   0     2.436104136266     0.00000000     0.00000000

------------------------------------------------------------------------------
                   ___                                                        
                  /   \      - P O W E R E D   B Y -                         
                 /     \                                                     
                 |  |  |   _    _      __       _____    __    __             
                 |  |  |  | |  | |    /  \     |  _  \  |  |  /  |          
                  \  \/   | |  | |   /    \    | | | |  |  | /  /          
                 / \  \   | |__| |  /  /\  \   | |_| |  |  |/  /          
                |  |  |   |  __  | /  /__\  \  |    /   |      \           
                |  |  |   | |  | | |   __   |  |    \   |  |\   \          
                \     /   | |  | | |  |  |  |  | |\  \  |  | \   \       
                 \___/    |_|  |_| |__|  |__|  |_| \__\ |__|  \__/        
                                                                              
                      - O R C A' S   B I G   F R I E N D -                    
                                      &                                       
                       - I N T E G R A L  F E E D E R -                       
                                                                              
 v1 FN, 2020, v2 2021                                                         
------------------------------------------------------------------------------


Reading SHARK input file first_job.SHARKINP.tmp ... ok
----------------------
SHARK INTEGRAL PACKAGE
----------------------

Number of atoms                             ...      2
Number of basis functions                   ...     52
Number of shells                            ...     20
Maximum angular momentum                    ...      2
Integral batch strategy                     ... SHARK/LIBINT Hybrid
RI-J (if used) integral strategy            ... SPLIT-RIJ (Revised 2003 algorithm where possible)
Printlevel                                  ...      1
Contraction scheme used                     ... SEGMENTED contraction
Coulomb Range Separation                    ... NOT USED
Exchange Range Separation                   ... NOT USED
Finite Nucleus Model                        ... NOT USED
Auxiliary Coulomb fitting basis             ... AVAILABLE
   # of basis functions in Aux-J            ...    116
   # of shells in Aux-J                     ...     36
   Maximum angular momentum in Aux-J        ...      4
Auxiliary J/K fitting basis                 ... NOT available
Auxiliary Correlation fitting basis         ... NOT available
Auxiliary 'external' fitting basis          ... NOT available
Integral threshold                          ...     2.500000e-11
Primitive cut-off                           ...     2.500000e-12
Primitive pair pre-selection threshold      ...     2.500000e-12

Calculating pre-screening integrals         ... done (  0.2 sec) Dimension = 20
Organizing shell pair data                  ... done (  0.1 sec)
Shell pair information
Total number of shell pairs                 ...       210
Shell pairs after pre-screening             ...       210
Total number of primitive shell pairs       ...      1145
Primitive shell pairs kept                  ...      1068
          la=0 lb=0:     36 shell pairs
          la=1 lb=0:     64 shell pairs
          la=1 lb=1:     36 shell pairs
          la=2 lb=0:     32 shell pairs
          la=2 lb=1:     32 shell pairs
          la=2 lb=2:     10 shell pairs

Calculating one electron integrals          ... done (  0.0 sec)
Calculating ECP integrals                   ... done (  0.1 sec)
Calculating RI/J V-Matrix + Cholesky decomp.... done (  0.0 sec)
Calculating Nuclear repulsion               ... done (  0.0 sec) ENN=    256.557176967783 Eh

SHARK setup successfully completed in   0.8 seconds

Maximum memory used throughout the entire GTOINT-calculation: 12.9 MB

Diagonalization of the overlap matrix:
Smallest eigenvalue                        ... 1.061e-03
Time for diagonalization                   ...    0.008 sec
Threshold for overlap eigenvalues          ... 1.000e-08
Number of eigenvalues below threshold      ... 0
Time for construction of square roots      ...    0.004 sec
Total time needed                          ...    0.012 sec

-------------------
DFT GRID GENERATION
-------------------

General Integration Accuracy     IntAcc      ... 4.388
Radial Grid Type                 RadialGrid  ... OptM3 with GC (2021)
Angular Grid (max. ang.)         AngularGrid ... 4 (Lebedev-302)
Angular grid pruning method      GridPruning ... 4 (adaptive)
Weight generation scheme         WeightScheme... Becke
Basis function cutoff            BFCut       ... 1.0000e-11
Integration weight cutoff        WCut        ... 1.0000e-14
Angular grids for H and He will be reduced by one unit
Partially contracted basis set               ... off
Rotationally invariant grid construction     ... off

Total number of grid points                  ...    23564
Total number of batches                      ...      370
Average number of points per batch           ...       63
Average number of grid points per atom       ...    11782
Time for grid setup =    0.687 sec


--------------------
CPCM SOLVATION MODEL
--------------------
CPCM parameters:
  Epsilon                                         ...     INFINITY
  Refrac                                          ...       1.0000
  Rsolv                                           ...       1.3000
  Surface type                                    ... GAUSSIAN VDW
  Epsilon function type                           ...         CPCM
Radii:
 Radius for I  used is    4.4900 Bohr (=   2.3760 Ang.)
Calculating surface                               ...        done! (  0.0s)
GEPOL surface points                              ...          194
GEPOL Volume                                      ...     529.8558
GEPOL Surface-area                                ...     322.4656
Calculating surface distance matrix               ...        done! (  0.0s)
Performing Cholesky decomposition & store         ...        done! (  0.0s)
Overall time for CPCM initialization              ...                 0.0s
--------------
SCF ITERATIONS
--------------
ITER       Energy         Delta-E        Max-DP      RMS-DP      [F,P]     Damp
               ***  Starting incremental Fock matrix formation  ***
  0   -591.0862902754   0.000000000000 0.12844412  0.00537878  0.3982755 0.7000
  1   -591.1111277869  -0.024837511540 0.08897565  0.00380739  0.2800555 0.7000
                               ***Turning on DIIS***
  2   -591.1278048667  -0.016677079773 0.05277341  0.00233335  0.1965879 0.7000
  3   -591.1392684589  -0.011463592271 0.02386121  0.00132698  0.1378804 0.7000
  4   -591.1472661169  -0.007997657912 0.05756264  0.00312688  0.0964182 0.0000
                      *** Initiating the SOSCF procedure ***
                           *** Shutting down DIIS ***
                      *** Re-Reading the Fockian *** 
                      *** Removing any level shift *** 
ITER      Energy       Delta-E        Grad      Rot      Max-DP    RMS-DP
  5   -591.16589670  -0.0186305790  0.000772  0.000772  0.012363  0.000657
               *** Restarting incremental Fock matrix formation ***
  6   -591.16589748  -0.0000007820  0.000768  0.001339  0.011151  0.000617
  7   -591.16589748  -0.0000000042  0.000770  0.000670  0.005591  0.000309
  8   -591.16590595  -0.0000084651  0.000004  0.000006  0.000030  0.000002
                  ***Gradient check signals convergence***
              ***Rediagonalizing the Fockian in SOSCF/NRSCF***

               *****************************************************
               *                     SUCCESS                       *
               *           SCF CONVERGED AFTER   9 CYCLES          *
               *****************************************************

Total Energy       :         -591.16590595 Eh          -16086.44212 eV
  Last Energy change         ...   -1.5689e-10  Tolerance :   1.0000e-08
  Last MAX-Density change    ...    1.1862e-05  Tolerance :   1.0000e-07
================================================================================
                                        WARNING
Check your MOs and check whether a frozen core calculation is appropriate
MO 2 should be a I  p core orbital but seems to be delocalized with a I  s orbital (89.0% vs.  7.7%)
================================================================================
             **** THE GBW FILE WAS UPDATED (first_job.gbw) ****
             **** DENSITY first_job.scfp WAS UPDATED ****
             **** ENERGY FILE WAS UPDATED (first_job.en.tmp) ****
             **** THE GBW FILE WAS UPDATED (first_job.gbw) ****
             **** DENSITY first_job.scfp WAS UPDATED ****
Total SCF time: 0 days 0 hours 0 min 9 sec 

Maximum memory used throughout the entire SCF-calculation: 20.5 MB


-------------------------------------------------------------------------------
                          DFT DISPERSION CORRECTION                            
                                                                               
                                 DFTD4 V2.5                                    
-------------------------------------------------------------------------------
Starting D4
-------------------------   ----------------
Dispersion correction           -0.003061397
-------------------------   ----------------


-------------------------   --------------------
FINAL SINGLE POINT ENERGY      -591.168967344016
-------------------------   --------------------

------------------------------------------------------------------------------
                         ORCA SCF GRADIENT CALCULATION
------------------------------------------------------------------------------

Gradient of the Kohn-Sham DFT energy:
Kohn-Sham wavefunction type      ... RKS
Hartree-Fock exchange scaling    ...    0.000
Number of operators              ...    1
Number of atoms                  ...    2
Basis set dimensions             ...   52
Integral neglect threshold       ... 2.5e-11
Integral primitive cutoff        ... 2.5e-12
SHARK Integral package           ... ON

Nuc. rep. gradient       (SHARK) ... done (  0.0 sec)
HCore & Overlap gradient (SHARK) ... done (  0.0 sec)
ECP gradient             (SHARK) ... done (  0.3 sec)
RI-J gradient            (SHARK) ... done (  0.6 sec)
Exchange-correlation gradient    ... done
Dispersion correction            ... Starting D4


------------------- 
Dispersion Gradient 
------------------- 
   1  :   -0.000000793    0.000000000    0.000000000
   2  :    0.000000793    0.000000000    0.000000000

  |G| =    0.000001122

done

------------------
CARTESIAN GRADIENT
------------------

   1   I   :    8.820661531   -0.000000001    0.000000000
   2   I   :   -8.820661531    0.000000001   -0.000000000

Difference to translation invariance:
           :   -0.0000000000   -0.0000000000    0.0000000000

Difference to rotation invariance:
           :    0.0000000000    0.0000000012    0.0000000026

Norm of the cartesian gradient     ...   12.4742991657
RMS gradient                       ...    5.0926113091
MAX gradient                       ...    8.8206615306

-------
TIMINGS
-------

Total SCF gradient time            ...        2.091 sec

One electron gradient       ....       0.325 sec  ( 15.5%)
RI-J Coulomb gradient       ....       0.572 sec  ( 27.4%)
XC gradient                 ....       0.702 sec  ( 33.6%)
CPCM gradient               ....       0.123 sec  (  5.9%)
   A-Matrix (El+Nuc)        ....       0.008 sec  (  0.4%)
   Potential                ....       0.115 sec  (  5.5%)

Maximum memory used throughout the entire SCFGRAD-calculation: 35.4 MB
------------------------------------------------------------------------------
                         ORCA GEOMETRY RELAXATION STEP
------------------------------------------------------------------------------

Reading the OPT-File                    .... done
Getting information on internals        .... done
Copying old internal coords+grads       .... done
Making the new internal coordinates     .... (new redundants).... done
[...]
      dyz     :     2.000000
      dx2y2   :     2.015754
      dxy     :     2.010185


                     *******************************
                     * LOEWDIN POPULATION ANALYSIS *
                     *******************************

----------------------
LOEWDIN ATOMIC CHARGES
----------------------
   0 I :    0.000000
   1 I :   -0.000000

-------------------------------
LOEWDIN REDUCED ORBITAL CHARGES
-------------------------------
  0 I s       :     3.945571  s :     3.945571
      pz      :     3.987552  p :    11.002452
      px      :     3.027348
      py      :     3.987552
      dz2     :     2.006770  d :    10.051978
      dxz     :     2.012448
      dyz     :     2.000000
      dx2y2   :     2.020311
      dxy     :     2.012448
  1 I s       :     3.945571  s :     3.945571
      pz      :     3.987552  p :    11.002452
      px      :     3.027348
      py      :     3.987552
      dz2     :     2.006770  d :    10.051978
      dxz     :     2.012448
      dyz     :     2.000000
      dx2y2   :     2.020311
      dxy     :     2.012448


                      *****************************
                      * MAYER POPULATION ANALYSIS *
                      *****************************

  NA   - Mulliken gross atomic population
  ZA   - Total nuclear charge
  QA   - Mulliken gross atomic charge
  VA   - Mayer's total valence
  BVA  - Mayer's bonded valence
  FA   - Mayer's free valence

  ATOM       NA         ZA         QA         VA         BVA        FA
  0 I     25.0000    25.0000     0.0000     1.0570     1.0570    -0.0000
  1 I     25.0000    25.0000    -0.0000     1.0570     1.0570    -0.0000

  Mayer bond orders larger than 0.100000
B(  0-I ,  1-I ) :   1.0570 

-------
TIMINGS
-------

Total SCF time: 0 days 0 hours 0 min 5 sec 

Total time                  ....       5.252 sec
Sum of individual times     ....       3.848 sec  ( 73.3%)

Fock matrix formation       ....       3.262 sec  ( 62.1%)
  Split-RI-J                ....       0.196 sec  (  6.0% of F)
  XC integration            ....       1.864 sec  ( 57.1% of F)
    Basis function eval.    ....       0.574 sec  ( 30.8% of XC)
    Density eval.           ....       0.351 sec  ( 18.8% of XC)
    XC-Functional eval.     ....       0.273 sec  ( 14.6% of XC)
    XC-Potential eval.      ....       0.167 sec  (  9.0% of XC)
Diagonalization             ....       0.001 sec  (  0.0%)
Density matrix formation    ....       0.001 sec  (  0.0%)
Population analysis         ....       0.264 sec  (  5.0%)
Initial guess               ....       0.003 sec  (  0.1%)
Orbital Transformation      ....       0.000 sec  (  0.0%)
Orbital Orthonormalization  ....       0.000 sec  (  0.0%)
DIIS solution               ....       0.001 sec  (  0.0%)
SOSCF solution              ....       0.032 sec  (  0.6%)
Grid generation             ....       0.284 sec  (  5.4%)

Maximum memory used throughout the entire SCF-calculation: 19.3 MB


-------------------------------------------------------------------------------
                          DFT DISPERSION CORRECTION                            
                                                                               
                                 DFTD4 V2.5                                    
-------------------------------------------------------------------------------
The BP86 functional is recognized
Active option DFTDOPT                   ...         5   

Starting D4
-------------------------   ----------------
Dispersion correction           -0.003016243
-------------------------   ----------------


-------------------------   --------------------
FINAL SINGLE POINT ENERGY      -595.702665356515
-------------------------   --------------------

                                *** OPTIMIZATION RUN DONE ***

                            ***************************************
                            *     ORCA property calculations      *
                            ***************************************

                                    ---------------------
                                    Active property flags
                                    ---------------------
   (+) Dipole Moment


------------------------------------------------------------------------------
                       ORCA ELECTRIC PROPERTIES CALCULATION
------------------------------------------------------------------------------

Dipole Moment Calculation                       ... on
Quadrupole Moment Calculation                   ... off
Polarizability Calculation                      ... off
GBWName                                         ... first_job.gbw
Electron density                                ... first_job.scfp
The origin for moment calculation is the CENTER OF MASS  = ( 0.944863,  0.000000  0.000000)

-------------
DIPOLE MOMENT
-------------
                                X             Y             Z
Electronic contribution:     -0.00000      -0.00000      -0.00000
Nuclear contribution   :     -0.00000       0.00000       0.00000
                        -----------------------------------------
Total Dipole Moment    :     -0.00000      -0.00000      -0.00000
                        -----------------------------------------
Magnitude (a.u.)       :      0.00000
Magnitude (Debye)      :      0.00000



--------------------
Rotational spectrum 
--------------------
 
Rotational constants in cm-1:     0.000000     0.035798     0.035798 
Rotational constants in MHz :     0.000000  1073.210620  1073.210620 

 Dipole components along the rotational axes: 
x,y,z [a.u.] :    -0.000000    -0.000000    -0.000000 
x,y,z [Debye]:    -0.000000    -0.000000    -0.000000 

 

-------------------------------------------------------------------------------
                               ORCA SCF HESSIAN
-------------------------------------------------------------------------------

                   --------- SHARK INITIALIZATION DONE ---------

Hessian of the Kohn-Sham DFT energy:
Kohn-Sham wavefunction type                      ... RKS
Hartree-Fock exchange scaling                    ...    0.000
Number of operators                              ...    1
Number of atoms                                  ...    2
Basis set dimensions                             ...   52
Integral neglect threshold                       ... 2.5e-11
Integral primitive cutoff                        ... 2.5e-12

Setting up DFT Hessian calculations              ... 

HESS GRID
---------

General Integration Accuracy     IntAcc      ... 4.629
Radial Grid Type                 RadialGrid  ... OptM3 with GC (2021)
Angular Grid (max. ang.)         AngularGrid ... 5 (Lebedev-434)
Angular grid pruning method      GridPruning ... 4 (adaptive)
Weight generation scheme         WeightScheme... Becke
Basis function cutoff            BFCut       ... 1.0000e-11
Integration weight cutoff        WCut        ... 1.0000e-14
Angular grids for H and He will be reduced by one unit
Partially contracted basis set               ... off
Rotationally invariant grid construction     ... off

Total number of grid points                  ...    37740
Total number of batches                      ...      590
Average number of points per batch           ...       63
Average number of grid points per atom       ...    18870

Building densities                               ... done   (      0.0 sec)
Calculating rho(r) on the grid                   ... done   (      0.2 sec)
Building xc-kernel on the grid                   ... done   (      0.1 sec)
                                                     done   (      1.1 sec)

Nuclear repulsion Hessian  (SHARK)               ... done   (      0.0 sec)

----------------------------------------------
Forming right-hand sides of CP-SCF equations     ...
----------------------------------------------
One electron integral derivatives  (SHARK)       ... done   (      0.0 sec)
C-PCM contribution to the Fock matrix derivative ... done   (      3.3 sec)
Transforming the overlap derivative matrices     ... done   (      0.2 sec)
Adding tr(S(x)F(y) C-PCM term to the hessian     ... done   (      0.0 sec)
Making the Q(x) pseudodensities                  ... done   (      0.0 sec)
Adding the E*S(x)*S(y) terms to the Hessian      ... done   (      0.0 sec)
Calculating energy weighted overlap derivatives  ... done   (      0.2 sec)
F(y): ECP integral derivatives                   ... done   (      1.3 sec)
Two electron integral derivatives (SHARK-RI)     ... done   (      0.7 sec)
Exchange-correlation integral derivatives        ... done   (      3.2 sec)
tr(F(y)Q(x)) contribution to the Hessian         ... done   (      0.0 sec)
Response fock operator R(S(x)) (SHARK-RI)        ... done   (      0.4 sec)
XC Response fock operator R(S(x))                ... done   (      0.5 sec)
tr(F(y)S(x)) contribution to the Hessian         ... done   (      0.0 sec)
Transforming and finalizing RHSs                 ... done   (      0.0 sec)

----------------------------------------------
Solving the CP-SCF equations (RI)                ...
----------------------------------------------
     CP-SCF ITERATION   0:   5.9702e-02 (   0.9 sec   0/  6 done)
     CP-SCF ITERATION   1:   2.1123e-03 (   0.8 sec   0/  6 done)
     CP-SCF ITERATION   2:   2.1842e-04 (   0.6 sec   0/  6 done)
     CP-SCF ITERATION   3:   3.2590e-05 (   1.1 sec   6/  6 done)
                    *** THE CP-SCF HAS CONVERGED ***

                                                 ... done   (      3.6 sec)
Forming perturbed density Hessian contributions  ... done   (      0.0 sec)
Calculating [Q*(d^2 A/dXdY)*Q  ] C-PCM term      ... done   (      0.0 sec)
Calculating [d^2(V_N)/(dXdY)*Q ] C-PCM term      ... done   (      0.0 sec)
Calculating [d^2(V_el)/(dXdY)*Q] C-PCM term      ... done   (      0.3 sec)
Calculating C-PCM term that depends on dQ/dX     ... done   (      0.0 sec)
2nd integral derivative contribs (SHARK-RI)      ... done   (      1.1 sec)
Exchange-correlation Hessian                     ... done   (      4.8 sec)
ECP integral 2nd derivatives                     ... done   (      2.2 sec)
Dispersion correction in the Hessian             ... Starting D4


------------------- 
Dispersion Gradient 
------------------- 
   1  :   -0.000061270    0.000000000    0.000000000
   2  :    0.000061270    0.000000000    0.000000000

  |G| =    0.000086649

Starting D4


------------------- 
Dispersion Gradient 
------------------- 
   1  :   -0.000061994    0.000000000    0.000000000
   2  :    0.000061994    0.000000000    0.000000000

  |G| =    0.000087673

Starting D4


------------------- 
Dispersion Gradient 
------------------- 
   1  :   -0.000061631    0.000000060    0.000000000
   2  :    0.000061631   -0.000000060    0.000000000

  |G| =    0.000087160

Starting D4


------------------- 
Dispersion Gradient 
------------------- 
   1  :   -0.000061631   -0.000000060    0.000000000
   2  :    0.000061631    0.000000060    0.000000000

  |G| =    0.000087160

Starting D4


------------------- 
Dispersion Gradient 
------------------- 
   1  :   -0.000061631    0.000000000    0.000000060
   2  :    0.000061631    0.000000000   -0.000000060

  |G| =    0.000087117

Starting D4


------------------- 
Dispersion Gradient 
------------------- 
   1  :   -0.000061631    0.000000000   -0.000000060
   2  :    0.000061631    0.000000000    0.000000060

  |G| =    0.000087202

Starting D4


------------------- 
Dispersion Gradient 
------------------- 
   1  :   -0.000061994    0.000000000    0.000000000
   2  :    0.000061994    0.000000000    0.000000000

  |G| =    0.000087673

Starting D4


------------------- 
Dispersion Gradient 
------------------- 
   1  :   -0.000061270    0.000000000    0.000000000
   2  :    0.000061270    0.000000000    0.000000000

  |G| =    0.000086649

Starting D4


------------------- 
Dispersion Gradient 
------------------- 
   1  :   -0.000061631   -0.000000060    0.000000000
   2  :    0.000061631    0.000000060    0.000000000

  |G| =    0.000087160

Starting D4


------------------- 
Dispersion Gradient 
------------------- 
   1  :   -0.000061631    0.000000060    0.000000000
   2  :    0.000061631   -0.000000060    0.000000000

  |G| =    0.000087160

Starting D4


------------------- 
Dispersion Gradient 
------------------- 
   1  :   -0.000061631    0.000000000   -0.000000060
   2  :    0.000061631    0.000000000    0.000000060

  |G| =    0.000087202

Starting D4


------------------- 
Dispersion Gradient 
------------------- 
   1  :   -0.000061631    0.000000000    0.000000060
   2  :    0.000061631    0.000000000   -0.000000060

  |G| =    0.000087117

done   (      2.1 sec)
Dipole derivatives                               ... (center of mass:  0.944863,  0.000000  0.000000)done   (      0.2 sec)

Total SCF Hessian time: 0 days 0 hours 0 min 26 sec 

Writing the Hessian file to the disk             ... done


Maximum memory used throughout the entire SCFHESS-calculation: 68.7 MB

-----------------------
VIBRATIONAL FREQUENCIES
-----------------------

Scaling factor for frequencies =  1.000000000  (already applied!)

   0:         0.00 cm**-1
   1:         0.00 cm**-1
   2:         0.00 cm**-1
   3:         0.00 cm**-1
   4:         0.00 cm**-1
   5:       203.75 cm**-1


------------
NORMAL MODES
------------

These modes are the Cartesian displacements weighted by the diagonal matrix
M(i,i)=1/sqrt(m[i]) where m[i] is the mass of the displaced atom
Thus, these vectors are normalized but *not* orthogonal

                  0          1          2          3          4          5    
      0       0.000000   0.000000   0.000000   0.000000   0.000000  -0.707107
      1       0.000000   0.000000   0.000000   0.000000   0.000000   0.000000
      2       0.000000   0.000000   0.000000   0.000000   0.000000   0.000000
      3       0.000000   0.000000   0.000000   0.000000   0.000000   0.707107
      4       0.000000   0.000000   0.000000   0.000000   0.000000   0.000000
      5       0.000000   0.000000   0.000000   0.000000   0.000000   0.000000


-----------
IR SPECTRUM
-----------

 Mode   freq       eps      Int      T**2         TX        TY        TZ
       cm**-1   L/(mol*cm) km/mol    a.u.
----------------------------------------------------------------------------
  5:    203.75   0.000000    0.00  0.000000  (-0.000000  0.000000 -0.000000)

* The epsilon (eps) is given for a Dirac delta lineshape.
** The dipole moment derivative (T) already includes vibrational overlap.

The first frequency considered to be a vibration is 5
The total number of vibrations considered is 1


--------------------------
THERMOCHEMISTRY AT 298.15K
--------------------------

Temperature         ... 298.15 K
Pressure            ... 1.00 atm
Total Mass          ... 253.80 AMU
The molecule is recognized as being linear

Throughout the following assumptions are being made:
  (1) The electronic state is orbitally nondegenerate
  (2) There are no thermally accessible electronically excited states
  (3) Hindered rotations indicated by low frequency modes are not
      treated as such but are treated as vibrations and this may
      cause some error
  (4) All equations used are the standard statistical mechanics
      equations for an ideal gas
  (5) All vibrations are strictly harmonic

freq.     203.75  E(vib)   ...       0.35 

------------
INNER ENERGY
------------

The inner energy is: U= E(el) + E(ZPE) + E(vib) + E(rot) + E(trans)
    E(el)   - is the total energy from the electronic structure calculation
              = E(kin-el) + E(nuc-el) + E(el-el) + E(nuc-nuc)
    E(ZPE)  - the the zero temperature vibrational energy from the frequency calculation
    E(vib)  - the the finite temperature correction to E(ZPE) due to population
              of excited vibrational states
    E(rot)  - is the rotational thermal energy
    E(trans)- is the translational thermal energy

Summary of contributions to the inner energy U:
Electronic energy                ...   -595.70266536 Eh
Zero point energy                ...      0.00046417 Eh       0.29 kcal/mol
Thermal vibrational correction   ...      0.00055490 Eh       0.35 kcal/mol
Thermal rotational correction    ...      0.00094418 Eh       0.59 kcal/mol
Thermal translational correction ...      0.00141627 Eh       0.89 kcal/mol
-----------------------------------------------------------------------
Total thermal energy                   -595.69928583 Eh


Summary of corrections to the electronic energy:
(perhaps to be used in another calculation)
Total thermal correction                  0.00291536 Eh       1.83 kcal/mol
Non-thermal (ZPE) correction              0.00046417 Eh       0.29 kcal/mol
-----------------------------------------------------------------------
Total correction                          0.00337952 Eh       2.12 kcal/mol


--------
ENTHALPY
--------

The enthalpy is H = U + kB*T
                kB is Boltzmann's constant
Total free energy                 ...   -595.69928583 Eh 
Thermal Enthalpy correction       ...      0.00094421 Eh       0.59 kcal/mol
-----------------------------------------------------------------------
Total Enthalpy                    ...   -595.69834162 Eh


Note: Rotational entropy computed according to Herzberg 
Infrared and Raman Spectra, Chapter V,1, Van Nostrand Reinhold, 1945 
Point Group:  Dinfh, Symmetry Number:   2  
Rotational constants in cm-1:     0.000000     0.035798     0.035798 

Vibrational entropy computed according to the QRRHO of S. Grimme
Chem.Eur.J. 2012 18 9955


-------
ENTROPY
-------

The entropy contributions are T*S = T*(S(el)+S(vib)+S(rot)+S(trans))
     S(el)   - electronic entropy
     S(vib)  - vibrational entropy
     S(rot)  - rotational entropy
     S(trans)- translational entropy
The entropies will be listed as multiplied by the temperature to get
units of energy

Electronic entropy                ...      0.00000000 Eh      0.00 kcal/mol
Vibrational entropy               ...      0.00099860 Eh      0.63 kcal/mol
Rotational entropy                ...      0.00846979 Eh      5.31 kcal/mol
Translational entropy             ...      0.02019032 Eh     12.67 kcal/mol
-----------------------------------------------------------------------
Final entropy term                ...      0.02965871 Eh     18.61 kcal/mol


-------------------
GIBBS FREE ENERGY
-------------------

The Gibbs free energy is G = H - T*S

Total enthalpy                    ...   -595.69834162 Eh 
Total entropy correction          ...     -0.02965871 Eh    -18.61 kcal/mol
-----------------------------------------------------------------------
Final Gibbs free energy         ...   -595.72800034 Eh

For completeness - the Gibbs free energy minus the electronic energy
G-E(el)                           ...     -0.02533498 Eh    -15.90 kcal/mol


Timings for individual modules:

Sum of individual times         ...      275.790 sec (=   4.597 min)
GTO integral calculation        ...       25.207 sec (=   0.420 min)   9.1 %
SCF iterations                  ...      146.965 sec (=   2.449 min)  53.3 %
SCF Gradient evaluation         ...       55.341 sec (=   0.922 min)  20.1 %
Geometry relaxation             ...        7.329 sec (=   0.122 min)   2.7 %
Analytical frequency calculation...       40.948 sec (=   0.682 min)  14.8 %


                 $$$$$$$$$$$$$$$$  JOB NUMBER  2 $$$$$$$$$$$$$$

