
                                 *****************
                                 * O   R   C   A *
                                 *****************

                                            #,                                       
                                            ###                                      
                                            ####                                     
                                            #####                                    
                                            ######                                   
                                           ########,                                 
                                     ,,################,,,,,                         
                               ,,#################################,,                 
                          ,,##########################################,,             
                       ,#########################################, ''#####,          
                    ,#############################################,,   '####,        
                  ,##################################################,,,,####,       
                ,###########''''           ''''###############################       
              ,#####''   ,,,,##########,,,,          '''####'''          '####       
            ,##' ,,,,###########################,,,                        '##       
           ' ,,###''''                  '''############,,,                           
         ,,##''                                '''############,,,,        ,,,,,,###''
      ,#''                                            '''#######################'''  
     '                                                          ''''####''''         
             ,#######,   #######,   ,#######,      ##                                
            ,#'     '#,  ##    ##  ,#'     '#,    #''#        ######   ,####,        
            ##       ##  ##   ,#'  ##            #'  '#       #        #'  '#        
            ##       ##  #######   ##           ,######,      #####,   #    #        
            '#,     ,#'  ##    ##  '#,     ,#' ,#      #,         ##   #,  ,#        
             '#######'   ##     ##  '#######'  #'      '#     #####' # '####'        



                  #######################################################
                  #                        -***-                        #
                  #          Department of theory and spectroscopy      #
                  #    Directorship and core code : Frank Neese         #
                  #        Max Planck Institute fuer Kohlenforschung    #
                  #                Kaiser Wilhelm Platz 1               #
                  #                 D-45470 Muelheim/Ruhr               #
                  #                      Germany                        #
                  #                                                     #
                  #                  All rights reserved                #
                  #                        -***-                        #
                  #######################################################



                         Program Version 5.0.4 -  RELEASE  -

 With contributions from (in alphabetic order):
   Daniel Aravena         : Magnetic Suceptibility
   Michael Atanasov       : Ab Initio Ligand Field Theory (pilot matlab implementation)
   Alexander A. Auer      : GIAO ZORA, VPT2 properties, NMR spectrum
   Ute Becker             : Parallelization
   Giovanni Bistoni       : ED, misc. LED, open-shell LED, HFLD
   Martin Brehm           : Molecular dynamics
   Dmytro Bykov           : SCF Hessian
   Vijay G. Chilkuri      : MRCI spin determinant printing, contributions to CSF-ICE
   Dipayan Datta          : RHF DLPNO-CCSD density
   Achintya Kumar Dutta   : EOM-CC, STEOM-CC
   Dmitry Ganyushin       : Spin-Orbit,Spin-Spin,Magnetic field MRCI
   Miquel Garcia          : C-PCM and meta-GGA Hessian, CC/C-PCM, Gaussian charge scheme
   Yang Guo               : DLPNO-NEVPT2, F12-NEVPT2, CIM, IAO-localization
   Andreas Hansen         : Spin unrestricted coupled pair/coupled cluster methods
   Benjamin Helmich-Paris : MC-RPA, TRAH-SCF, COSX integrals
   Lee Huntington         : MR-EOM, pCC
   Robert Izsak           : Overlap fitted RIJCOSX, COSX-SCS-MP3, EOM
   Marcus Kettner         : VPT2
   Christian Kollmar      : KDIIS, OOCD, Brueckner-CCSD(T), CCSD density, CASPT2, CASPT2-K
   Simone Kossmann        : Meta GGA functionals, TD-DFT gradient, OOMP2, MP2 Hessian
   Martin Krupicka        : Initial AUTO-CI
   Lucas Lang             : DCDCAS
   Marvin Lechner         : AUTO-CI (C++ implementation), FIC-MRCC
   Dagmar Lenk            : GEPOL surface, SMD
   Dimitrios Liakos       : Extrapolation schemes; Compound Job, initial MDCI parallelization
   Dimitrios Manganas     : Further ROCIS development; embedding schemes
   Dimitrios Pantazis     : SARC Basis sets
   Anastasios Papadopoulos: AUTO-CI, single reference methods and gradients
   Taras Petrenko         : DFT Hessian,TD-DFT gradient, ASA, ECA, R-Raman, ABS, FL, XAS/XES, NRVS
   Peter Pinski           : DLPNO-MP2, DLPNO-MP2 Gradient
   Christoph Reimann      : Effective Core Potentials
   Marius Retegan         : Local ZFS, SOC
   Christoph Riplinger    : Optimizer, TS searches, QM/MM, DLPNO-CCSD(T), (RO)-DLPNO pert. Triples
   Tobias Risthaus        : Range-separated hybrids, TD-DFT gradient, RPA, STAB
   Michael Roemelt        : Original ROCIS implementation
   Masaaki Saitow         : Open-shell DLPNO-CCSD energy and density
   Barbara Sandhoefer     : DKH picture change effects
   Avijit Sen             : IP-ROCIS
   Kantharuban Sivalingam : CASSCF convergence, NEVPT2, FIC-MRCI
   Bernardo de Souza      : ESD, SOC TD-DFT
   Georgi Stoychev        : AutoAux, RI-MP2 NMR, DLPNO-MP2 response
   Willem Van den Heuvel  : Paramagnetic NMR
   Boris Wezisla          : Elementary symmetry handling
   Frank Wennmohs         : Technical directorship


 We gratefully acknowledge several colleagues who have allowed us to
 interface, adapt or use parts of their codes:
   Stefan Grimme, W. Hujo, H. Kruse, P. Pracht,  : VdW corrections, initial TS optimization,
                  C. Bannwarth, S. Ehlert          DFT functionals, gCP, sTDA/sTD-DF
   Ed Valeev, F. Pavosevic, A. Kumar             : LibInt (2-el integral package), F12 methods
   Garnet Chan, S. Sharma, J. Yang, R. Olivares  : DMRG
   Ulf Ekstrom                                   : XCFun DFT Library
   Mihaly Kallay                                 : mrcc  (arbitrary order and MRCC methods)
   Jiri Pittner, Ondrej Demel                    : Mk-CCSD
   Frank Weinhold                                : gennbo (NPA and NBO analysis)
   Christopher J. Cramer and Donald G. Truhlar   : smd solvation model
   Lars Goerigk                                  : TD-DFT with DH, B97 family of functionals
   V. Asgeirsson, H. Jonsson                     : NEB implementation
   FAccTs GmbH                                   : IRC, NEB, NEB-TS, DLPNO-Multilevel, CI-OPT
                                                   MM, QMMM, 2- and 3-layer-ONIOM, Crystal-QMMM,
                                                   LR-CPCM, SF, NACMEs, symmetry and pop. for TD-DFT,
                                                   nearIR, NL-DFT gradient (VV10), updates on ESD,
                                                   ML-optimized integration grids
   S Lehtola, MJT Oliveira, MAL Marques          : LibXC Library
   Liviu Ungur et al                             : ANISO software


 Your calculation uses the libint2 library for the computation of 2-el integrals
 For citations please refer to: http://libint.valeyev.net

 Your ORCA version has been built with support for libXC version: 5.1.0
 For citations please refer to: https://tddft.org/programs/libxc/

 This ORCA versions uses:
   CBLAS   interface :  Fast vector & matrix operations
   LAPACKE interface :  Fast linear algebra routines
   Shared memory     :  Shared parallel matrices


Your calculation utilizes the atom-pairwise dispersion correction
based on tight binding partial charges (D4)
Cite in your paper:
E.Caldeweyher, C.Bannwarth, S.Grimme, J.Chem.Phys., (2017), 147, 034112.
E.Caldeweyher, S.Ehlert, A.Hansen, H.Neugebauer, S.Grimme, J.Chem.Phys., (2018), in progress.
   

================================================================================

----- Orbital basis set information -----
Your calculation utilizes the basis: def2-SVP
   F. Weigend and R. Ahlrichs, Phys. Chem. Chem. Phys. 7, 3297 (2005).

----- AuxJ basis set information -----
Your calculation utilizes the auxiliary basis: def2/J
   F. Weigend, Phys. Chem. Chem. Phys. 8, 1057 (2006).

================================================================================
                                        WARNINGS
                       Please study these warnings very carefully!
================================================================================

WARNING: Old DensityContainer found on disk!
         Will remove this file - 
         If you want to keep old densities, please start your calculation with a different basename. 


WARNING: Geometry Optimization
  ===> : Switching off AutoStart
         For restart on a previous wavefunction, please use MOREAD

INFO   : the flag for use of the SHARK integral package has been found!

================================================================================
                                       INPUT FILE
================================================================================
NAME = a_opt_2.inp
|  1> !B3LYP DEF2-SVP OPT FREQ D4 SOSCF
|  2> 
|  3> * xyz 0 1
|  4>    C       -4.88581        2.97813        0.03473
|  5>    C       -6.15078        2.35253        0.02097
|  6>    C       -6.25540        0.96266       -0.00185
|  7>    C       -5.11353        0.15496       -0.01087
|  8>    C       -3.85695        0.76914        0.00131
|  9>    C       -3.73754        2.15781        0.02411
| 10>    H       -7.05436        2.96958        0.02421
| 11>    H       -7.24833        0.50408       -0.01002
| 12>    H       -5.20137       -0.93358       -0.02623
| 13>    H       -2.95011        0.15769       -0.00441
| 14>    H       -2.74681        2.62210        0.02969
| 15>    N       -4.77529        4.34921       -0.01662
| 16>    H       -5.59728        4.92977        0.38131
| 17>    H       -3.87255        4.79152        0.38510
| 18> **                         ****END OF INPUT****
================================================================================

                       *****************************
                       * Geometry Optimization Run *
                       *****************************

Geometry optimization settings:
Update method            Update   .... BFGS
Choice of coordinates    CoordSys .... Z-matrix Internals
Initial Hessian          InHess   .... Almoef's Model

Convergence Tolerances:
Energy Change            TolE     ....  5.0000e-06 Eh
Max. Gradient            TolMAXG  ....  3.0000e-04 Eh/bohr
RMS Gradient             TolRMSG  ....  1.0000e-04 Eh/bohr
Max. Displacement        TolMAXD  ....  4.0000e-03 bohr
RMS Displacement         TolRMSD  ....  2.0000e-03 bohr
Strict Convergence                ....  False
------------------------------------------------------------------------------
                        ORCA OPTIMIZATION COORDINATE SETUP
------------------------------------------------------------------------------

The optimization will be done in new redundant internal coordinates
Making redundant internal coordinates   ...  (new redundants) done
Evaluating the initial hessian          ...  (Almloef) done
Evaluating the coordinates              ...  done
Calculating the B-matrix                .... done
Calculating the G-matrix                .... done
Diagonalizing the G-matrix              .... done
The first mode is                       ....   27
The number of degrees of freedom        ....   36

    -----------------------------------------------------------------
                    Redundant Internal Coordinates


    -----------------------------------------------------------------
         Definition                    Initial Value    Approx d2E/dq
    -----------------------------------------------------------------
      1. B(C   1,C   0)                  1.4113         0.577812   
      2. B(C   2,C   1)                  1.3940         0.615708   
      3. B(C   3,C   2)                  1.3987         0.605170   
      4. B(C   4,C   3)                  1.3987         0.605146   
      5. B(C   5,C   4)                  1.3940         0.615726   
      6. B(C   5,C   0)                  1.4112         0.577926   
      7. B(H   6,C   1)                  1.0942         0.354620   
      8. B(H   7,C   2)                  1.0937         0.355183   
      9. B(H   8,C   3)                  1.0922         0.357219   
     10. B(H   9,C   4)                  1.0937         0.355189   
     11. B(H  10,C   5)                  1.0941         0.354665   
     12. B(N  11,C   0)                  1.3765         0.588081   
     13. B(H  12,N  11)                  1.0822         0.331949   
     14. B(H  13,N  11)                  1.0826         0.331448   
     15. A(C   1,C   0,N  11)          120.8738         0.421806   
     16. A(C   5,C   0,N  11)          120.8897         0.421821   
     17. A(C   1,C   0,C   5)          118.1360         0.423247   
     18. A(C   0,C   1,H   6)          119.3524         0.347833   
     19. A(C   2,C   1,H   6)          120.0229         0.351581   
     20. A(C   0,C   1,C   2)          120.6242         0.428072   
     21. A(C   3,C   2,H   7)          119.9320         0.350651   
     22. A(C   1,C   2,H   7)          119.0972         0.351676   
     23. A(C   1,C   2,C   3)          120.9706         0.431641   
     24. A(C   2,C   3,C   4)          118.6728         0.430302   
     25. A(C   4,C   3,H   8)          120.6651         0.350988   
     26. A(C   2,C   3,H   8)          120.6621         0.350990   
     27. A(C   5,C   4,H   9)          119.0766         0.351678   
     28. A(C   3,C   4,H   9)          119.9568         0.350650   
     29. A(C   3,C   4,C   5)          120.9664         0.431640   
     30. A(C   0,C   5,H  10)          119.3449         0.347852   
     31. A(C   0,C   5,C   4)          120.6299         0.428090   
     32. A(C   4,C   5,H  10)          120.0248         0.351591   
     33. A(H  12,N  11,H  13)          106.1266         0.278965   
     34. A(C   0,N  11,H  13)          117.3923         0.339859   
     35. A(C   0,N  11,H  12)          117.3659         0.339945   
     36. D(H   6,C   1,C   0,C   5)   -179.7211         0.022930   
     37. D(C   2,C   1,C   0,C   5)      0.0284         0.022930   
     38. D(C   2,C   1,C   0,N  11)    176.4151         0.022930   
     39. D(H   6,C   1,C   0,N  11)     -3.3344         0.022930   
     40. D(C   3,C   2,C   1,C   0)      0.0381         0.026211   
     41. D(C   3,C   2,C   1,H   6)    179.7859         0.026211   
     42. D(H   7,C   2,C   1,H   6)     -0.3783         0.026211   
     43. D(H   7,C   2,C   1,C   0)    179.8738         0.026211   
     44. D(H   8,C   3,C   2,H   7)      0.0111         0.025271   
     45. D(H   8,C   3,C   2,C   1)    179.8455         0.025271   
     46. D(C   4,C   3,C   2,H   7)   -179.9359         0.025271   
     47. D(C   4,C   3,C   2,C   1)     -0.1014         0.025271   
     48. D(H   9,C   4,C   3,C   2)    179.9394         0.025269   
     49. D(C   5,C   4,C   3,H   8)   -179.8474         0.025269   
     50. D(C   5,C   4,C   3,C   2)      0.0995         0.025269   
     51. D(H   9,C   4,C   3,H   8)     -0.0075         0.025269   
     52. D(H  10,C   5,C   4,H   9)      0.3824         0.026212   
     53. D(C   0,C   5,C   4,H   9)   -179.8755         0.026212   
     54. D(C   0,C   5,C   4,C   3)     -0.0343         0.026212   
     55. D(H  10,C   5,C   0,N  11)      3.3274         0.022939   
     56. D(H  10,C   5,C   0,C   1)    179.7135         0.022939   
     57. D(H  10,C   5,C   4,C   3)   -179.7763         0.026212   
     58. D(C   4,C   5,C   0,N  11)   -176.4164         0.022939   
     59. D(C   4,C   5,C   0,C   1)     -0.0303         0.022939   
     60. D(H  13,N  11,C   0,C   5)    -27.7320         0.027789   
     61. D(H  13,N  11,C   0,C   1)    155.9811         0.027789   
     62. D(H  12,N  11,C   0,C   5)   -156.0822         0.027789   
     63. D(H  12,N  11,C   0,C   1)     27.6310         0.027789   
    -----------------------------------------------------------------

Number of atoms                         .... 14
Number of degrees of freedom            .... 63

         *************************************************************
         *                GEOMETRY OPTIMIZATION CYCLE   1            *
         *************************************************************
---------------------------------
CARTESIAN COORDINATES (ANGSTROEM)
---------------------------------
  C     -4.885810    2.978130    0.034730
  C     -6.150780    2.352530    0.020970
  C     -6.255400    0.962660   -0.001850
  C     -5.113530    0.154960   -0.010870
  C     -3.856950    0.769140    0.001310
  C     -3.737540    2.157810    0.024110
  H     -7.054360    2.969580    0.024210
  H     -7.248330    0.504080   -0.010020
  H     -5.201370   -0.933580   -0.026230
  H     -2.950110    0.157690   -0.004410
  H     -2.746810    2.622100    0.029690
  N     -4.775290    4.349210   -0.016620
  H     -5.597280    4.929770    0.381310
  H     -3.872550    4.791520    0.385100

----------------------------
CARTESIAN COORDINATES (A.U.)
----------------------------
  NO LB      ZA    FRAG     MASS         X           Y           Z
   0 C     6.0000    0    12.011   -9.232843    5.627850    0.065630
   1 C     6.0000    0    12.011  -11.623290    4.445637    0.039628
   2 C     6.0000    0    12.011  -11.820993    1.819164   -0.003496
   3 C     6.0000    0    12.011   -9.663171    0.292832   -0.020541
   4 C     6.0000    0    12.011   -7.288579    1.453464    0.002476
   5 C     6.0000    0    12.011   -7.062927    4.077670    0.045561
   6 H     1.0000    0     1.008  -13.330808    5.611693    0.045750
   7 H     1.0000    0     1.008  -13.697359    0.952573   -0.018935
   8 H     1.0000    0     1.008   -9.829165   -1.764211   -0.049568
   9 H     1.0000    0     1.008   -5.574900    0.297991   -0.008334
  10 H     1.0000    0     1.008   -5.190719    4.955051    0.056106
  11 N     7.0000    0    14.007   -9.023990    8.218816   -0.031407
  12 H     1.0000    0     1.008  -10.577326    9.315915    0.720571
  13 H     1.0000    0     1.008   -7.318059    9.054661    0.727734

--------------------------------
INTERNAL COORDINATES (ANGSTROEM)
--------------------------------
 C      0   0   0     0.000000000000     0.00000000     0.00000000
 C      1   0   0     1.411280907013     0.00000000     0.00000000
 C      2   1   0     1.393988778183   120.62421925     0.00000000
 C      3   2   1     1.398687866288   120.97063222     0.03805437
 C      4   3   2     1.398698938728   118.67282357   359.89857503
 C      5   4   3     1.393980974404   120.96636682     0.09953317
 H      2   1   3     1.094174582277   119.35243889   180.25049028
 H      3   2   1     1.093742360065   119.09720597   179.87384783
 H      4   3   2     1.092186397462   120.66209587   179.84552231
 H      5   4   3     1.093737905762   119.95684697   179.93941308
 H      6   5   4     1.094139969748   120.02476011   180.22366736
 N      1   2   3     1.376485328400   120.87375939   176.41509392
 H     12   1   2     1.082157917589   117.36587830    27.63097833
 H     12   1   2     1.082569444470   117.39230651   155.98112889

---------------------------
INTERNAL COORDINATES (A.U.)
---------------------------
 C      0   0   0     0.000000000000     0.00000000     0.00000000
 C      1   0   0     2.666934412287     0.00000000     0.00000000
 C      2   1   0     2.634257024525   120.62421925     0.00000000
 C      3   2   1     2.643137014122   120.97063222     0.03805437
 C      4   3   2     2.643157938003   118.67282357   359.89857503
 C      5   4   3     2.634242277520   120.96636682     0.09953317
 H      2   1   3     2.067690303200   119.35243889   180.25049028
 H      3   2   1     2.066873521591   119.09720597   179.87384783
 H      4   3   2     2.063933178396   120.66209587   179.84552231
 H      5   4   3     2.066865104178   119.95684697   179.93941308
 H      6   5   4     2.067624895000   120.02476011   180.22366736
 N      1   2   3     2.601180298036   120.87375939   176.41509392
 H     12   1   2     2.044982097897   117.36587830    27.63097833
 H     12   1   2     2.045759770999   117.39230651   155.98112889

---------------------
BASIS SET INFORMATION
---------------------
There are 3 groups of distinct atoms

 Group   1 Type C   : 7s4p1d contracted to 3s2p1d pattern {511/31/1}
 Group   2 Type H   : 4s1p contracted to 2s1p pattern {31/1}
 Group   3 Type N   : 7s4p1d contracted to 3s2p1d pattern {511/31/1}

Atom   0C    basis set group =>   1
Atom   1C    basis set group =>   1
Atom   2C    basis set group =>   1
Atom   3C    basis set group =>   1
Atom   4C    basis set group =>   1
Atom   5C    basis set group =>   1
Atom   6H    basis set group =>   2
Atom   7H    basis set group =>   2
Atom   8H    basis set group =>   2
Atom   9H    basis set group =>   2
Atom  10H    basis set group =>   2
Atom  11N    basis set group =>   3
Atom  12H    basis set group =>   2
Atom  13H    basis set group =>   2
---------------------------------
AUXILIARY/J BASIS SET INFORMATION
---------------------------------
There are 3 groups of distinct atoms

 Group   1 Type C   : 12s5p4d2f1g contracted to 6s4p3d1f1g pattern {711111/2111/211/2/1}
 Group   2 Type H   : 5s2p1d contracted to 3s1p1d pattern {311/2/1}
 Group   3 Type N   : 12s5p4d2f1g contracted to 6s4p3d1f1g pattern {711111/2111/211/2/1}

Atom   0C    basis set group =>   1
Atom   1C    basis set group =>   1
Atom   2C    basis set group =>   1
Atom   3C    basis set group =>   1
Atom   4C    basis set group =>   1
Atom   5C    basis set group =>   1
Atom   6H    basis set group =>   2
Atom   7H    basis set group =>   2
Atom   8H    basis set group =>   2
Atom   9H    basis set group =>   2
Atom  10H    basis set group =>   2
Atom  11N    basis set group =>   3
Atom  12H    basis set group =>   2
Atom  13H    basis set group =>   2
------------------------------------------------------------------------------
                           ORCA GTO INTEGRAL CALCULATION
                           -- RI-GTO INTEGRALS CHOSEN --
------------------------------------------------------------------------------
------------------------------------------------------------------------------
                   ___                                                        
                  /   \      - P O W E R E D   B Y -                         
                 /     \                                                     
                 |  |  |   _    _      __       _____    __    __             
                 |  |  |  | |  | |    /  \     |  _  \  |  |  /  |          
                  \  \/   | |  | |   /    \    | | | |  |  | /  /          
                 / \  \   | |__| |  /  /\  \   | |_| |  |  |/  /          
                |  |  |   |  __  | /  /__\  \  |    /   |      \           
                |  |  |   | |  | | |   __   |  |    \   |  |\   \          
                \     /   | |  | | |  |  |  |  | |\  \  |  | \   \       
                 \___/    |_|  |_| |__|  |__|  |_| \__\ |__|  \__/        
                                                                              
                      - O R C A' S   B I G   F R I E N D -                    
                                      &                                       
                       - I N T E G R A L  F E E D E R -                       
                                                                              
 v1 FN, 2020, v2 2021                                                         
------------------------------------------------------------------------------


Reading SHARK input file a_opt_2.SHARKINP.tmp ... ok
----------------------
SHARK INTEGRAL PACKAGE
----------------------

Number of atoms                             ...     14
Number of basis functions                   ...    133
Number of shells                            ...     63
Maximum angular momentum                    ...      2
Integral batch strategy                     ... SHARK/LIBINT Hybrid
RI-J (if used) integral strategy            ... SPLIT-RIJ (Revised 2003 algorithm where possible)
Printlevel                                  ...      1
Contraction scheme used                     ... SEGMENTED contraction
Coulomb Range Separation                    ... NOT USED
Exchange Range Separation                   ... NOT USED
Finite Nucleus Model                        ... NOT USED
Auxiliary Coulomb fitting basis             ... AVAILABLE
   # of basis functions in Aux-J            ...    420
   # of shells in Aux-J                     ...    140
   Maximum angular momentum in Aux-J        ...      4
Auxiliary J/K fitting basis                 ... NOT available
Auxiliary Correlation fitting basis         ... NOT available
Auxiliary 'external' fitting basis          ... NOT available
Integral threshold                          ...     2.500000e-11
Primitive cut-off                           ...     2.500000e-12
Primitive pair pre-selection threshold      ...     2.500000e-12

Calculating pre-screening integrals         ... done (  0.1 sec) Dimension = 63
Organizing shell pair data                  ... done (  0.1 sec)
Shell pair information
Total number of shell pairs                 ...      2016
Shell pairs after pre-screening             ...      1943
Total number of primitive shell pairs       ...      7252
Primitive shell pairs kept                  ...      5299
          la=0 lb=0:    606 shell pairs
          la=1 lb=0:    707 shell pairs
          la=1 lb=1:    222 shell pairs
          la=2 lb=0:    238 shell pairs
          la=2 lb=1:    142 shell pairs
          la=2 lb=2:     28 shell pairs

Calculating one electron integrals          ... done (  0.0 sec)
Calculating RI/J V-Matrix + Cholesky decomp.... done (  0.0 sec)
Calculating Nuclear repulsion               ... done (  0.0 sec) ENN=    270.128190342116 Eh

SHARK setup successfully completed in   0.5 seconds

Maximum memory used throughout the entire GTOINT-calculation: 16.6 MB
-------------------------------------------------------------------------------
                                 ORCA SCF
-------------------------------------------------------------------------------

------------
SCF SETTINGS
------------
Hamiltonian:
 Density Functional     Method          .... DFT(GTOs)
 Exchange Functional    Exchange        .... B88
   X-Alpha parameter    XAlpha          ....  0.666667
   Becke's b parameter  XBeta           ....  0.004200
 Correlation Functional Correlation     .... LYP
 LDA part of GGA corr.  LDAOpt          .... VWN-5
 Gradients option       PostSCFGGA      .... off
 Hybrid DFT is turned on
   Fraction HF Exchange ScalHFX         ....  0.200000
   Scaling of DF-GGA-X  ScalDFX         ....  0.720000
   Scaling of DF-GGA-C  ScalDFC         ....  0.810000
   Scaling of DF-LDA-C  ScalLDAC        ....  1.000000
   Perturbative correction              ....  0.000000
   Density functional embedding theory  .... OFF
   NL short-range parameter             ....  4.800000
 RI-approximation to the Coulomb term is turned on
   Number of AuxJ basis functions       .... 420
   RIJ-COSX (HFX calculated with COS-X)).... on


General Settings:
 Integral files         IntName         .... a_opt_2
 Hartree-Fock type      HFTyp           .... RHF
 Total Charge           Charge          ....    0
 Multiplicity           Mult            ....    1
 Number of Electrons    NEL             ....   50
 Basis Dimension        Dim             ....  133
 Nuclear Repulsion      ENuc            ....    270.1281903421 Eh

Convergence Acceleration:
 DIIS                   CNVDIIS         .... on
   Start iteration      DIISMaxIt       ....    12
   Startup error        DIISStart       ....  0.200000
   # of expansion vecs  DIISMaxEq       ....     5
   Bias factor          DIISBfac        ....   1.050
   Max. coefficient     DIISMaxC        ....  10.000
 Trust-Rad. Augm. Hess. CNVTRAH         .... auto
   Auto Start mean grad. ratio tolernc. ....  1.125000
   Auto Start start iteration           ....    20
   Auto Start num. interpolation iter.  ....    10
   Max. Number of Micro iterations      ....    16
   Max. Number of Macro iterations      .... Maxiter - #DIIS iter
   Number of Davidson start vectors     ....     2
   Converg. threshold I  (grad. norm)   ....   1.000e-05
   Converg. threshold II (energy diff.) ....   1.000e-08
   Grad. Scal. Fac. for Micro threshold ....   0.100
   Minimum threshold for Micro iter.    ....   0.010
   NR start threshold (gradient norm)   ....   0.001
   Initial trust radius                 ....   0.400
   Minimum AH scaling param. (alpha)    ....   1.000
   Maximum AH scaling param. (alpha)    .... 1000.000
   Orbital update algorithm             .... Taylor
   White noise on init. David. guess    .... on
   Maximum white noise                  ....   0.010
   Quad. conv. algorithm                .... NR
 SOSCF                  CNVSOSCF        .... on
   Start iteration      SOSCFMaxIt      ....   150
   Startup grad/error   SOSCFStart      ....  0.003300
 Level Shifting         CNVShift        .... on
   Level shift para.    LevelShift      ....    0.2500
   Turn off err/grad.   ShiftErr        ....    0.0010
 Zerner damping         CNVZerner       .... off
 Static damping         CNVDamp         .... on
   Fraction old density DampFac         ....    0.7000
   Max. Damping (<1)    DampMax         ....    0.9800
   Min. Damping (>=0)   DampMin         ....    0.0000
   Turn off err/grad.   DampErr         ....    0.1000
 Fernandez-Rico         CNVRico         .... off

SCF Procedure:
 Maximum # iterations   MaxIter         ....   125
 SCF integral mode      SCFMode         .... Direct
   Integral package                     .... SHARK and LIBINT hybrid scheme
 Reset frequency        DirectResetFreq ....    20
 Integral Threshold     Thresh          ....  2.500e-11 Eh
 Primitive CutOff       TCut            ....  2.500e-12 Eh

Convergence Tolerance:
 Convergence Check Mode ConvCheckMode   .... Total+1el-Energy
 Convergence forced     ConvForced      .... 0
 Energy Change          TolE            ....  1.000e-08 Eh
 1-El. energy change                    ....  1.000e-05 Eh
 Orbital Gradient       TolG            ....  1.000e-05
 Orbital Rotation angle TolX            ....  1.000e-05
 DIIS Error             TolErr          ....  5.000e-07


Diagonalization of the overlap matrix:
Smallest eigenvalue                        ... 2.906e-04
Time for diagonalization                   ...    0.010 sec
Threshold for overlap eigenvalues          ... 1.000e-08
Number of eigenvalues below threshold      ... 0
Time for construction of square roots      ...    0.005 sec
Total time needed                          ...    0.015 sec

Time for model grid setup =    0.494 sec

------------------------------
INITIAL GUESS: MODEL POTENTIAL
------------------------------
Loading Hartree-Fock densities                     ... done
Calculating cut-offs                               ... done
Initializing the effective Hamiltonian             ... done
Setting up the integral package (SHARK)            ... done
Starting the Coulomb interaction                   ... done (   0.3 sec)
Reading the grid                                   ... done
Mapping shells                                     ... done
Starting the XC term evaluation                    ... done (   0.4 sec)
  promolecular density results
     # of electrons  =     49.995585384
     EX              =    -39.467130570
     EC              =     -1.655981453
     EX+EC           =    -41.123112023
Transforming the Hamiltonian                       ... done (   0.0 sec)
Diagonalizing the Hamiltonian                      ... done (   0.0 sec)
Back transforming the eigenvectors                 ... done (   0.0 sec)
Now organizing SCF variables                       ... done
                      ------------------
                      INITIAL GUESS DONE (   1.2 sec)
                      ------------------
-------------------
DFT GRID GENERATION
-------------------

General Integration Accuracy     IntAcc      ... 4.388
Radial Grid Type                 RadialGrid  ... OptM3 with GC (2021)
Angular Grid (max. ang.)         AngularGrid ... 4 (Lebedev-302)
Angular grid pruning method      GridPruning ... 4 (adaptive)
Weight generation scheme         WeightScheme... Becke
Basis function cutoff            BFCut       ... 1.0000e-11
Integration weight cutoff        WCut        ... 1.0000e-14
Angular grids for H and He will be reduced by one unit
Partially contracted basis set               ... off
Rotationally invariant grid construction     ... off

Total number of grid points                  ...    64721
Total number of batches                      ...     1019
Average number of points per batch           ...       63
Average number of grid points per atom       ...     4623
Time for grid setup =    0.908 sec

--------------------
COSX GRID GENERATION
--------------------

GRIDX 1
-------
General Integration Accuracy     IntAcc      ... 3.816
Radial Grid Type                 RadialGrid  ... OptM3 with GC (2021)
Angular Grid (max. ang.)         AngularGrid ... 1 (Lebedev-50)
Angular grid pruning method      GridPruning ... 4 (adaptive)
Weight generation scheme         WeightScheme... Becke
Basis function cutoff            BFCut       ... 1.0000e-11
Integration weight cutoff        WCut        ... 1.0000e-14
Angular grids for H and He will be reduced by one unit
Partially contracted basis set               ... on
Rotationally invariant grid construction     ... off

Total number of grid points                  ...     8304
Total number of batches                      ...      134
Average number of points per batch           ...       61
Average number of grid points per atom       ...      593
UseSFitting                                  ... on

GRIDX 2
-------
General Integration Accuracy     IntAcc      ... 4.020
Radial Grid Type                 RadialGrid  ... OptM3 with GC (2021)
Angular Grid (max. ang.)         AngularGrid ... 2 (Lebedev-110)
Angular grid pruning method      GridPruning ... 4 (adaptive)
Weight generation scheme         WeightScheme... Becke
Basis function cutoff            BFCut       ... 1.0000e-11
Integration weight cutoff        WCut        ... 1.0000e-14
Angular grids for H and He will be reduced by one unit
Partially contracted basis set               ... on
Rotationally invariant grid construction     ... off

Total number of grid points                  ...    17998
Total number of batches                      ...      287
Average number of points per batch           ...       62
Average number of grid points per atom       ...     1286
UseSFitting                                  ... on

GRIDX 3
-------
General Integration Accuracy     IntAcc      ... 4.338
Radial Grid Type                 RadialGrid  ... OptM3 with GC (2021)
Angular Grid (max. ang.)         AngularGrid ... 3 (Lebedev-194)
Angular grid pruning method      GridPruning ... 4 (adaptive)
Weight generation scheme         WeightScheme... Becke
Basis function cutoff            BFCut       ... 1.0000e-11
Integration weight cutoff        WCut        ... 1.0000e-14
Angular grids for H and He will be reduced by one unit
Partially contracted basis set               ... on
Rotationally invariant grid construction     ... off

Total number of grid points                  ...    39565
Total number of batches                      ...      626
Average number of points per batch           ...       63
Average number of grid points per atom       ...     2826
UseSFitting                                  ... on

Time for X-Grid setup             =    1.886 sec

--------------
SCF ITERATIONS
--------------
ITER       Energy         Delta-E        Max-DP      RMS-DP      [F,P]     Damp
               ***  Starting incremental Fock matrix formation  ***
  0   -287.0170039423   0.000000000000 0.07646063  0.00311459  0.2178370 0.7000
  1   -287.1057846093  -0.088780667028 0.04385713  0.00218145  0.1048573 0.7000
                               ***Turning on DIIS***
  2   -287.1431454293  -0.037360819997 0.06458247  0.00378173  0.0359968 0.0000
  3   -287.1953610451  -0.052215615761 0.03139443  0.00128870  0.0549903 0.0000
  4   -287.2100298621  -0.014668817069 0.00700841  0.00038599  0.0095953 0.0000
  5   -287.2108315147  -0.000801652563 0.00391238  0.00014570  0.0054078 0.0000
                      *** Initiating the SOSCF procedure ***
                           *** Shutting down DIIS ***
                      *** Re-Reading the Fockian *** 
                      *** Removing any level shift *** 
ITER      Energy       Delta-E        Grad      Rot      Max-DP    RMS-DP
  6   -287.21089736  -0.0000658404  0.000254  0.000254  0.001360  0.000076
               *** Restarting incremental Fock matrix formation ***
  7   -287.21092361  -0.0000262596  0.000117  0.000544  0.000514  0.000026
  8   -287.21092316   0.0000004588  0.000260  0.000435  0.000311  0.000011
  9   -287.21092394  -0.0000007809  0.000024  0.000081  0.000095  0.000004
 10   -287.21092393   0.0000000112  0.000033  0.000051  0.000062  0.000002
 11   -287.21092395  -0.0000000243  0.000004  0.000012  0.000017  0.000001
 12   -287.21092395   0.0000000023  0.000005  0.000006  0.000011  0.000000
                 **** Energy Check signals convergence ****
              ***Rediagonalizing the Fockian in SOSCF/NRSCF***

               *****************************************************
               *                     SUCCESS                       *
               *           SCF CONVERGED AFTER  13 CYCLES          *
               *****************************************************

Old exchange energy                            =     -8.014853281 Eh
New exchange energy                            =     -8.014861148 Eh
Exchange energy change after final integration =     -0.000007868 Eh
Total energy after final integration           =   -287.210931817 Eh
Final COS-X integration done in                =     7.294 sec

----------------
TOTAL SCF ENERGY
----------------

Total Energy       :         -287.21093182 Eh           -7815.40678 eV

Components:
Nuclear Repulsion  :          270.12819034 Eh            7350.56175 eV
Electronic Energy  :         -557.33912216 Eh          -15165.96854 eV
One Electron Energy:         -921.84284904 Eh          -25084.61920 eV
Two Electron Energy:          364.50372688 Eh            9918.65066 eV
Max COSX asymmetry :            0.00000258 Eh               0.00007 eV

Virial components:
Potential Energy   :         -571.18110909 Eh          -15542.62815 eV
Kinetic Energy     :          283.97017728 Eh            7727.22137 eV
Virial Ratio       :            2.01141231


DFT components:
N(Alpha)           :       25.000007749420 electrons
N(Beta)            :       25.000007749420 electrons
N(Total)           :       50.000015498840 electrons
E(X)               :      -31.828342302159 Eh       
E(C)               :       -1.960667307216 Eh       
E(XC)              :      -33.789009609375 Eh       
DFET-embed. en.    :        0.000000000000 Eh       

---------------
SCF CONVERGENCE
---------------

  Last Energy change         ...   -2.1960e-09  Tolerance :   1.0000e-08
  Last MAX-Density change    ...    4.4409e-15  Tolerance :   1.0000e-07
  Last RMS-Density change    ...    6.3197e-17  Tolerance :   5.0000e-09
  Last Orbital Gradient      ...    1.8750e-07  Tolerance :   1.0000e-05
  Last Orbital Rotation      ...    3.6256e-07  Tolerance :   1.0000e-05

             **** THE GBW FILE WAS UPDATED (a_opt_2.gbw) ****
             **** DENSITY a_opt_2.scfp WAS UPDATED ****
             **** ENERGY FILE WAS UPDATED (a_opt_2.en.tmp) ****
             **** THE GBW FILE WAS UPDATED (a_opt_2.gbw) ****
             **** DENSITY a_opt_2.scfp WAS UPDATED ****
----------------
ORBITAL ENERGIES
----------------

  NO   OCC          E(Eh)            E(eV) 
   0   2.0000     -14.340579      -390.2270 
   1   2.0000     -10.220963      -278.1265 
   2   2.0000     -10.179593      -277.0008 
   3   2.0000     -10.179575      -277.0003 
   4   2.0000     -10.174599      -276.8649 
   5   2.0000     -10.174578      -276.8644 
   6   2.0000     -10.169317      -276.7212 
   7   2.0000      -0.899221       -24.4690 
   8   2.0000      -0.816665       -22.2226 
   9   2.0000      -0.726386       -19.7660 
  10   2.0000      -0.704779       -19.1780 
  11   2.0000      -0.596142       -16.2218 
  12   2.0000      -0.584254       -15.8984 
  13   2.0000      -0.516235       -14.0475 
  14   2.0000      -0.484717       -13.1898 
  15   2.0000      -0.468952       -12.7608 
  16   2.0000      -0.423362       -11.5203 
  17   2.0000      -0.413640       -11.2557 
  18   2.0000      -0.407767       -11.0959 
  19   2.0000      -0.377998       -10.2858 
  20   2.0000      -0.351369        -9.5612 
  21   2.0000      -0.332759        -9.0548 
  22   2.0000      -0.306601        -8.3430 
  23   2.0000      -0.244712        -6.6590 
  24   2.0000      -0.199398        -5.4259 
  25   0.0000       0.002414         0.0657 
  26   0.0000       0.015287         0.4160 
  27   0.0000       0.047028         1.2797 
  28   0.0000       0.073922         2.0115 
  29   0.0000       0.082346         2.2408 
  30   0.0000       0.120645         3.2829 
  31   0.0000       0.124524         3.3885 
  32   0.0000       0.155342         4.2271 
  33   0.0000       0.161559         4.3963 
  34   0.0000       0.167658         4.5622 
  35   0.0000       0.270676         7.3655 
  36   0.0000       0.295478         8.0404 
  37   0.0000       0.301061         8.1923 
  38   0.0000       0.305022         8.3001 
  39   0.0000       0.331771         9.0279 
  40   0.0000       0.380462        10.3529 
  41   0.0000       0.410253        11.1636 
  42   0.0000       0.421903        11.4806 
  43   0.0000       0.429093        11.6762 
  44   0.0000       0.448053        12.1921 
  45   0.0000       0.482292        13.1238 
  46   0.0000       0.503323        13.6961 
  47   0.0000       0.508284        13.8311 
  48   0.0000       0.523913        14.2564 
  49   0.0000       0.542563        14.7639 
  50   0.0000       0.546483        14.8705 
  51   0.0000       0.551317        15.0021 
  52   0.0000       0.562902        15.3173 
  53   0.0000       0.609615        16.5885 
  54   0.0000       0.623642        16.9702 
  55   0.0000       0.641406        17.4536 
  56   0.0000       0.660088        17.9619 
  57   0.0000       0.665698        18.1146 
  58   0.0000       0.677694        18.4410 
  59   0.0000       0.697902        18.9909 
  60   0.0000       0.711316        19.3559 
  61   0.0000       0.728786        19.8313 
  62   0.0000       0.742654        20.2086 
  63   0.0000       0.754645        20.5349 
  64   0.0000       0.769123        20.9289 
  65   0.0000       0.785414        21.3722 
  66   0.0000       0.819740        22.3063 
  67   0.0000       0.836309        22.7571 
  68   0.0000       0.907931        24.7061 
  69   0.0000       0.908916        24.7329 
  70   0.0000       0.981057        26.6959 
  71   0.0000       0.992326        27.0026 
  72   0.0000       1.074357        29.2347 
  73   0.0000       1.159693        31.5569 
  74   0.0000       1.182278        32.1714 
  75   0.0000       1.257054        34.2062 
  76   0.0000       1.260033        34.2872 
  77   0.0000       1.262111        34.3438 
  78   0.0000       1.281570        34.8733 
  79   0.0000       1.282590        34.9011 
  80   0.0000       1.318069        35.8665 
  81   0.0000       1.331975        36.2449 
  82   0.0000       1.494403        40.6648 
  83   0.0000       1.517920        41.3047 
  84   0.0000       1.653815        45.0026 
  85   0.0000       1.655121        45.0381 
  86   0.0000       1.675618        45.5959 
  87   0.0000       1.710957        46.5575 
  88   0.0000       1.725576        46.9553 
  89   0.0000       1.745999        47.5110 
  90   0.0000       1.758904        47.8622 
  91   0.0000       1.764696        48.0198 
  92   0.0000       1.772135        48.2222 
  93   0.0000       1.792018        48.7633 
  94   0.0000       1.796651        48.8894 
  95   0.0000       1.811656        49.2977 
  96   0.0000       1.863763        50.7156 
  97   0.0000       1.869039        50.8592 
  98   0.0000       1.881782        51.2059 
  99   0.0000       1.959440        53.3191 
 100   0.0000       1.990475        54.1636 
 101   0.0000       1.993865        54.2558 
 102   0.0000       2.020307        54.9754 
 103   0.0000       2.032293        55.3015 
 104   0.0000       2.092755        56.9468 
 105   0.0000       2.115294        57.5601 
 106   0.0000       2.145216        58.3743 
 107   0.0000       2.147442        58.4349 
 108   0.0000       2.194229        59.7080 
 109   0.0000       2.251317        61.2615 
 110   0.0000       2.294750        62.4433 
 111   0.0000       2.301594        62.6295 
 112   0.0000       2.326622        63.3106 
 113   0.0000       2.344145        63.7874 
 114   0.0000       2.355368        64.0928 
 115   0.0000       2.508106        68.2490 
 116   0.0000       2.519861        68.5689 
 117   0.0000       2.593291        70.5670 
 118   0.0000       2.626582        71.4729 
 119   0.0000       2.652199        72.1700 
 120   0.0000       2.723031        74.0974 
 121   0.0000       2.730699        74.3061 
 122   0.0000       2.747056        74.7512 
 123   0.0000       2.858541        77.7849 
 124   0.0000       2.882926        78.4484 
 125   0.0000       2.923619        79.5557 
 126   0.0000       2.936219        79.8986 
 127   0.0000       2.968547        80.7783 
 128   0.0000       3.106200        84.5240 
 129   0.0000       3.177598        86.4668 
 130   0.0000       3.193430        86.8977 
 131   0.0000       3.439218        93.5859 
 132   0.0000       3.651965        99.3750 

                    ********************************
                    * MULLIKEN POPULATION ANALYSIS *
                    ********************************

-----------------------
MULLIKEN ATOMIC CHARGES
-----------------------
   0 C :    0.074603
   1 C :   -0.027135
   2 C :    0.014764
   3 C :    0.011106
   4 C :    0.014599
   5 C :   -0.026730
   6 H :   -0.047668
   7 H :   -0.022929
   8 H :   -0.027503
   9 H :   -0.022761
  10 H :   -0.047977
  11 N :   -0.143451
  12 H :    0.125494
  13 H :    0.125587
Sum of atomic charges:    0.0000000

--------------------------------
MULLIKEN REDUCED ORBITAL CHARGES
--------------------------------
  0 C s       :     2.974072  s :     2.974072
      pz      :     0.954321  p :     2.889926
      px      :     1.025757
      py      :     0.909848
      dz2     :     0.004310  d :     0.061399
      dxz     :     0.006633
      dyz     :     0.015572
      dx2y2   :     0.019157
      dxy     :     0.015727
  1 C s       :     3.218778  s :     3.218778
      pz      :     1.069352  p :     2.775959
      px      :     0.843525
      py      :     0.863082
      dz2     :     0.002621  d :     0.032398
      dxz     :     0.003160
      dyz     :     0.004840
      dx2y2   :     0.009367
      dxy     :     0.012410
  2 C s       :     3.162055  s :     3.162055
      pz      :     0.976092  p :     2.787207
      px      :     0.867353
      py      :     0.943762
      dz2     :     0.002542  d :     0.035974
      dxz     :     0.003123
      dyz     :     0.006955
      dx2y2   :     0.011742
      dxy     :     0.011612
  3 C s       :     3.152070  s :     3.152070
      pz      :     1.040922  p :     2.802662
      px      :     0.951454
      py      :     0.810286
      dz2     :     0.002524  d :     0.034162
      dxz     :     0.005891
      dyz     :     0.002390
      dx2y2   :     0.012574
      dxy     :     0.010784
  4 C s       :     3.162225  s :     3.162225
      pz      :     0.976089  p :     2.787199
      px      :     0.882386
      py      :     0.928724
      dz2     :     0.002543  d :     0.035977
      dxz     :     0.003884
      dyz     :     0.006194
      dx2y2   :     0.010914
      dxy     :     0.012440
  5 C s       :     3.218624  s :     3.218624
      pz      :     1.069333  p :     2.775706
      px      :     0.816810
      py      :     0.889563
      dz2     :     0.002620  d :     0.032399
      dxz     :     0.002686
      dyz     :     0.005315
      dx2y2   :     0.009495
      dxy     :     0.012284
  6 H s       :     1.024782  s :     1.024782
      pz      :     0.005284  p :     0.022886
      px      :     0.010967
      py      :     0.006635
  7 H s       :     1.000206  s :     1.000206
      pz      :     0.004673  p :     0.022723
      px      :     0.012599
      py      :     0.005451
  8 H s       :     1.004583  s :     1.004583
      pz      :     0.005189  p :     0.022919
      px      :     0.003286
      py      :     0.014444
  9 H s       :     1.000040  s :     1.000040
      pz      :     0.004673  p :     0.022721
      px      :     0.011061
      py      :     0.006987
 10 H s       :     1.025087  s :     1.025087
      pz      :     0.005284  p :     0.022890
      px      :     0.012479
      py      :     0.005128
 11 N s       :     3.379568  s :     3.379568
      pz      :     1.645218  p :     3.746735
      px      :     1.035973
      py      :     1.065545
      dz2     :     0.001248  d :     0.017148
      dxz     :     0.003228
      dyz     :     0.003971
      dx2y2   :     0.004366
      dxy     :     0.004335
 12 H s       :     0.834393  s :     0.834393
      pz      :     0.012326  p :     0.040112
      px      :     0.016528
      py      :     0.011258
 13 H s       :     0.834332  s :     0.834332
      pz      :     0.012344  p :     0.040080
      px      :     0.018559
      py      :     0.009178


                     *******************************
                     * LOEWDIN POPULATION ANALYSIS *
                     *******************************

----------------------
LOEWDIN ATOMIC CHARGES
----------------------
   0 C :    0.012989
   1 C :   -0.069022
   2 C :   -0.017159
   3 C :   -0.062981
   4 C :   -0.017172
   5 C :   -0.068979
   6 H :    0.019181
   7 H :    0.025134
   8 H :    0.022156
   9 H :    0.025168
  10 H :    0.019136
  11 N :   -0.071048
  12 H :    0.091227
  13 H :    0.091370

-------------------------------
LOEWDIN REDUCED ORBITAL CHARGES
-------------------------------
  0 C s       :     2.838264  s :     2.838264
      pz      :     0.941197  p :     3.002420
      px      :     1.095725
      py      :     0.965498
      dz2     :     0.009491  d :     0.146327
      dxz     :     0.013657
      dyz     :     0.031910
      dx2y2   :     0.050262
      dxy     :     0.041007
  1 C s       :     2.861028  s :     2.861028
      pz      :     1.047359  p :     3.121692
      px      :     1.021605
      py      :     1.052727
      dz2     :     0.006275  d :     0.086303
      dxz     :     0.006033
      dyz     :     0.010008
      dx2y2   :     0.028414
      dxy     :     0.035573
  2 C s       :     2.861640  s :     2.861640
      pz      :     0.958598  p :     3.063081
      px      :     1.042406
      py      :     1.062077
      dz2     :     0.006097  d :     0.092438
      dxz     :     0.005908
      dyz     :     0.014947
      dx2y2   :     0.032898
      dxy     :     0.032587
  3 C s       :     2.858906  s :     2.858906
      pz      :     1.022192  p :     3.114970
      px      :     1.061038
      py      :     1.031740
      dz2     :     0.006192  d :     0.089105
      dxz     :     0.012716
      dyz     :     0.004054
      dx2y2   :     0.035000
      dxy     :     0.031143
  4 C s       :     2.861637  s :     2.861637
      pz      :     0.958595  p :     3.063101
      px      :     1.047414
      py      :     1.057092
      dz2     :     0.006097  d :     0.092435
      dxz     :     0.007706
      dyz     :     0.013149
      dx2y2   :     0.030974
      dxy     :     0.034508
  5 C s       :     2.860996  s :     2.860996
      pz      :     1.047340  p :     3.121670
      px      :     1.020415
      py      :     1.053915
      dz2     :     0.006274  d :     0.086313
      dxz     :     0.004890
      dyz     :     0.011151
      dx2y2   :     0.028907
      dxy     :     0.035090
  6 H s       :     0.913163  s :     0.913163
      pz      :     0.016249  p :     0.067656
      px      :     0.031821
      py      :     0.019586
  7 H s       :     0.909138  s :     0.909138
      pz      :     0.013824  p :     0.065728
      px      :     0.035823
      py      :     0.016081
  8 H s       :     0.910548  s :     0.910548
      pz      :     0.015790  p :     0.067296
      px      :     0.010960
      py      :     0.040546
  9 H s       :     0.909102  s :     0.909102
      pz      :     0.013823  p :     0.065730
      px      :     0.031709
      py      :     0.020198
 10 H s       :     0.913205  s :     0.913205
      pz      :     0.016250  p :     0.067659
      px      :     0.035840
      py      :     0.015569
 11 N s       :     3.117142  s :     3.117142
      pz      :     1.622505  p :     3.912384
      px      :     1.131758
      py      :     1.158121
      dz2     :     0.002162  d :     0.041522
      dxz     :     0.006384
      dyz     :     0.007014
      dx2y2   :     0.012379
      dxy     :     0.013583
 12 H s       :     0.807672  s :     0.807672
      pz      :     0.035486  p :     0.101102
      px      :     0.039164
      py      :     0.026452
 13 H s       :     0.807647  s :     0.807647
      pz      :     0.035543  p :     0.100982
      px      :     0.044657
      py      :     0.020782


                      *****************************
                      * MAYER POPULATION ANALYSIS *
                      *****************************

  NA   - Mulliken gross atomic population
  ZA   - Total nuclear charge
  QA   - Mulliken gross atomic charge
  VA   - Mayer's total valence
  BVA  - Mayer's bonded valence
  FA   - Mayer's free valence

  ATOM       NA         ZA         QA         VA         BVA        FA
  0 C      5.9254     6.0000     0.0746     4.0220     4.0220    -0.0000
  1 C      6.0271     6.0000    -0.0271     3.8200     3.8200     0.0000
  2 C      5.9852     6.0000     0.0148     3.8663     3.8663     0.0000
  3 C      5.9889     6.0000     0.0111     3.8122     3.8122     0.0000
  4 C      5.9854     6.0000     0.0146     3.8660     3.8660     0.0000
  5 C      6.0267     6.0000    -0.0267     3.8203     3.8203     0.0000
  6 H      1.0477     1.0000    -0.0477     0.9853     0.9853     0.0000
  7 H      1.0229     1.0000    -0.0229     0.9762     0.9762     0.0000
  8 H      1.0275     1.0000    -0.0275     0.9774     0.9774    -0.0000
  9 H      1.0228     1.0000    -0.0228     0.9762     0.9762     0.0000
 10 H      1.0480     1.0000    -0.0480     0.9853     0.9853     0.0000
 11 N      7.1435     7.0000    -0.1435     3.1295     3.1295     0.0000
 12 H      0.8745     1.0000     0.1255     0.9859     0.9859     0.0000
 13 H      0.8744     1.0000     0.1256     0.9859     0.9859     0.0000

  Mayer bond orders larger than 0.100000
B(  0-C ,  1-C ) :   1.3336 B(  0-C ,  5-C ) :   1.3340 B(  0-C , 11-N ) :   1.1877 
B(  1-C ,  2-C ) :   1.4018 B(  1-C ,  6-H ) :   0.9840 B(  2-C ,  3-C ) :   1.3732 
B(  2-C ,  7-H ) :   0.9786 B(  3-C ,  4-C ) :   1.3730 B(  3-C ,  8-H ) :   0.9870 
B(  4-C ,  5-C ) :   1.4017 B(  4-C ,  9-H ) :   0.9787 B(  5-C , 10-H ) :   0.9840 
B( 11-N , 12-H ) :   0.9387 B( 11-N , 13-H ) :   0.9386 

-------
TIMINGS
-------

Total SCF time: 0 days 0 hours 1 min 1 sec 

Total time                  ....      61.148 sec
Sum of individual times     ....      60.437 sec  ( 98.8%)

Fock matrix formation       ....      56.216 sec  ( 91.9%)
  Split-RI-J                ....       3.905 sec  (  6.9% of F)
  Chain of spheres X        ....      41.938 sec  ( 74.6% of F)
  XC integration            ....      10.289 sec  ( 18.3% of F)
    Basis function eval.    ....       3.974 sec  ( 38.6% of XC)
    Density eval.           ....       2.710 sec  ( 26.3% of XC)
    XC-Functional eval.     ....       0.893 sec  (  8.7% of XC)
    XC-Potential eval.      ....       2.002 sec  ( 19.5% of XC)
Diagonalization             ....       0.031 sec  (  0.1%)
Density matrix formation    ....       0.006 sec  (  0.0%)
Population analysis         ....       0.039 sec  (  0.1%)
Initial guess               ....       0.723 sec  (  1.2%)
Orbital Transformation      ....       0.000 sec  (  0.0%)
Orbital Orthonormalization  ....       0.000 sec  (  0.0%)
DIIS solution               ....       0.079 sec  (  0.1%)
SOSCF solution              ....       0.055 sec  (  0.1%)
Grid generation             ....       3.288 sec  (  5.4%)

Maximum memory used throughout the entire SCF-calculation: 62.6 MB


-------------------------------------------------------------------------------
                          DFT DISPERSION CORRECTION                            
                                                                               
                                 DFTD4 V2.5                                    
-------------------------------------------------------------------------------
The B3LYP functional is recognized
Active option DFTDOPT                   ...         5   

Starting D4
-------------------------   ----------------
Dispersion correction           -0.020939080
-------------------------   ----------------


-------------------------   --------------------
FINAL SINGLE POINT ENERGY      -287.231870897530
-------------------------   --------------------

------------------------------------------------------------------------------
                         ORCA SCF GRADIENT CALCULATION
------------------------------------------------------------------------------

 ... reading COSX grid (gridx3)
Gradient of the Kohn-Sham DFT energy:
Kohn-Sham wavefunction type      ... RKS
Hartree-Fock exchange scaling    ...    0.200
Number of operators              ...    1
Number of atoms                  ...   14
Basis set dimensions             ...  133
Integral neglect threshold       ... 2.5e-11
Integral primitive cutoff        ... 2.5e-12
SHARK Integral package           ... ON

Nuc. rep. gradient       (SHARK) ... done (  0.0 sec)
HCore & Overlap gradient (SHARK) ... done (  0.1 sec)
RI-J gradient            (SHARK) ... done (  0.9 sec)
COSX-gradient                    ... done (  8.6 sec)
Exchange-correlation gradient    ... done
Dispersion correction            ... Starting D4


------------------- 
Dispersion Gradient 
------------------- 
   1  :    0.000028041    0.000347697    0.000005014
   2  :   -0.000421878    0.000107597   -0.000005661
   3  :   -0.000454455   -0.000350897   -0.000005226
   4  :   -0.000042311   -0.000524569   -0.000006697
   5  :    0.000392384   -0.000419158   -0.000004118
   6  :    0.000433702    0.000038481   -0.000004555
   7  :   -0.000187630    0.000073408   -0.000002227
   8  :   -0.000167174   -0.000087299   -0.000001693
   9  :   -0.000014363   -0.000178002   -0.000002622
  10  :    0.000151045   -0.000112938   -0.000001276
  11  :    0.000196986    0.000042376   -0.000001740
  12  :    0.000058777    0.000726641   -0.000048084
  13  :   -0.000040632    0.000172686    0.000039334
  14  :    0.000067508    0.000163977    0.000039550

  |G| =    0.001488537

done

------------------
CARTESIAN GRADIENT
------------------

   1   C   :    0.000897325    0.010776134   -0.001367344
   2   C   :   -0.000958323   -0.000500679   -0.000244566
   3   C   :    0.000280197    0.000698883   -0.000067039
   4   C   :   -0.000064725   -0.000845430    0.000110956
   5   C   :   -0.000155504    0.000743258   -0.000070125
   6   C   :    0.000840412   -0.000635389   -0.000254040
   7   H   :   -0.000249286   -0.000110822   -0.000059179
   8   H   :   -0.000008470   -0.000014342   -0.000001923
   9   H   :    0.000011952    0.000012008    0.000010183
  10   H   :    0.000015888    0.000004595   -0.000001747
  11   H   :    0.000213376   -0.000124898   -0.000056227
  12   N   :   -0.005312832   -0.063881136   -0.035056351
  13   H   :   -0.031162025    0.029552534    0.018405744
  14   H   :    0.035586157    0.024333818    0.018649973

Difference to translation invariance:
           :   -0.0000658574    0.0000085320   -0.0000016854

Difference to rotation invariance:
           :   -0.0000992742   -0.0000237514    0.0009138737

Norm of the cartesian gradient     ...    0.0992508454
RMS gradient                       ...    0.0153147379
MAX gradient                       ...    0.0638811355

-------
TIMINGS
-------

Total SCF gradient time            ...       14.822 sec

One electron gradient       ....       0.149 sec  (  1.0%)
RI-J Coulomb gradient       ....       0.854 sec  (  5.8%)
COSX gradient               ....       8.622 sec  ( 58.2%)
XC gradient                 ....       4.610 sec  ( 31.1%)

Maximum memory used throughout the entire SCFGRAD-calculation: 49.8 MB
------------------------------------------------------------------------------
                         ORCA GEOMETRY RELAXATION STEP
------------------------------------------------------------------------------

Reading the OPT-File                    .... done
Getting information on internals        .... done
Copying old internal coords+grads       .... done
Making the new internal coordinates     .... (new redundants).... done
Validating the new internal coordinates .... (new redundants).... done
Calculating the B-matrix                .... done
Calculating the G,G- and P matrices     .... done
Transforming gradient to internals      .... done
Projecting the internal gradient        .... done
Number of atoms                         ....  14
Number of internal coordinates          ....  63
Current Energy                          ....  -287.231870898 Eh
Current gradient norm                   ....     0.099250845 Eh/bohr
Maximum allowed component of the step   ....  0.300
Current trust radius                    ....  0.300
Evaluating the initial hessian          ....  (Almloef) done
Projecting the Hessian                  .... done
Forming the augmented Hessian           .... done
Diagonalizing the augmented Hessian     .... done
Last element of RFO vector              ....  0.981515551
Lowest eigenvalues of augmented Hessian:
 -0.013099115  0.023247558  0.024389261  0.024630147  0.024883392
Length of the computed step             ....  0.194986622
The final length of the internal step   ....  0.194986622
Converting the step to cartesian space:
 Initial RMS(Int)=    0.0245660053
Transforming coordinates:
 Iter   0:  RMS(Cart)=    0.0270424757 RMS(Int)=    0.0245600999
 Iter   1:  RMS(Cart)=    0.0005275030 RMS(Int)=    0.0003448587
 Iter   2:  RMS(Cart)=    0.0000325400 RMS(Int)=    0.0000211210
 Iter   3:  RMS(Cart)=    0.0000017637 RMS(Int)=    0.0000011324
 Iter   4:  RMS(Cart)=    0.0000000925 RMS(Int)=    0.0000000596
done
Storing new coordinates                 .... done

                                .--------------------.
          ----------------------|Geometry convergence|-------------------------
          Item                value                   Tolerance       Converged
          ---------------------------------------------------------------------
          RMS gradient        0.0084975863            0.0001000000      NO
          MAX gradient        0.0465525011            0.0003000000      NO
          RMS step            0.0245660053            0.0020000000      NO
          MAX step            0.1351122657            0.0040000000      NO
          ........................................................
          Max(Bonds)      0.0715      Max(Angles)    1.57
          Max(Dihed)        0.36      Max(Improp)    0.00
          ---------------------------------------------------------------------

The optimization has not yet converged - more geometry cycles are needed


    ---------------------------------------------------------------------------
                         Redundant Internal Coordinates
                            (Angstroem and degrees)

        Definition                    Value    dE/dq     Step     New-Value
    ----------------------------------------------------------------------------
     1. B(C   1,C   0)                1.4113  0.000970 -0.0009    1.4104   
     2. B(C   2,C   1)                1.3940 -0.000305  0.0003    1.3942   
     3. B(C   3,C   2)                1.3987  0.000239 -0.0002    1.3985   
     4. B(C   4,C   3)                1.3987  0.000243 -0.0002    1.3985   
     5. B(C   5,C   4)                1.3940 -0.000294  0.0002    1.3942   
     6. B(C   5,C   0)                1.4112  0.000966 -0.0009    1.4103   
     7. B(H   6,C   1)                1.0942  0.000141 -0.0002    1.0940   
     8. B(H   7,C   2)                1.0937  0.000012 -0.0000    1.0937   
     9. B(H   8,C   3)                1.0922 -0.000013  0.0000    1.0922   
    10. B(H   9,C   4)                1.0937  0.000012 -0.0000    1.0937   
    11. B(H  10,C   5)                1.0941  0.000142 -0.0002    1.0939   
    12. B(N  11,C   0)                1.3765 -0.010103  0.0089    1.3854   
    13. B(H  12,N  11)                1.0822  0.046280 -0.0710    1.0112   
    14. B(H  13,N  11)                1.0826  0.046553 -0.0715    1.0111   
    15. A(C   1,C   0,N  11)          120.87  0.000027    0.01    120.88   
    16. A(C   5,C   0,N  11)          120.89  0.000087   -0.00    120.89   
    17. A(C   1,C   0,C   5)          118.14 -0.000125    0.01    118.15   
    18. A(C   0,C   1,H   6)          119.35  0.000325   -0.05    119.31   
    19. A(C   2,C   1,H   6)          120.02 -0.000127    0.02    120.05   
    20. A(C   0,C   1,C   2)          120.62 -0.000198    0.02    120.65   
    21. A(C   3,C   2,H   7)          119.93 -0.000185    0.02    119.96   
    22. A(C   1,C   2,H   7)          119.10 -0.000191    0.03    119.12   
    23. A(C   1,C   2,C   3)          120.97  0.000376   -0.05    120.92   
    24. A(C   2,C   3,C   4)          118.67 -0.000227    0.04    118.71   
    25. A(C   4,C   3,H   8)          120.67  0.000114   -0.02    120.65   
    26. A(C   2,C   3,H   8)          120.66  0.000113   -0.02    120.64   
    27. A(C   5,C   4,H   9)          119.08 -0.000188    0.02    119.10   
    28. A(C   3,C   4,H   9)          119.96 -0.000188    0.02    119.98   
    29. A(C   3,C   4,C   5)          120.97  0.000375   -0.05    120.92   
    30. A(C   0,C   5,H  10)          119.34  0.000328   -0.05    119.30   
    31. A(C   0,C   5,C   4)          120.63 -0.000202    0.02    120.65   
    32. A(C   4,C   5,H  10)          120.02 -0.000126    0.02    120.05   
    33. A(H  12,N  11,H  13)          106.13 -0.008164    1.57    107.70   
    34. A(C   0,N  11,H  13)          117.39  0.005843   -0.96    116.43   
    35. A(C   0,N  11,H  12)          117.37  0.005839   -0.96    116.40   
    36. D(H   6,C   1,C   0,C   5)   -179.72  0.000125   -0.19   -179.91   
    37. D(C   2,C   1,C   0,C   5)      0.03  0.000122   -0.19     -0.16   
    38. D(C   2,C   1,C   0,N  11)    176.42 -0.000088    0.13    176.55   
    39. D(H   6,C   1,C   0,N  11)     -3.33 -0.000085    0.13     -3.20   
    40. D(C   3,C   2,C   1,C   0)      0.04 -0.000026    0.04      0.08   
    41. D(C   3,C   2,C   1,H   6)    179.79 -0.000029    0.04    179.83   
    42. D(H   7,C   2,C   1,H   6)     -0.38 -0.000032    0.05     -0.33   
    43. D(H   7,C   2,C   1,C   0)    179.87 -0.000029    0.04    179.92   
    44. D(H   8,C   3,C   2,H   7)      0.01 -0.000002    0.00      0.01   
    45. D(H   8,C   3,C   2,C   1)    179.85 -0.000005    0.01    179.85   
    46. D(C   4,C   3,C   2,H   7)   -179.94 -0.000067    0.10   -179.83   
    47. D(C   4,C   3,C   2,C   1)     -0.10 -0.000071    0.11      0.01   
    48. D(H   9,C   4,C   3,C   2)    179.94  0.000066   -0.10    179.84   
    49. D(C   5,C   4,C   3,H   8)   -179.85  0.000005   -0.01   -179.85   
    50. D(C   5,C   4,C   3,C   2)      0.10  0.000070   -0.11     -0.01   
    51. D(H   9,C   4,C   3,H   8)     -0.01  0.000001   -0.00     -0.01   
    52. D(H  10,C   5,C   4,H   9)      0.38  0.000031   -0.05      0.34   
    53. D(C   0,C   5,C   4,H   9)   -179.88  0.000031   -0.05   -179.92   
    54. D(C   0,C   5,C   4,C   3)     -0.03  0.000027   -0.04     -0.08   
    55. D(H  10,C   5,C   0,N  11)      3.33  0.000089   -0.13      3.19   
    56. D(H  10,C   5,C   0,C   1)    179.71 -0.000124    0.19    179.90   
    57. D(H  10,C   5,C   4,C   3)   -179.78  0.000028   -0.04   -179.82   
    58. D(C   4,C   5,C   0,N  11)   -176.42  0.000090   -0.13   -176.55   
    59. D(C   4,C   5,C   0,C   1)     -0.03 -0.000122    0.19      0.16   
    60. D(H  13,N  11,C   0,C   5)    -27.73 -0.000205    0.36    -27.37   
    61. D(H  13,N  11,C   0,C   1)    155.98  0.000019    0.03    156.01   
    62. D(H  12,N  11,C   0,C   5)   -156.08 -0.000024   -0.02   -156.10   
    63. D(H  12,N  11,C   0,C   1)     27.63  0.000200   -0.35     27.28   
    ----------------------------------------------------------------------------

         *************************************************************
         *                GEOMETRY OPTIMIZATION CYCLE   2            *
         *************************************************************
---------------------------------
CARTESIAN COORDINATES (ANGSTROEM)
---------------------------------
  C     -4.885445    2.982843    0.038151
  C     -6.149694    2.357785    0.024755
  C     -6.255058    0.967769   -0.001247
  C     -5.113065    0.160597   -0.013014
  C     -3.856466    0.774250    0.001939
  C     -3.737794    2.163176    0.027932
  H     -7.052534    2.975536    0.030877
  H     -7.248011    0.509288   -0.009804
  H     -5.200890   -0.927922   -0.030974
  H     -2.949573    0.162915   -0.004173
  H     -2.747695    2.628289    0.036371
  N     -4.774109    4.362982   -0.007589
  H     -5.551710    4.889464    0.367434
  H     -3.924067    4.758629    0.370772

----------------------------
CARTESIAN COORDINATES (A.U.)
----------------------------
  NO LB      ZA    FRAG     MASS         X           Y           Z
   0 C     6.0000    0    12.011   -9.232153    5.636756    0.072096
   1 C     6.0000    0    12.011  -11.621237    4.455568    0.046780
   2 C     6.0000    0    12.011  -11.820346    1.828819   -0.002357
   3 C     6.0000    0    12.011   -9.662292    0.303485   -0.024592
   4 C     6.0000    0    12.011   -7.287665    1.463121    0.003665
   5 C     6.0000    0    12.011   -7.063407    4.087810    0.052784
   6 H     1.0000    0     1.008  -13.327357    5.622947    0.058349
   7 H     1.0000    0     1.008  -13.696756    0.962414   -0.018526
   8 H     1.0000    0     1.008   -9.828257   -1.753519   -0.058532
   9 H     1.0000    0     1.008   -5.573886    0.307864   -0.007886
  10 H     1.0000    0     1.008   -5.192391    4.966746    0.068731
  11 N     7.0000    0    14.007   -9.021758    8.244842   -0.014342
  12 H     1.0000    0     1.008  -10.491212    9.239748    0.694349
  13 H     1.0000    0     1.008   -7.415411    8.992505    0.700657

--------------------------------
INTERNAL COORDINATES (ANGSTROEM)
--------------------------------
 C      0   0   0     0.000000000000     0.00000000     0.00000000
 C      1   0   0     1.410390686125     0.00000000     0.00000000
 C      2   1   0     1.394245853055   120.64740518     0.00000000
 C      3   2   1     1.398503917552   120.92156828     0.07870920
 C      4   3   2     1.398510915813   118.70986308     0.00000000
 C      5   4   3     1.394228499370   120.91731315     0.00000000
 H      2   1   3     1.093971199290   119.30514067   180.24647958
 H      3   2   1     1.093724903106   119.12223263   179.91834550
 H      4   3   2     1.092204818023   120.64364284   179.85265774
 H      5   4   3     1.093720152402   119.98144180   179.83791982
 H      6   5   4     1.093936223558   120.04882442   180.18170014
 N      1   2   3     1.385378387738   120.87916362   176.54980344
 H     12   1   2     1.011181979925   116.40059580    27.27755490
 H     12   1   2     1.011071117108   116.42619842   156.01127030

---------------------------
INTERNAL COORDINATES (A.U.)
---------------------------
 C      0   0   0     0.000000000000     0.00000000     0.00000000
 C      1   0   0     2.665252138610     0.00000000     0.00000000
 C      2   1   0     2.634742825628   120.64740518     0.00000000
 C      3   2   1     2.642789401389   120.92156828     0.07870920
 C      4   3   2     2.642802626186   118.70986308     0.00000000
 C      5   4   3     2.634710031917   120.91731315     0.00000000
 H      2   1   3     2.067305965055   119.30514067   180.24647958
 H      3   2   1     2.066840532720   119.12223263   179.91834550
 H      4   3   2     2.063967988212   120.64364284   179.85265774
 H      5   4   3     2.066831555191   119.98144180   179.83791982
 H      6   5   4     2.067239870500   120.04882442   180.18170014
 N      1   2   3     2.617985744678   120.87916362   176.54980344
 H     12   1   2     1.910857013615   116.40059580    27.27755490
 H     12   1   2     1.910647513252   116.42619842   156.01127030

------------------------------------------------------------------------------
                   ___                                                        
                  /   \      - P O W E R E D   B Y -                         
                 /     \                                                     
                 |  |  |   _    _      __       _____    __    __             
                 |  |  |  | |  | |    /  \     |  _  \  |  |  /  |          
                  \  \/   | |  | |   /    \    | | | |  |  | /  /          
                 / \  \   | |__| |  /  /\  \   | |_| |  |  |/  /          
                |  |  |   |  __  | /  /__\  \  |    /   |      \           
                |  |  |   | |  | | |   __   |  |    \   |  |\   \          
                \     /   | |  | | |  |  |  |  | |\  \  |  | \   \       
                 \___/    |_|  |_| |__|  |__|  |_| \__\ |__|  \__/        
                                                                              
                      - O R C A' S   B I G   F R I E N D -                    
                                      &                                       
                       - I N T E G R A L  F E E D E R -                       
                                                                              
 v1 FN, 2020, v2 2021                                                         
------------------------------------------------------------------------------


Reading SHARK input file a_opt_2.SHARKINP.tmp ... ok
----------------------
SHARK INTEGRAL PACKAGE
----------------------

Number of atoms                             ...     14
Number of basis functions                   ...    133
Number of shells                            ...     63
Maximum angular momentum                    ...      2
Integral batch strategy                     ... SHARK/LIBINT Hybrid
RI-J (if used) integral strategy            ... SPLIT-RIJ (Revised 2003 algorithm where possible)
Printlevel                                  ...      1
Contraction scheme used                     ... SEGMENTED contraction
Coulomb Range Separation                    ... NOT USED
Exchange Range Separation                   ... NOT USED
Finite Nucleus Model                        ... NOT USED
Auxiliary Coulomb fitting basis             ... AVAILABLE
   # of basis functions in Aux-J            ...    420
   # of shells in Aux-J                     ...    140
   Maximum angular momentum in Aux-J        ...      4
Auxiliary J/K fitting basis                 ... NOT available
Auxiliary Correlation fitting basis         ... NOT available
Auxiliary 'external' fitting basis          ... NOT available
Integral threshold                          ...     2.500000e-11
Primitive cut-off                           ...     2.500000e-12
Primitive pair pre-selection threshold      ...     2.500000e-12

Calculating pre-screening integrals         ... done (  0.0 sec) Dimension = 63
Organizing shell pair data                  ... done (  0.0 sec)
Shell pair information
Total number of shell pairs                 ...      2016
Shell pairs after pre-screening             ...      1943
Total number of primitive shell pairs       ...      7252
Primitive shell pairs kept                  ...      5309
          la=0 lb=0:    606 shell pairs
          la=1 lb=0:    707 shell pairs
          la=1 lb=1:    222 shell pairs
          la=2 lb=0:    238 shell pairs
          la=2 lb=1:    142 shell pairs
          la=2 lb=2:     28 shell pairs

Calculating one electron integrals          ... done (  0.0 sec)
Calculating RI/J V-Matrix + Cholesky decomp.... done (  0.0 sec)
Calculating Nuclear repulsion               ... done (  0.0 sec) ENN=    270.681701896750 Eh

SHARK setup successfully completed in   0.2 seconds

Maximum memory used throughout the entire GTOINT-calculation: 16.6 MB

Diagonalization of the overlap matrix:
Smallest eigenvalue                        ... 2.897e-04
Time for diagonalization                   ...    0.006 sec
Threshold for overlap eigenvalues          ... 1.000e-08
Number of eigenvalues below threshold      ... 0
[...]
     14      -0.000141   0.000417   0.000372  -0.001382   0.000791  -0.004390
     15       0.001283   0.005452   0.014011  -0.040528  -0.020077  -0.127434
     16      -0.068573  -0.001992  -0.044896   0.100351   0.056088   0.249429
     17      -0.001714   0.000635  -0.000450  -0.000303   0.001643   0.002392
     18       0.248500   0.119244  -0.278593  -0.238442   0.264811   0.086641
     19       0.417802   0.168435  -0.421533  -0.312899   0.380015   0.149430
     20       0.009918   0.006190  -0.014756  -0.006557   0.012142   0.003569
     21       0.006461   0.204241  -0.215291   0.046726  -0.167455   0.021415
     22      -0.110370  -0.444731   0.439380  -0.380484   0.392217  -0.093762
     23      -0.005055  -0.009365   0.010916  -0.006335   0.007311  -0.003090
     24       0.431043  -0.652582   0.002304  -0.002135  -0.340096  -0.428278
     25      -0.034694   0.052682   0.013742  -0.025503   0.027430   0.034481
     26       0.000606  -0.000903  -0.000475  -0.002115  -0.000467  -0.000562
     27       0.023218   0.272861   0.282391  -0.107054  -0.227680   0.035670
     28       0.107061   0.406958   0.399037  -0.368330  -0.359981   0.088236
     29       0.005026   0.010048   0.011585  -0.006531  -0.007830   0.003099
     30       0.178161   0.091364   0.207568   0.185407   0.200685   0.061857
     31      -0.451503  -0.186544  -0.460855  -0.347265  -0.417742  -0.161826
     32      -0.009295  -0.005954  -0.014108  -0.005991  -0.011530  -0.003399
     33      -0.069873  -0.001388  -0.000300  -0.013047   0.038645  -0.049214
     34       0.005627   0.000124  -0.002946  -0.162275  -0.003096   0.003789
     35      -0.000077  -0.000004  -0.001667  -0.009936   0.000047  -0.000059
     36       0.131334   0.000841  -0.005624  -0.099983  -0.059395   0.125207
     37       0.356148   0.003353  -0.016101  -0.325257  -0.167415   0.311621
     38      -0.064160   0.001529   0.006273  -0.001783   0.027537  -0.075099
     39       0.072451   0.000290   0.003092   0.046514  -0.031783   0.073583
     40      -0.372479  -0.003414  -0.017466  -0.336620   0.174841  -0.328182
     41       0.064248  -0.001498   0.006394  -0.001779  -0.027579   0.075251
                 30         31         32         33         34         35    
      0       0.154000   0.016121  -0.001937   0.356151   0.021285   0.000539
      1      -0.012681   0.198308  -0.021245  -0.028863   0.261192   0.003479
      2       0.000190   0.010770   0.015238   0.000530   0.000440   0.000158
      3      -0.018724  -0.099988  -0.008511  -0.204761  -0.099146  -0.045420
      4       0.142598  -0.049622  -0.034109  -0.068230  -0.274179   0.029257
      5       0.002942  -0.002137  -0.001932  -0.001959  -0.005270   0.000336
      6      -0.038079   0.096868  -0.009056   0.201447  -0.049022   0.030861
      7      -0.152734  -0.139652   0.047742  -0.108135   0.252329   0.012477
      8      -0.003205  -0.002744   0.000705  -0.001712   0.004848   0.000288
      9       0.143890   0.009644  -0.001849  -0.360293  -0.009547  -0.001276
     10      -0.011679   0.117702  -0.025971   0.029045  -0.116154  -0.015291
     11       0.000191   0.002523  -0.000462  -0.000492  -0.002163  -0.000309
     12      -0.012967  -0.118016   0.016296   0.216154   0.088987  -0.025266
     13       0.157040  -0.122077   0.045611   0.074441   0.241458   0.015413
     14       0.003143  -0.003034   0.000735   0.002273   0.005047   0.000187
     15      -0.041516   0.090705   0.003176  -0.191222   0.053781   0.041194
     16      -0.137562  -0.065258  -0.035199   0.100263  -0.286594   0.017786
     17      -0.003014  -0.001881  -0.001925   0.001421  -0.005057   0.000378
     18      -0.256037   0.163407   0.029620   0.002060   0.249089   0.521114
     19      -0.171279   0.373821   0.024353   0.261501   0.231277  -0.351300
     20      -0.005986   0.010915   0.002085   0.007145   0.005516  -0.003823
     21      -0.244379  -0.155099   0.036420   0.055019   0.176239  -0.364159
     22       0.240858   0.425395  -0.047439   0.255680  -0.212519  -0.166693
     23       0.004487   0.008570   0.000843   0.005668  -0.005130  -0.003840
     24      -0.598782   0.010943  -0.002667   0.400102  -0.010530   0.015528
     25       0.048174   0.143171  -0.029548  -0.032308  -0.132820   0.192563
     26      -0.000830   0.002284  -0.001745   0.000543  -0.002123   0.003802
     27      -0.279967   0.220419  -0.043558   0.013619  -0.207869   0.295841
     28      -0.199279   0.394820  -0.040672  -0.261297  -0.181835  -0.198070
     29      -0.005216   0.009077   0.000733  -0.005554  -0.005656  -0.002586
     30      -0.225096  -0.102020  -0.025324  -0.039617  -0.209165  -0.474757
     31       0.209231   0.395743   0.029083  -0.258581   0.268228  -0.218838
     32       0.005317   0.010579   0.002022  -0.007219   0.004890  -0.004362
     33      -0.050740  -0.003568   0.008142  -0.054040  -0.007633  -0.000041
     34       0.004143  -0.043665   0.100844   0.004698  -0.094376  -0.000204
     35      -0.000061  -0.003171   0.016492  -0.000005  -0.016587  -0.000082
     36       0.058132  -0.102039  -0.448205   0.072041   0.224084  -0.002717
     37       0.183676  -0.194993  -0.497970   0.212885   0.187960  -0.003407
     38      -0.028134  -0.019640  -0.190715  -0.039732   0.129604  -0.000297
     39       0.027695   0.069563   0.362986   0.039462  -0.191295   0.002184
     40      -0.190009  -0.209128  -0.563019  -0.225548   0.221095  -0.003532
     41       0.028267  -0.019387  -0.189644   0.038489   0.129052  -0.000136
                 36         37         38         39         40         41    
      0      -0.003063   0.000236  -0.002347   0.000078  -0.000139  -0.001157
      1       0.000520   0.002830   0.000220   0.000986  -0.001700   0.000099
      2       0.000009   0.000081  -0.000002   0.000041   0.001462  -0.000007
      3       0.042840  -0.028232   0.020092  -0.007971  -0.000442   0.000472
      4      -0.028799   0.020094  -0.016477   0.007462  -0.000668  -0.000075
      5      -0.000343   0.000253  -0.000221   0.000107  -0.000074  -0.000165
      6      -0.019751  -0.035429   0.051038  -0.033272   0.000149  -0.000046
      7      -0.007478  -0.019210   0.025084  -0.012690   0.000226   0.000087
      8      -0.000172  -0.000445   0.000588  -0.000309  -0.000159  -0.000001
      9       0.000513   0.003633  -0.004319  -0.005958  -0.000023   0.000068
     10      -0.001487   0.044554   0.000832  -0.073772  -0.000284  -0.000005
     11      -0.000028   0.000874   0.000004  -0.001456  -0.000015   0.000000
     12      -0.023039   0.030861   0.046766   0.030941  -0.000111  -0.000059
     13       0.013468  -0.023907  -0.033244  -0.017925   0.000245  -0.000081
     14       0.000156  -0.000345  -0.000462  -0.000223  -0.000159   0.000002
     15       0.054000   0.031166   0.023170   0.009172   0.000330   0.000477
     16       0.024635   0.015304   0.013382   0.006153  -0.000732   0.000005
     17       0.000526   0.000330   0.000283   0.000131  -0.000072   0.000166
     18      -0.493134   0.318087  -0.231736   0.092123   0.000504  -0.000194
     19       0.334304  -0.216258   0.160006  -0.064890   0.000791   0.001813
     20       0.003629  -0.002402   0.001781  -0.000758   0.001466   0.000707
     21       0.230608   0.417593  -0.580780   0.346863  -0.000754   0.000013
     22       0.104991   0.196043  -0.270436   0.157345  -0.000075  -0.000142
     23       0.002386   0.004560  -0.006280   0.003651   0.000151   0.000000
     24       0.001206  -0.042771   0.004324   0.065971   0.000069   0.000025
     25       0.018014  -0.530228  -0.006022   0.818550   0.000875  -0.000004
     26       0.000355  -0.010429  -0.000104   0.016036   0.000601  -0.000001
     27       0.266302  -0.368935  -0.534872  -0.318593   0.000735   0.000031
     28      -0.177633   0.252122   0.363002   0.211621  -0.000193   0.000139
     29      -0.002278   0.003376   0.004826   0.002767   0.000154  -0.000001
     30      -0.622250  -0.349674  -0.262318  -0.102605  -0.000358  -0.000490
     31      -0.288863  -0.163017  -0.124561  -0.049918   0.000851  -0.001771
     32      -0.005729  -0.003280  -0.002490  -0.001023   0.001458  -0.000717
     33       0.000293  -0.000032   0.000310  -0.000009   0.003443  -0.083878
     34      -0.000038  -0.000373  -0.000028  -0.000119   0.047138   0.006574
     35      -0.000007   0.000087   0.000001  -0.000025   0.028976  -0.000218
     36      -0.000277  -0.000661  -0.000168  -0.000428   0.573128   0.556866
     37       0.001478  -0.003005   0.000362  -0.000558  -0.360521  -0.363001
     38       0.000957  -0.000976   0.000442   0.000022  -0.209238  -0.224992
     39      -0.000177   0.000170  -0.000223   0.000330  -0.618345   0.612222
     40      -0.001988  -0.003092  -0.000400  -0.000627  -0.262046   0.271262
     41      -0.000985  -0.000978  -0.000463   0.000019  -0.208952   0.228085


-----------
IR SPECTRUM
-----------

 Mode   freq       eps      Int      T**2         TX        TY        TZ
       cm**-1   L/(mol*cm) km/mol    a.u.
----------------------------------------------------------------------------
  6:    222.97   0.001160    5.86  0.001624  ( 0.001828  0.021129 -0.034269)
  7:    326.42   0.003054   15.43  0.002919  (-0.053888  0.003919  0.000283)
  8:    386.18   0.000056    0.28  0.000045  ( 0.006705 -0.000684  0.000109)
  9:    422.97   0.000036    0.18  0.000026  (-0.005119  0.000260  0.000133)
 10:    483.33   0.053785  271.81  0.034727  ( 0.011207  0.138443 -0.124237)
 11:    534.45   0.004733   23.92  0.002764  ( 0.004108  0.050936 -0.012347)
 12:    541.62   0.005268   26.62  0.003035  ( 0.004082  0.050862 -0.020776)
 13:    634.60   0.000059    0.30  0.000029  (-0.005361  0.000448 -0.000009)
 14:    712.75   0.004725   23.88  0.002069  (-0.000094 -0.000372  0.045480)
 15:    774.17   0.008072   40.79  0.003254  ( 0.000925  0.010654 -0.056030)
 16:    833.02   0.000012    0.06  0.000004  (-0.002067  0.000202 -0.000027)
 17:    837.32   0.000813    4.11  0.000303  ( 0.001356  0.016717  0.004643)
 18:    899.53   0.001458    7.37  0.000506  (-0.000400 -0.004680  0.021990)
 19:    984.37   0.000000    0.00  0.000000  ( 0.000043 -0.000005 -0.000001)
 20:   1005.44   0.000260    1.31  0.000081  (-0.000670 -0.008570 -0.002592)
 21:   1008.22   0.000054    0.27  0.000017  ( 0.000033  0.000307 -0.004071)
 22:   1049.21   0.000580    2.93  0.000172  ( 0.001116  0.013085  0.000051)
 23:   1057.80   0.000434    2.20  0.000128  (-0.011281  0.000962 -0.000026)
 24:   1125.32   0.000870    4.40  0.000241  ( 0.015482 -0.001276  0.000013)
 25:   1165.40   0.000385    1.94  0.000103  ( 0.010120 -0.000772  0.000013)
 26:   1186.97   0.001634    8.26  0.000430  ( 0.001654  0.020635  0.001028)
 27:   1326.60   0.010216   51.63  0.002403  ( 0.003919  0.048865 -0.000267)
 28:   1349.86   0.000010    0.05  0.000002  ( 0.001545 -0.000105  0.000003)
 29:   1376.54   0.002380   12.03  0.000540  (-0.023148  0.001940 -0.000029)
 30:   1500.58   0.000198    1.00  0.000041  (-0.006395  0.000493 -0.000001)
 31:   1536.80   0.012039   60.84  0.002445  ( 0.003995  0.049268 -0.001142)
 32:   1625.05   0.009141   46.19  0.001755  (-0.003152 -0.038835 -0.015404)
 33:   1639.89   0.001120    5.66  0.000213  ( 0.014549 -0.001238 -0.000001)
 34:   1675.84   0.029250  147.82  0.005447  ( 0.005913  0.073359  0.005494)
 35:   3159.17   0.003350   16.93  0.000331  ( 0.000656  0.018173  0.000487)
 36:   3160.69   0.000814    4.11  0.000080  ( 0.008933  0.000739  0.000048)
 37:   3175.53   0.000642    3.24  0.000063  ( 0.000430  0.007929  0.000184)
 38:   3180.64   0.006304   31.86  0.000619  ( 0.024803 -0.001827  0.000035)
 39:   3197.36   0.002296   11.60  0.000224  (-0.001121 -0.014923 -0.000332)
 40:   3568.19   0.005123   25.89  0.000448  (-0.001500 -0.019316 -0.008525)
 41:   3673.63   0.003468   17.52  0.000295  ( 0.017114 -0.001295  0.000060)

* The epsilon (eps) is given for a Dirac delta lineshape.
** The dipole moment derivative (T) already includes vibrational overlap.

The first frequency considered to be a vibration is 6
The total number of vibrations considered is 36


--------------------------
THERMOCHEMISTRY AT 298.15K
--------------------------

Temperature         ... 298.15 K
Pressure            ... 1.00 atm
Total Mass          ... 93.13 AMU

Throughout the following assumptions are being made:
  (1) The electronic state is orbitally nondegenerate
  (2) There are no thermally accessible electronically excited states
  (3) Hindered rotations indicated by low frequency modes are not
      treated as such but are treated as vibrations and this may
      cause some error
  (4) All equations used are the standard statistical mechanics
      equations for an ideal gas
  (5) All vibrations are strictly harmonic

freq.     222.97  E(vib)   ...       0.33 
freq.     326.42  E(vib)   ...       0.24 
freq.     386.18  E(vib)   ...       0.20 
freq.     422.97  E(vib)   ...       0.18 
freq.     483.33  E(vib)   ...       0.15 
freq.     534.45  E(vib)   ...       0.13 
freq.     541.62  E(vib)   ...       0.12 
freq.     634.60  E(vib)   ...       0.09 
freq.     712.75  E(vib)   ...       0.07 
freq.     774.17  E(vib)   ...       0.05 
freq.     833.02  E(vib)   ...       0.04 
freq.     837.32  E(vib)   ...       0.04 
freq.     899.53  E(vib)   ...       0.03 
freq.     984.37  E(vib)   ...       0.02 
freq.    1005.44  E(vib)   ...       0.02 
freq.    1008.22  E(vib)   ...       0.02 
freq.    1049.21  E(vib)   ...       0.02 
freq.    1057.80  E(vib)   ...       0.02 
freq.    1125.32  E(vib)   ...       0.01 
freq.    1165.40  E(vib)   ...       0.01 
freq.    1186.97  E(vib)   ...       0.01 
freq.    1326.60  E(vib)   ...       0.01 
freq.    1349.86  E(vib)   ...       0.01 
freq.    1376.54  E(vib)   ...       0.01 
freq.    1500.58  E(vib)   ...       0.00 
freq.    1536.80  E(vib)   ...       0.00 
freq.    1625.05  E(vib)   ...       0.00 
freq.    1639.89  E(vib)   ...       0.00 
freq.    1675.84  E(vib)   ...       0.00 
freq.    3159.17  E(vib)   ...       0.00 
freq.    3160.69  E(vib)   ...       0.00 
freq.    3175.53  E(vib)   ...       0.00 
freq.    3180.64  E(vib)   ...       0.00 
freq.    3197.36  E(vib)   ...       0.00 
freq.    3568.19  E(vib)   ...       0.00 
freq.    3673.63  E(vib)   ...       0.00 

------------
INNER ENERGY
------------

The inner energy is: U= E(el) + E(ZPE) + E(vib) + E(rot) + E(trans)
    E(el)   - is the total energy from the electronic structure calculation
              = E(kin-el) + E(nuc-el) + E(el-el) + E(nuc-nuc)
    E(ZPE)  - the the zero temperature vibrational energy from the frequency calculation
    E(vib)  - the the finite temperature correction to E(ZPE) due to population
              of excited vibrational states
    E(rot)  - is the rotational thermal energy
    E(trans)- is the translational thermal energy

Summary of contributions to the inner energy U:
Electronic energy                ...   -287.23912008 Eh
Zero point energy                ...      0.11695758 Eh      73.39 kcal/mol
Thermal vibrational correction   ...      0.00295855 Eh       1.86 kcal/mol
Thermal rotational correction    ...      0.00141627 Eh       0.89 kcal/mol
Thermal translational correction ...      0.00141627 Eh       0.89 kcal/mol
-----------------------------------------------------------------------
Total thermal energy                   -287.11637141 Eh


Summary of corrections to the electronic energy:
(perhaps to be used in another calculation)
Total thermal correction                  0.00579109 Eh       3.63 kcal/mol
Non-thermal (ZPE) correction              0.11695758 Eh      73.39 kcal/mol
-----------------------------------------------------------------------
Total correction                          0.12274866 Eh      77.03 kcal/mol


--------
ENTHALPY
--------

The enthalpy is H = U + kB*T
                kB is Boltzmann's constant
Total free energy                 ...   -287.11637141 Eh 
Thermal Enthalpy correction       ...      0.00094421 Eh       0.59 kcal/mol
-----------------------------------------------------------------------
Total Enthalpy                    ...   -287.11542721 Eh


Note: Only C1 symmetry has been detected, increase convergence thresholds 
      if your molecule has a higher symmetry. Symmetry factor of 1.0 is   
      used for the rotational entropy correction. 
 

Note: Rotational entropy computed according to Herzberg 
Infrared and Raman Spectra, Chapter V,1, Van Nostrand Reinhold, 1945 
Point Group:  C1, Symmetry Number:   1  
Rotational constants in cm-1:     0.186570     0.086136     0.059004 

Vibrational entropy computed according to the QRRHO of S. Grimme
Chem.Eur.J. 2012 18 9955


-------
ENTROPY
-------

The entropy contributions are T*S = T*(S(el)+S(vib)+S(rot)+S(trans))
     S(el)   - electronic entropy
     S(vib)  - vibrational entropy
     S(rot)  - rotational entropy
     S(trans)- translational entropy
The entropies will be listed as multiplied by the temperature to get
units of energy

Electronic entropy                ...      0.00000000 Eh      0.00 kcal/mol
Vibrational entropy               ...      0.00430887 Eh      2.70 kcal/mol
Rotational entropy                ...      0.01279700 Eh      8.03 kcal/mol
Translational entropy             ...      0.01877043 Eh     11.78 kcal/mol
-----------------------------------------------------------------------
Final entropy term                ...      0.03587630 Eh     22.51 kcal/mol

In case the symmetry of your molecule has not been determined correctly
or in case you have a reason to use a different symmetry number we print 
out the resulting rotational entropy values for sn=1,12 :
 --------------------------------------------------------
|  sn= 1 | S(rot)=       0.01279700 Eh      8.03 kcal/mol|
|  sn= 2 | S(rot)=       0.01214254 Eh      7.62 kcal/mol|
|  sn= 3 | S(rot)=       0.01175971 Eh      7.38 kcal/mol|
|  sn= 4 | S(rot)=       0.01148809 Eh      7.21 kcal/mol|
|  sn= 5 | S(rot)=       0.01127740 Eh      7.08 kcal/mol|
|  sn= 6 | S(rot)=       0.01110525 Eh      6.97 kcal/mol|
|  sn= 7 | S(rot)=       0.01095971 Eh      6.88 kcal/mol|
|  sn= 8 | S(rot)=       0.01083363 Eh      6.80 kcal/mol|
|  sn= 9 | S(rot)=       0.01072242 Eh      6.73 kcal/mol|
|  sn=10 | S(rot)=       0.01062294 Eh      6.67 kcal/mol|
|  sn=11 | S(rot)=       0.01053295 Eh      6.61 kcal/mol|
|  sn=12 | S(rot)=       0.01045080 Eh      6.56 kcal/mol|
 --------------------------------------------------------


-------------------
GIBBS FREE ENERGY
-------------------

The Gibbs free energy is G = H - T*S

Total enthalpy                    ...   -287.11542721 Eh 
Total entropy correction          ...     -0.03587630 Eh    -22.51 kcal/mol
-----------------------------------------------------------------------
Final Gibbs free energy         ...   -287.15130350 Eh

For completeness - the Gibbs free energy minus the electronic energy
G-E(el)                           ...      0.08781658 Eh     55.11 kcal/mol


Timings for individual modules:

Sum of individual times         ...      886.415 sec (=  14.774 min)
GTO integral calculation        ...        3.794 sec (=   0.063 min)   0.4 %
SCF iterations                  ...      396.136 sec (=   6.602 min)  44.7 %
SCF Gradient evaluation         ...      130.047 sec (=   2.167 min)  14.7 %
Geometry relaxation             ...        0.880 sec (=   0.015 min)   0.1 %
Analytical frequency calculation...      355.558 sec (=   5.926 min)  40.1 %
                             ****ORCA TERMINATED NORMALLY****
TOTAL RUN TIME: 0 days 0 hours 14 minutes 49 seconds 566 msec
