
                                 *****************
                                 * O   R   C   A *
                                 *****************

                                            #,                                       
                                            ###                                      
                                            ####                                     
                                            #####                                    
                                            ######                                   
                                           ########,                                 
                                     ,,################,,,,,                         
                               ,,#################################,,                 
                          ,,##########################################,,             
                       ,#########################################, ''#####,          
                    ,#############################################,,   '####,        
                  ,##################################################,,,,####,       
                ,###########''''           ''''###############################       
              ,#####''   ,,,,##########,,,,          '''####'''          '####       
            ,##' ,,,,###########################,,,                        '##       
           ' ,,###''''                  '''############,,,                           
         ,,##''                                '''############,,,,        ,,,,,,###''
      ,#''                                            '''#######################'''  
     '                                                          ''''####''''         
             ,#######,   #######,   ,#######,      ##                                
            ,#'     '#,  ##    ##  ,#'     '#,    #''#        ######   ,####,        
            ##       ##  ##   ,#'  ##            #'  '#       #        #'  '#        
            ##       ##  #######   ##           ,######,      #####,   #    #        
            '#,     ,#'  ##    ##  '#,     ,#' ,#      #,         ##   #,  ,#        
             '#######'   ##     ##  '#######'  #'      '#     #####' # '####'        



                  #######################################################
                  #                        -***-                        #
                  #          Department of theory and spectroscopy      #
                  #    Directorship and core code : Frank Neese         #
                  #        Max Planck Institute fuer Kohlenforschung    #
                  #                Kaiser Wilhelm Platz 1               #
                  #                 D-45470 Muelheim/Ruhr               #
                  #                      Germany                        #
                  #                                                     #
                  #                  All rights reserved                #
                  #                        -***-                        #
                  #######################################################



                         Program Version 5.0.4 -  RELEASE  -

 With contributions from (in alphabetic order):
   Daniel Aravena         : Magnetic Suceptibility
   Michael Atanasov       : Ab Initio Ligand Field Theory (pilot matlab implementation)
   Alexander A. Auer      : GIAO ZORA, VPT2 properties, NMR spectrum
   Ute Becker             : Parallelization
   Giovanni Bistoni       : ED, misc. LED, open-shell LED, HFLD
   Martin Brehm           : Molecular dynamics
   Dmytro Bykov           : SCF Hessian
   Vijay G. Chilkuri      : MRCI spin determinant printing, contributions to CSF-ICE
   Dipayan Datta          : RHF DLPNO-CCSD density
   Achintya Kumar Dutta   : EOM-CC, STEOM-CC
   Dmitry Ganyushin       : Spin-Orbit,Spin-Spin,Magnetic field MRCI
   Miquel Garcia          : C-PCM and meta-GGA Hessian, CC/C-PCM, Gaussian charge scheme
   Yang Guo               : DLPNO-NEVPT2, F12-NEVPT2, CIM, IAO-localization
   Andreas Hansen         : Spin unrestricted coupled pair/coupled cluster methods
   Benjamin Helmich-Paris : MC-RPA, TRAH-SCF, COSX integrals
   Lee Huntington         : MR-EOM, pCC
   Robert Izsak           : Overlap fitted RIJCOSX, COSX-SCS-MP3, EOM
   Marcus Kettner         : VPT2
   Christian Kollmar      : KDIIS, OOCD, Brueckner-CCSD(T), CCSD density, CASPT2, CASPT2-K
   Simone Kossmann        : Meta GGA functionals, TD-DFT gradient, OOMP2, MP2 Hessian
   Martin Krupicka        : Initial AUTO-CI
   Lucas Lang             : DCDCAS
   Marvin Lechner         : AUTO-CI (C++ implementation), FIC-MRCC
   Dagmar Lenk            : GEPOL surface, SMD
   Dimitrios Liakos       : Extrapolation schemes; Compound Job, initial MDCI parallelization
   Dimitrios Manganas     : Further ROCIS development; embedding schemes
   Dimitrios Pantazis     : SARC Basis sets
   Anastasios Papadopoulos: AUTO-CI, single reference methods and gradients
   Taras Petrenko         : DFT Hessian,TD-DFT gradient, ASA, ECA, R-Raman, ABS, FL, XAS/XES, NRVS
   Peter Pinski           : DLPNO-MP2, DLPNO-MP2 Gradient
   Christoph Reimann      : Effective Core Potentials
   Marius Retegan         : Local ZFS, SOC
   Christoph Riplinger    : Optimizer, TS searches, QM/MM, DLPNO-CCSD(T), (RO)-DLPNO pert. Triples
   Tobias Risthaus        : Range-separated hybrids, TD-DFT gradient, RPA, STAB
   Michael Roemelt        : Original ROCIS implementation
   Masaaki Saitow         : Open-shell DLPNO-CCSD energy and density
   Barbara Sandhoefer     : DKH picture change effects
   Avijit Sen             : IP-ROCIS
   Kantharuban Sivalingam : CASSCF convergence, NEVPT2, FIC-MRCI
   Bernardo de Souza      : ESD, SOC TD-DFT
   Georgi Stoychev        : AutoAux, RI-MP2 NMR, DLPNO-MP2 response
   Willem Van den Heuvel  : Paramagnetic NMR
   Boris Wezisla          : Elementary symmetry handling
   Frank Wennmohs         : Technical directorship


 We gratefully acknowledge several colleagues who have allowed us to
 interface, adapt or use parts of their codes:
   Stefan Grimme, W. Hujo, H. Kruse, P. Pracht,  : VdW corrections, initial TS optimization,
                  C. Bannwarth, S. Ehlert          DFT functionals, gCP, sTDA/sTD-DF
   Ed Valeev, F. Pavosevic, A. Kumar             : LibInt (2-el integral package), F12 methods
   Garnet Chan, S. Sharma, J. Yang, R. Olivares  : DMRG
   Ulf Ekstrom                                   : XCFun DFT Library
   Mihaly Kallay                                 : mrcc  (arbitrary order and MRCC methods)
   Jiri Pittner, Ondrej Demel                    : Mk-CCSD
   Frank Weinhold                                : gennbo (NPA and NBO analysis)
   Christopher J. Cramer and Donald G. Truhlar   : smd solvation model
   Lars Goerigk                                  : TD-DFT with DH, B97 family of functionals
   V. Asgeirsson, H. Jonsson                     : NEB implementation
   FAccTs GmbH                                   : IRC, NEB, NEB-TS, DLPNO-Multilevel, CI-OPT
                                                   MM, QMMM, 2- and 3-layer-ONIOM, Crystal-QMMM,
                                                   LR-CPCM, SF, NACMEs, symmetry and pop. for TD-DFT,
                                                   nearIR, NL-DFT gradient (VV10), updates on ESD,
                                                   ML-optimized integration grids
   S Lehtola, MJT Oliveira, MAL Marques          : LibXC Library
   Liviu Ungur et al                             : ANISO software


 Your calculation uses the libint2 library for the computation of 2-el integrals
 For citations please refer to: http://libint.valeyev.net

 Your ORCA version has been built with support for libXC version: 5.1.0
 For citations please refer to: https://tddft.org/programs/libxc/

 This ORCA versions uses:
   CBLAS   interface :  Fast vector & matrix operations
   LAPACKE interface :  Fast linear algebra routines
   Shared memory     :  Shared parallel matrices


================================================================================

----- Orbital basis set information -----
Your calculation utilizes the basis: def2-QZVP
   F. Weigend and R. Ahlrichs, Phys. Chem. Chem. Phys. 7, 3297 (2005).

----- AuxJ basis set information -----
Your calculation utilizes the auxiliary basis: def2/J
   F. Weigend, Phys. Chem. Chem. Phys. 8, 1057 (2006).

================================================================================
                                        WARNINGS
                       Please study these warnings very carefully!
================================================================================


WARNING: Geometry Optimization
  ===> : Switching off AutoStart
         For restart on a previous wavefunction, please use MOREAD

INFO   : the flag for use of the SHARK integral package has been found!

================================================================================
                                       INPUT FILE
================================================================================
NAME = Fe_test4.inp
|  1> !UHF DEF2-QZVP def2/J OPT FREQ VERYSLOWCONV SOSCF RIJCOSX NOTRAH
|  2> 
|  3> * xyz 0 1
|  4>   Fe       -5.28583        0.91048        0.00000
|  5>   Fe       -6.03650       -1.96111        0.00000
|  6>   Fe       -2.41995        1.68268        0.00000
|  7>   Fe       -3.17062       -1.18891       -0.00000
|  8> **                         ****END OF INPUT****
================================================================================

                       *****************************
                       * Geometry Optimization Run *
                       *****************************

Geometry optimization settings:
Update method            Update   .... BFGS
Choice of coordinates    CoordSys .... Z-matrix Internals
Initial Hessian          InHess   .... Almoef's Model

Convergence Tolerances:
Energy Change            TolE     ....  5.0000e-06 Eh
Max. Gradient            TolMAXG  ....  3.0000e-04 Eh/bohr
RMS Gradient             TolRMSG  ....  1.0000e-04 Eh/bohr
Max. Displacement        TolMAXD  ....  4.0000e-03 bohr
RMS Displacement         TolRMSD  ....  2.0000e-03 bohr
Strict Convergence                ....  False
------------------------------------------------------------------------------
                        ORCA OPTIMIZATION COORDINATE SETUP
------------------------------------------------------------------------------

The optimization will be done in new redundant internal coordinates
Making redundant internal coordinates   ...  (new redundants) done
Evaluating the initial hessian          ...  (Almloef) done
Evaluating the coordinates              ...  done
Calculating the B-matrix                .... done
Calculating the G-matrix                .... done
Diagonalizing the G-matrix              .... done
The first mode is                       ....   13
The number of degrees of freedom        ....    6

    -----------------------------------------------------------------
                    Redundant Internal Coordinates


    -----------------------------------------------------------------
         Definition                    Initial Value    Approx d2E/dq
    -----------------------------------------------------------------
      1. B(Fe  1,Fe  0)                  2.9681         0.194202   
      2. B(Fe  2,Fe  0)                  2.9681         0.194198   
      3. B(Fe  3,Fe  0)                  2.9802         0.185753   
      4. B(Fe  3,Fe  2)                  2.9681         0.194202   
      5. B(Fe  3,Fe  1)                  2.9681         0.194198   
      6. A(Fe  1,Fe  0,Fe  2)          119.7300         0.426120   
      7. A(Fe  2,Fe  0,Fe  3)           59.8649         0.422743   
      8. A(Fe  1,Fe  0,Fe  3)           59.8651         0.422745   
      9. A(Fe  0,Fe  1,Fe  3)           60.2700         0.426120   
     10. A(Fe  0,Fe  2,Fe  3)           60.2700         0.426120   
     11. A(Fe  0,Fe  3,Fe  2)           59.8651         0.422745   
     12. A(Fe  0,Fe  3,Fe  1)           59.8649         0.422743   
     13. A(Fe  1,Fe  3,Fe  2)          119.7300         0.426120   
     14. D(Fe  3,Fe  1,Fe  0,Fe  2)      0.0000         0.001518   
     15. D(Fe  3,Fe  2,Fe  0,Fe  1)      0.0000         0.001518   
     16. D(Fe  1,Fe  3,Fe  0,Fe  2)    180.0000         0.001519   
     17. D(Fe  2,Fe  3,Fe  1,Fe  0)      0.0000         0.001518   
     18. D(Fe  1,Fe  3,Fe  2,Fe  0)      0.0000         0.001518   
     19. D(Fe  2,Fe  3,Fe  0,Fe  1)    180.0000         0.001519   
    -----------------------------------------------------------------

Number of atoms                         .... 4
Number of degrees of freedom            .... 19

         *************************************************************
         *                GEOMETRY OPTIMIZATION CYCLE   1            *
         *************************************************************
---------------------------------
CARTESIAN COORDINATES (ANGSTROEM)
---------------------------------
  Fe    -5.285830    0.910480    0.000000
  Fe    -6.036500   -1.961110    0.000000
  Fe    -2.419950    1.682680    0.000000
  Fe    -3.170620   -1.188910   -0.000000

----------------------------
CARTESIAN COORDINATES (A.U.)
----------------------------
  NO LB      ZA    FRAG     MASS         X           Y           Z
   0 Fe   26.0000    0    55.850   -9.988771    1.720558    0.000000
   1 Fe   26.0000    0    55.850  -11.407332   -3.705961    0.000000
   2 Fe   26.0000    0    55.850   -4.573043    3.179804    0.000000
   3 Fe   26.0000    0    55.850   -5.991603   -2.246714   -0.000000

--------------------------------
INTERNAL COORDINATES (ANGSTROEM)
--------------------------------
 Fe     0   0   0     0.000000000000     0.00000000     0.00000000
 Fe     1   0   0     2.968086012399     0.00000000     0.00000000
 Fe     1   2   0     2.968090466007   119.72999256     0.00000000
 Fe     3   1   2     2.968086012399    60.27000744     0.00000000

---------------------------
INTERNAL COORDINATES (A.U.)
---------------------------
 Fe     0   0   0     0.000000000000     0.00000000     0.00000000
 Fe     1   0   0     5.608869705357     0.00000000     0.00000000
 Fe     1   2   0     5.608878121455   119.72999256     0.00000000
 Fe     3   1   2     5.608869705357    60.27000744     0.00000000

---------------------
BASIS SET INFORMATION
---------------------
There are 1 groups of distinct atoms

 Group   1 Type Fe  : 24s18p10d3f1g contracted to 11s6p5d3f1g pattern {114111111111/951111/61111/111/1}

Atom   0Fe   basis set group =>   1
Atom   1Fe   basis set group =>   1
Atom   2Fe   basis set group =>   1
Atom   3Fe   basis set group =>   1
---------------------------------
AUXILIARY/J BASIS SET INFORMATION
---------------------------------
There are 1 groups of distinct atoms

 Group   1 Type Fe  : 19s5p5d3f3g contracted to 8s5p5d2f3g pattern {121111111/11111/11111/21/111}

Atom   0Fe   basis set group =>   1
Atom   1Fe   basis set group =>   1
Atom   2Fe   basis set group =>   1
Atom   3Fe   basis set group =>   1
------------------------------------------------------------------------------
                           ORCA GTO INTEGRAL CALCULATION
                           -- RI-GTO INTEGRALS CHOSEN --
------------------------------------------------------------------------------
------------------------------------------------------------------------------
                   ___                                                        
                  /   \      - P O W E R E D   B Y -                         
                 /     \                                                     
                 |  |  |   _    _      __       _____    __    __             
                 |  |  |  | |  | |    /  \     |  _  \  |  |  /  |          
                  \  \/   | |  | |   /    \    | | | |  |  | /  /          
                 / \  \   | |__| |  /  /\  \   | |_| |  |  |/  /          
                |  |  |   |  __  | /  /__\  \  |    /   |      \           
                |  |  |   | |  | | |   __   |  |    \   |  |\   \          
                \     /   | |  | | |  |  |  |  | |\  \  |  | \   \       
                 \___/    |_|  |_| |__|  |__|  |_| \__\ |__|  \__/        
                                                                              
                      - O R C A' S   B I G   F R I E N D -                    
                                      &                                       
                       - I N T E G R A L  F E E D E R -                       
                                                                              
 v1 FN, 2020, v2 2021                                                         
------------------------------------------------------------------------------


Reading SHARK input file Fe_test4.SHARKINP.tmp ... ok
----------------------
SHARK INTEGRAL PACKAGE
----------------------

Number of atoms                             ...      4
Number of basis functions                   ...    336
Number of shells                            ...    104
Maximum angular momentum                    ...      4
Integral batch strategy                     ... SHARK/LIBINT Hybrid
RI-J (if used) integral strategy            ... SPLIT-RIJ (Revised 2003 algorithm where possible)
Printlevel                                  ...      1
Contraction scheme used                     ... SEGMENTED contraction
Coulomb Range Separation                    ... NOT USED
Exchange Range Separation                   ... NOT USED
Finite Nucleus Model                        ... NOT USED
Auxiliary Coulomb fitting basis             ... AVAILABLE
   # of basis functions in Aux-J            ...    356
   # of shells in Aux-J                     ...     92
   Maximum angular momentum in Aux-J        ...      4
Auxiliary J/K fitting basis                 ... NOT available
Auxiliary Correlation fitting basis         ... NOT available
Auxiliary 'external' fitting basis          ... NOT available
Integral threshold                          ...     2.500000e-11
Primitive cut-off                           ...     2.500000e-12
Primitive pair pre-selection threshold      ...     2.500000e-12

Calculating pre-screening integrals         ... done (  2.4 sec) Dimension = 104
Organizing shell pair data                  ... done (  0.5 sec)
Shell pair information
Total number of shell pairs                 ...      5460
Shell pairs after pre-screening             ...      4478
Total number of primitive shell pairs       ...     25688
Primitive shell pairs kept                  ...     14388
          la=0 lb=0:    686 shell pairs
          la=1 lb=0:    908 shell pairs
          la=1 lb=1:    289 shell pairs
          la=2 lb=0:    756 shell pairs
          la=2 lb=1:    458 shell pairs
          la=2 lb=2:    201 shell pairs
          la=3 lb=0:    352 shell pairs
          la=3 lb=1:    256 shell pairs
          la=3 lb=2:    218 shell pairs
          la=3 lb=3:     55 shell pairs
          la=4 lb=0:    100 shell pairs
          la=4 lb=1:     82 shell pairs
          la=4 lb=2:     76 shell pairs
          la=4 lb=3:     32 shell pairs
          la=4 lb=4:      9 shell pairs

Calculating one electron integrals          ... done (  0.3 sec)
Calculating RI/J V-Matrix + Cholesky decomp.... done (  0.0 sec)
Calculating Nuclear repulsion               ... done (  0.0 sec) ENN=    671.806106846323 Eh

SHARK setup successfully completed in   6.8 seconds

Maximum memory used throughout the entire GTOINT-calculation: 237.9 MB
-------------------------------------------------------------------------------
                                 ORCA SCF
-------------------------------------------------------------------------------

------------
SCF SETTINGS
------------
Hamiltonian:
 Ab initio Hamiltonian  Method          .... Hartree-Fock(GTOs)
 RI-approximation to the Coulomb term is turned on
   Number of AuxJ basis functions       .... 356
   RIJ-COSX (HFX calculated with COS-X)).... on


General Settings:
 Integral files         IntName         .... Fe_test4
 Hartree-Fock type      HFTyp           .... UHF
 Total Charge           Charge          ....    0
 Multiplicity           Mult            ....    1
 Number of Electrons    NEL             ....  104
 Basis Dimension        Dim             ....  336
 Nuclear Repulsion      ENuc            ....    671.8061068463 Eh

Convergence Acceleration:
 DIIS                   CNVDIIS         .... on
   Start iteration      DIISMaxIt       ....     0
   Startup error        DIISStart       ....  0.200000
   # of expansion vecs  DIISMaxEq       ....     5
   Bias factor          DIISBfac        ....   1.050
   Max. coefficient     DIISMaxC        ....  10.000
 Trust-Rad. Augm. Hess. CNVTRAH         .... off
 SOSCF                  CNVSOSCF        .... on
   Start iteration      SOSCFMaxIt      ....   150
   Startup grad/error   SOSCFStart      ....  0.001000
 Level Shifting         CNVShift        .... on
   Level shift para.    LevelShift      ....    0.2500
   Turn off err/grad.   ShiftErr        ....    0.0000
 Zerner damping         CNVZerner       .... off
 Static damping         CNVDamp         .... on
   Fraction old density DampFac         ....    0.9200
   Max. Damping (<1)    DampMax         ....    0.9800
   Min. Damping (>=0)   DampMin         ....    0.0000
   Turn off err/grad.   DampErr         ....    0.0030
 Fernandez-Rico         CNVRico         .... off

SCF Procedure:
 Maximum # iterations   MaxIter         ....   125
 SCF integral mode      SCFMode         .... Direct
   Integral package                     .... SHARK and LIBINT hybrid scheme
 Reset frequency        DirectResetFreq ....    20
 Integral Threshold     Thresh          ....  2.500e-11 Eh
 Primitive CutOff       TCut            ....  2.500e-12 Eh

Convergence Tolerance:
 Convergence Check Mode ConvCheckMode   .... Total+1el-Energy
 Convergence forced     ConvForced      .... 0
 Energy Change          TolE            ....  1.000e-08 Eh
 1-El. energy change                    ....  1.000e-05 Eh
 Orbital Gradient       TolG            ....  1.000e-05
 Orbital Rotation angle TolX            ....  1.000e-05
 DIIS Error             TolErr          ....  5.000e-07


Diagonalization of the overlap matrix:
Smallest eigenvalue                        ... 3.126e-04
Time for diagonalization                   ...    0.047 sec
Threshold for overlap eigenvalues          ... 1.000e-08
Number of eigenvalues below threshold      ... 0
Time for construction of square roots      ...    0.023 sec
Total time needed                          ...    0.071 sec

Time for model grid setup =    0.713 sec

------------------------------
INITIAL GUESS: MODEL POTENTIAL
------------------------------
Loading Hartree-Fock densities                     ... done
Calculating cut-offs                               ... done
Initializing the effective Hamiltonian             ... done
Setting up the integral package (SHARK)            ... done
Starting the Coulomb interaction                   ... done (   1.3 sec)
Reading the grid                                   ... done
Mapping shells                                     ... done
Starting the XC term evaluation                    ... done (   0.6 sec)
Transforming the Hamiltonian                       ... done (   0.0 sec)
Diagonalizing the Hamiltonian                      ... done (   0.0 sec)
Back transforming the eigenvectors                 ... done (   0.0 sec)
Now organizing SCF variables                       ... done
                      ------------------
                      INITIAL GUESS DONE (   2.7 sec)
                      ------------------
--------------------
COSX GRID GENERATION
--------------------

GRIDX 1
-------
General Integration Accuracy     IntAcc      ... 3.816
Radial Grid Type                 RadialGrid  ... OptM3 with GC (2021)
Angular Grid (max. ang.)         AngularGrid ... 1 (Lebedev-50)
Angular grid pruning method      GridPruning ... 4 (adaptive)
Weight generation scheme         WeightScheme... Becke
Basis function cutoff            BFCut       ... 1.0000e-11
Integration weight cutoff        WCut        ... 1.0000e-14
Angular grids for H and He will be reduced by one unit
Partially contracted basis set               ... on
Rotationally invariant grid construction     ... off

Total number of grid points                  ...     4950
Total number of batches                      ...       80
Average number of points per batch           ...       61
Average number of grid points per atom       ...     1238
UseSFitting                                  ... on

GRIDX 2
-------
General Integration Accuracy     IntAcc      ... 4.020
Radial Grid Type                 RadialGrid  ... OptM3 with GC (2021)
Angular Grid (max. ang.)         AngularGrid ... 2 (Lebedev-110)
Angular grid pruning method      GridPruning ... 4 (adaptive)
Weight generation scheme         WeightScheme... Becke
Basis function cutoff            BFCut       ... 1.0000e-11
Integration weight cutoff        WCut        ... 1.0000e-14
Angular grids for H and He will be reduced by one unit
Partially contracted basis set               ... on
Rotationally invariant grid construction     ... off

Total number of grid points                  ...    10812
Total number of batches                      ...      170
Average number of points per batch           ...       63
Average number of grid points per atom       ...     2703
UseSFitting                                  ... on

GRIDX 3
-------
General Integration Accuracy     IntAcc      ... 4.338
Radial Grid Type                 RadialGrid  ... OptM3 with GC (2021)
Angular Grid (max. ang.)         AngularGrid ... 3 (Lebedev-194)
Angular grid pruning method      GridPruning ... 4 (adaptive)
Weight generation scheme         WeightScheme... Becke
Basis function cutoff            BFCut       ... 1.0000e-11
Integration weight cutoff        WCut        ... 1.0000e-14
Angular grids for H and He will be reduced by one unit
Partially contracted basis set               ... on
Rotationally invariant grid construction     ... off

Total number of grid points                  ...    24948
Total number of batches                      ...      392
Average number of points per batch           ...       63
Average number of grid points per atom       ...     6237
UseSFitting                                  ... on

Time for X-Grid setup             =    2.422 sec

--------------
SCF ITERATIONS
--------------
ITER       Energy         Delta-E        Max-DP      RMS-DP      [F,P]     Damp
               ***  Starting incremental Fock matrix formation  ***
  0  -5046.7749737329   0.000000000000 0.01009653  0.00020388  0.2963585 0.9200
  1  -5046.9121038810  -0.137130148041 0.00970002  0.00021814  0.2728281 0.9200
                               ***Turning on DIIS***
  2  -5046.9984233885  -0.086319507589 0.00835868  0.00018657  0.2510030 0.9200
  3  -5049.5047528309  -2.506329442367 0.00538786  0.00013722  0.2310776 0.9200
  4  -5051.6852183066  -2.180465475645 0.00544451  0.00011336  0.2127491 0.9200
  5  -5054.3102906856  -2.625072379022 0.00530861  0.00009941  0.1957572 0.9200
  6  -5054.5353123511  -0.225021665507 0.00503125  0.00009629  0.1800415 0.9200
  7  -5052.4844515763   2.050860774743 0.00480515  0.00010017  0.1655914 0.9200
  8  -5050.8278976711   1.656553905248 0.00585364  0.00010641  0.1523512 0.9200
  9  -5049.7718188292   1.056078841855 0.00667755  0.00011106  0.1402057 0.9200
 10  -5049.8737099312  -0.101891101924 0.00682269  0.00011290  0.1290320 0.9200
 11  -5049.8704260020   0.003283929145 0.00654317  0.00011153  0.1187249 0.9200
 12  -5049.5128637046   0.357562297389 0.00625657  0.00010899  0.1092308 0.9200
 13  -5049.1666630008   0.346200703862 0.00620964  0.00010764  0.1005013 0.9200
 14  -5048.8692658990   0.297397101720 0.00621454  0.00010709  0.0924769 0.9200
 15  -5048.7109783070   0.158287592081 0.00610227  0.00010602  0.0850959 0.9200
 16  -5048.6305798865   0.080398420436 0.00588088  0.00010383  0.0783000 0.9200
 17  -5048.5424949382   0.088084948304 0.00563503  0.00010112  0.0720419 0.9200
 18  -5048.4685877596   0.073907178674 0.00543206  0.00009900  0.0662822 0.9200
 19  -5048.4155988635   0.052988896028 0.00526401  0.00009779  0.0609832 0.9200
               *** Restarting incremental Fock matrix formation ***
                                   *** Resetting DIIS ***
 20  -5047.6567850142   0.758813849279 0.00435943  0.00008353  0.0556788 0.9200
 21  -5047.8009331747  -0.144148160452 0.00397422  0.00007615  0.0512398 0.9200
 22  -5048.0813859816  -0.280452806946 0.00388050  0.00007380  0.0471512 0.9200
 23  -5048.3241746473  -0.242788665704 0.00391165  0.00007486  0.0433829 0.9200
 24  -5048.4408585103  -0.116683862969 0.00395854  0.00007799  0.0399102 0.9200
 25  -5048.2694290991   0.171429411217 0.00390129  0.00008054  0.0367119 0.9200
 26  -5048.1800059217   0.089423177382 0.00447407  0.00008302  0.0337711 0.9200
 27  -5048.2184746048  -0.038468683048 0.00507878  0.00008551  0.0310665 0.9200
 28  -5048.3374027926  -0.118928187840 0.00566593  0.00008802  0.0286006 0.9200
 29  -5048.4711241361  -0.133721343527 0.00622522  0.00009048  0.0263315 0.9200
 30  -5048.5812856452  -0.110161509037 0.00675200  0.00009285  0.0242401 0.9200
 31  -5048.6816061044  -0.100320459189 0.00723081  0.00009502  0.0223137 0.9200
 32  -5048.7866883480  -0.105082243675 0.00764938  0.00009689  0.0205551 0.9200
 33  -5048.8962816283  -0.109593280260 0.00800191  0.00009839  0.0194599 0.9200
 34  -5049.0011614662  -0.104879837872 0.00828559  0.00009944  0.0183907 0.9200
 35  -5049.0936905351  -0.092529068896 0.00849831  0.00009996  0.0173554 0.9200
 36  -5049.1725107285  -0.078820193476 0.00863853  0.00009989  0.0163583 0.9200
 37  -5049.2391916398  -0.066680911295 0.00870622  0.00009919  0.0154017 0.9200
 38  -5049.2946143534  -0.055422713605 0.00870164  0.00009786  0.0144875 0.9200
 39  -5049.3381501429  -0.043535789489 0.00862565  0.00009592  0.0136173 0.9200
               *** Restarting incremental Fock matrix formation ***
                                   *** Resetting DIIS ***
 40  -5048.2036901309   1.134460011986 0.00639193  0.00007325  0.0135975 0.9200
 41  -5048.2884941137  -0.084803982809 0.00478104  0.00006093  0.0139979 0.9200
 42  -5048.4630618620  -0.174567748261 0.00411721  0.00005537  0.0144953 0.9200
 43  -5048.6842138082  -0.221151946207 0.00415044  0.00005473  0.0146041 0.9200
 44  -5048.9042148072  -0.220000999014 0.00466717  0.00005791  0.0144432 0.9200
 45  -5048.8762289147   0.027985892490 0.00524400  0.00006101  0.0142931 0.9200
 46  -5048.9130698893  -0.036840974524 0.00562859  0.00006317  0.0143761 0.9200
 47  -5048.9871409665  -0.074071077230 0.00578724  0.00006392  0.0144543 0.9200
 48  -5049.0475232766  -0.060382310141 0.00576340  0.00006336  0.0145294 0.9200
 49  -5049.0711101949  -0.023586918282 0.00561341  0.00006187  0.0146033 0.9200
 50  -5049.0610098251   0.010100369864 0.00538876  0.00005992  0.0146770 0.9200
 51  -5049.0281538837   0.032855941316 0.00510804  0.00005770  0.0147506 0.9200
 52  -5048.9792571700   0.048896713706 0.00478251  0.00005528  0.0148245 0.9200
 53  -5048.9190877091   0.060169460892 0.00442907  0.00005277  0.0148987 0.9200
 54  -5048.8524149665   0.066672742634 0.00406824  0.00005028  0.0149733 0.9200
 55  -5048.7842111788   0.068203787710 0.00371832  0.00004792  0.0150475 0.9200
 56  -5048.7191428273   0.065068351509 0.00339223  0.00004576  0.0151206 0.9200
 57  -5048.6608722395   0.058270587806 0.00309713  0.00004384  0.0151918 0.9200
 58  -5048.6116782610   0.049193978437 0.00283520  0.00004219  0.0152605 0.9200
 59  -5048.5723868361   0.039291424993 0.00260478  0.00004083  0.0153262 0.9200
               *** Restarting incremental Fock matrix formation ***
                                   *** Resetting DIIS ***
 60  -5048.4454008781   0.126985957995 0.00238288  0.00003865  0.0153887 0.9200
 61  -5048.4540495534  -0.008648675335 0.00226641  0.00003757  0.0154521 0.9200
 62  -5048.4646020064  -0.010552453045 0.00237399  0.00003713  0.0155091 0.9200
 63  -5048.4761176244  -0.011515618004 0.00251887  0.00003711  0.0155613 0.9200
 64  -5048.4847683459  -0.008650721418 0.00268463  0.00003737  0.0156100 0.9200
 65  -5048.4918912890  -0.007122943183 0.00285703  0.00003784  0.0156562 0.9200
 66  -5048.4942199139  -0.002328624818 0.00302248  0.00003841  0.0157003 0.9200
 67  -5048.4928726979   0.001347216001 0.00317212  0.00003903  0.0157429 0.9200
 68  -5048.4895941475   0.003278550384 0.00330213  0.00003965  0.0157841 0.9200
 69  -5048.4860620925   0.003532054940 0.00341253  0.00004028  0.0158239 0.9200
 70  -5048.4835970175   0.002465075062 0.00350557  0.00004091  0.0158622 0.9200
 71  -5048.4832197578   0.000377259648 0.00358444  0.00004158  0.0158988 0.9200
 72  -5048.4854127856  -0.002193027811 0.00365210  0.00004230  0.0159337 0.9200
 73  -5048.4901911532  -0.004778367551 0.00371061  0.00004307  0.0159668 0.9200
 74  -5048.4972651651  -0.007074011957 0.00376093  0.00004391  0.0159979 0.9200
 75  -5048.5062056083  -0.008940443204 0.00380302  0.00004479  0.0160271 0.9200
 76  -5048.5165700236  -0.010364415282 0.00383615  0.00004573  0.0160542 0.9200
 77  -5048.5279889114  -0.011418887794 0.00385925  0.00004668  0.0160792 0.9200
 78  -5048.5402003546  -0.012211443134 0.00387119  0.00004766  0.0161022 0.9200
 79  -5048.5530453867  -0.012845032121 0.00387095  0.00004863  0.0161230 0.9200
               *** Restarting incremental Fock matrix formation ***
                                   *** Resetting DIIS ***
 80  -5048.5528122760   0.000233110635 0.00384533  0.00004933  0.0161416 0.9200
 81  -5048.5581434170  -0.005331140936 0.00380251  0.00004994  0.0161587 0.9200
 82  -5048.5677382813  -0.009594864283 0.00374791  0.00005055  0.0161739 0.9200
 83  -5048.5856992730  -0.017960991727 0.00378618  0.00005129  0.0161865 0.9200
 84  -5048.6175845839  -0.031885310922 0.00389640  0.00005236  0.0161977 0.9200
 85  -5048.6354880152  -0.017903431273 0.00400343  0.00005335  0.0162582 0.9200
 86  -5048.6537732953  -0.018285280119 0.00410588  0.00005430  0.0163099 0.9200
 87  -5048.6718778771  -0.018104581826 0.00420190  0.00005519  0.0163522 0.9200
 88  -5048.6894932497  -0.017615372553 0.00428999  0.00005601  0.0163847 0.9200
 89  -5048.7065900906  -0.017096840937 0.00436922  0.00005674  0.0164069 0.9200
 90  -5048.7236980809  -0.017107990245 0.00443999  0.00005741  0.0164186 0.9200
 91  -5048.7407678453  -0.017069764444 0.00450267  0.00005801  0.0164190 0.9200
 92  -5048.7577366372  -0.016968791899 0.00455754  0.00005856  0.0164079 0.9200
 93  -5048.7745423966  -0.016805759375 0.00460471  0.00005905  0.0163844 0.9200
 94  -5048.7911083427  -0.016565946129 0.00464415  0.00005950  0.0163479 0.9200
 95  -5048.8073294921  -0.016221149408 0.00467562  0.00005991  0.0162978 0.9200
 96  -5048.8230868537  -0.015757361629 0.00469877  0.00006027  0.0162357 0.9200
 97  -5048.8382434902  -0.015156636409 0.00471309  0.00006059  0.0161768 0.9200
 98  -5048.8526404905  -0.014397000305 0.00471795  0.00006086  0.0161019 0.9200
 99  -5048.8660935676  -0.013453077159 0.00471256  0.00006107  0.0160105 0.9200
               *** Restarting incremental Fock matrix formation ***
                                   *** Resetting DIIS ***
100  -5048.6245033990   0.241590168598 0.00433125  0.00005474  0.0159019 0.9200
101  -5048.6352457318  -0.010742332757 0.00401668  0.00005086  0.0158188 0.9200
102  -5048.6641051454  -0.028859413651 0.00380705  0.00004867  0.0157493 0.9200
103  -5048.7191458539  -0.055040708448 0.00372208  0.00004823  0.0157102 0.9200
104  -5048.8061287826  -0.086982928677 0.00376857  0.00004984  0.0156618 0.9200
105  -5048.8063475251  -0.000218742558 0.00381632  0.00005101  0.0155963 0.9200
106  -5048.8137487646  -0.007401239527 0.00386139  0.00005200  0.0155231 0.9200
107  -5048.8264099385  -0.012661173845 0.00388965  0.00005282  0.0154418 0.9200
108  -5048.8401149802  -0.013705041711 0.00389671  0.00005338  0.0153528 0.9200
109  -5048.8502086122  -0.010093632043 0.00387867  0.00005359  0.0152578 0.9200
110  -5048.8532259167  -0.003017304471 0.00383462  0.00005345  0.0151587 0.9200
111  -5048.8495271458   0.003698770910 0.00376335  0.00005290  0.0150574 0.9200
112  -5048.8396456481   0.009881497690 0.00366398  0.00005192  0.0149562 0.9200
113  -5048.8238839458   0.015761702356 0.00353690  0.00005052  0.0148572 0.9200
114  -5048.8026608883   0.021223057416 0.00338444  0.00004872  0.0147626 0.9200
115  -5048.7769243725   0.025736515858 0.00321128  0.00004658  0.0146741 0.9200
116  -5048.7483692319   0.028555140612 0.00302435  0.00004422  0.0145926 0.9200
117  -5048.7191890104   0.029180221467 0.00283219  0.00004176  0.0145183 0.9200
118  -5048.6916354635   0.027553546914 0.00264376  0.00003934  0.0144504 0.9200
119  -5048.6675583802   0.024077083273 0.00246700  0.00003709  0.0143879 0.9200
               *** Restarting incremental Fock matrix formation ***
                                   *** Resetting DIIS ***
120  -5048.6812241694  -0.013665789207 0.00234934  0.00003606  0.0143294 0.9200
121  -5048.6813799286  -0.000155759226 0.00225980  0.00003538  0.0142677 0.9200
122  -5048.6723359007   0.009044027980 0.00217493  0.00003466  0.0142054 0.9200
123  -5048.6470518180   0.025284082629 0.00207066  0.00003342  0.0141448 0.9200
124  -5048.6042865957   0.042765222350 0.00193127  0.00003134  0.0140891 0.9200

               *****************************************************
               *                      ERROR                        *
               *        SCF NOT CONVERGED AFTER 125 CYCLES         *
               *****************************************************


---------------
SCF CONVERGENCE
---------------

  Last Energy change         ...    4.2765e-02  Tolerance :   1.0000e-08
  Last MAX-Density change    ...    1.9313e-03  Tolerance :   1.0000e-07
  Last RMS-Density change    ...    3.1341e-05  Tolerance :   5.0000e-09
  Last DIIS Error            ...    1.4089e-02  Tolerance :   5.0000e-07

     --------------------------------------------------------------------
                                      ERROR
     This wavefunction IS NOT CONVERGED! 
     And it is 'too far' from meeting the convergence thresholds.
     Aborting ...
     Please restart calculation (with larger maxiter?)
     --------------------------------------------------------------------



ORCA finished by error termination in SCF
Calling Command: orca_scf Fe_test4.gbw b 
[file orca_tools/qcmsg.cpp, line 465]: 
  .... aborting the run

