
                                 *****************
                                 * O   R   C   A *
                                 *****************

                                            #,                                       
                                            ###                                      
                                            ####                                     
                                            #####                                    
                                            ######                                   
                                           ########,                                 
                                     ,,################,,,,,                         
                               ,,#################################,,                 
                          ,,##########################################,,             
                       ,#########################################, ''#####,          
                    ,#############################################,,   '####,        
                  ,##################################################,,,,####,       
                ,###########''''           ''''###############################       
              ,#####''   ,,,,##########,,,,          '''####'''          '####       
            ,##' ,,,,###########################,,,                        '##       
           ' ,,###''''                  '''############,,,                           
         ,,##''                                '''############,,,,        ,,,,,,###''
      ,#''                                            '''#######################'''  
     '                                                          ''''####''''         
             ,#######,   #######,   ,#######,      ##                                
            ,#'     '#,  ##    ##  ,#'     '#,    #''#        ######   ,####,        
            ##       ##  ##   ,#'  ##            #'  '#       #        #'  '#        
            ##       ##  #######   ##           ,######,      #####,   #    #        
            '#,     ,#'  ##    ##  '#,     ,#' ,#      #,         ##   #,  ,#        
             '#######'   ##     ##  '#######'  #'      '#     #####' # '####'        



                  #######################################################
                  #                        -***-                        #
                  #          Department of theory and spectroscopy      #
                  #    Directorship and core code : Frank Neese         #
                  #        Max Planck Institute fuer Kohlenforschung    #
                  #                Kaiser Wilhelm Platz 1               #
                  #                 D-45470 Muelheim/Ruhr               #
                  #                      Germany                        #
                  #                                                     #
                  #                  All rights reserved                #
                  #                        -***-                        #
                  #######################################################



                         Program Version 5.0.4 -  RELEASE  -

 With contributions from (in alphabetic order):
   Daniel Aravena         : Magnetic Suceptibility
   Michael Atanasov       : Ab Initio Ligand Field Theory (pilot matlab implementation)
   Alexander A. Auer      : GIAO ZORA, VPT2 properties, NMR spectrum
   Ute Becker             : Parallelization
   Giovanni Bistoni       : ED, misc. LED, open-shell LED, HFLD
   Martin Brehm           : Molecular dynamics
   Dmytro Bykov           : SCF Hessian
   Vijay G. Chilkuri      : MRCI spin determinant printing, contributions to CSF-ICE
   Dipayan Datta          : RHF DLPNO-CCSD density
   Achintya Kumar Dutta   : EOM-CC, STEOM-CC
   Dmitry Ganyushin       : Spin-Orbit,Spin-Spin,Magnetic field MRCI
   Miquel Garcia          : C-PCM and meta-GGA Hessian, CC/C-PCM, Gaussian charge scheme
   Yang Guo               : DLPNO-NEVPT2, F12-NEVPT2, CIM, IAO-localization
   Andreas Hansen         : Spin unrestricted coupled pair/coupled cluster methods
   Benjamin Helmich-Paris : MC-RPA, TRAH-SCF, COSX integrals
   Lee Huntington         : MR-EOM, pCC
   Robert Izsak           : Overlap fitted RIJCOSX, COSX-SCS-MP3, EOM
   Marcus Kettner         : VPT2
   Christian Kollmar      : KDIIS, OOCD, Brueckner-CCSD(T), CCSD density, CASPT2, CASPT2-K
   Simone Kossmann        : Meta GGA functionals, TD-DFT gradient, OOMP2, MP2 Hessian
   Martin Krupicka        : Initial AUTO-CI
   Lucas Lang             : DCDCAS
   Marvin Lechner         : AUTO-CI (C++ implementation), FIC-MRCC
   Dagmar Lenk            : GEPOL surface, SMD
   Dimitrios Liakos       : Extrapolation schemes; Compound Job, initial MDCI parallelization
   Dimitrios Manganas     : Further ROCIS development; embedding schemes
   Dimitrios Pantazis     : SARC Basis sets
   Anastasios Papadopoulos: AUTO-CI, single reference methods and gradients
   Taras Petrenko         : DFT Hessian,TD-DFT gradient, ASA, ECA, R-Raman, ABS, FL, XAS/XES, NRVS
   Peter Pinski           : DLPNO-MP2, DLPNO-MP2 Gradient
   Christoph Reimann      : Effective Core Potentials
   Marius Retegan         : Local ZFS, SOC
   Christoph Riplinger    : Optimizer, TS searches, QM/MM, DLPNO-CCSD(T), (RO)-DLPNO pert. Triples
   Tobias Risthaus        : Range-separated hybrids, TD-DFT gradient, RPA, STAB
   Michael Roemelt        : Original ROCIS implementation
   Masaaki Saitow         : Open-shell DLPNO-CCSD energy and density
   Barbara Sandhoefer     : DKH picture change effects
   Avijit Sen             : IP-ROCIS
   Kantharuban Sivalingam : CASSCF convergence, NEVPT2, FIC-MRCI
   Bernardo de Souza      : ESD, SOC TD-DFT
   Georgi Stoychev        : AutoAux, RI-MP2 NMR, DLPNO-MP2 response
   Willem Van den Heuvel  : Paramagnetic NMR
   Boris Wezisla          : Elementary symmetry handling
   Frank Wennmohs         : Technical directorship


 We gratefully acknowledge several colleagues who have allowed us to
 interface, adapt or use parts of their codes:
   Stefan Grimme, W. Hujo, H. Kruse, P. Pracht,  : VdW corrections, initial TS optimization,
                  C. Bannwarth, S. Ehlert          DFT functionals, gCP, sTDA/sTD-DF
   Ed Valeev, F. Pavosevic, A. Kumar             : LibInt (2-el integral package), F12 methods
   Garnet Chan, S. Sharma, J. Yang, R. Olivares  : DMRG
   Ulf Ekstrom                                   : XCFun DFT Library
   Mihaly Kallay                                 : mrcc  (arbitrary order and MRCC methods)
   Jiri Pittner, Ondrej Demel                    : Mk-CCSD
   Frank Weinhold                                : gennbo (NPA and NBO analysis)
   Christopher J. Cramer and Donald G. Truhlar   : smd solvation model
   Lars Goerigk                                  : TD-DFT with DH, B97 family of functionals
   V. Asgeirsson, H. Jonsson                     : NEB implementation
   FAccTs GmbH                                   : IRC, NEB, NEB-TS, DLPNO-Multilevel, CI-OPT
                                                   MM, QMMM, 2- and 3-layer-ONIOM, Crystal-QMMM,
                                                   LR-CPCM, SF, NACMEs, symmetry and pop. for TD-DFT,
                                                   nearIR, NL-DFT gradient (VV10), updates on ESD,
                                                   ML-optimized integration grids
   S Lehtola, MJT Oliveira, MAL Marques          : LibXC Library
   Liviu Ungur et al                             : ANISO software


 Your calculation uses the libint2 library for the computation of 2-el integrals
 For citations please refer to: http://libint.valeyev.net

 Your ORCA version has been built with support for libXC version: 5.1.0
 For citations please refer to: https://tddft.org/programs/libxc/

 This ORCA versions uses:
   CBLAS   interface :  Fast vector & matrix operations
   LAPACKE interface :  Fast linear algebra routines
   Shared memory     :  Shared parallel matrices


================================================================================

----- Orbital basis set information -----
Your calculation utilizes the basis: def2-QZVPP
   F. Weigend and R. Ahlrichs, Phys. Chem. Chem. Phys. 7, 3297 (2005).

----- AuxJ basis set information -----
Your calculation utilizes the auxiliary basis: def2/J
   F. Weigend, Phys. Chem. Chem. Phys. 8, 1057 (2006).

================================================================================
                                        WARNINGS
                       Please study these warnings very carefully!
================================================================================


INFO   : the flag for use of the SHARK integral package has been found!

================================================================================
                                       INPUT FILE
================================================================================
NAME = neutral.inp
|  1> !B3LYP DEF2-QZVPP
|  2> 
|  3> %scf
|  4> convergence tight
|  5> end
|  6> 
|  7> * xyz 0 1
|  8>   C   -6.48685128277804      0.77688258612871      0.00000003669213
|  9>   C   -7.73381145284436      0.14568444861554     -0.00000001281082
| 10>   C   -7.78899585175133     -1.25047491000549      0.00000011071880
| 11>   C   -6.61307853819634     -2.00658591283547     -0.00000008160071
| 12>   C   -5.37350246533332     -1.36010178848815     -0.00000002916520
| 13>   C   -5.30222408891036      0.03530712324043      0.00000018545977
| 14>   H   -8.64519500876919      0.74587694922205     -0.00000005341796
| 15>   H   -8.76194889046812     -1.74856684410237      0.00000018644643
| 16>   H   -6.66266737522386     -3.09801741276813     -0.00000018313853
| 17>   H   -4.44947771966353     -1.94396554004229     -0.00000012119653
| 18>   H   -4.34031613114399      0.55064255938228      0.00000022091144
| 19>   Cl  -6.40746119491754      2.52416874165289     -0.00000025889883
| 20> **                         ****END OF INPUT****
================================================================================

                       ****************************
                       * Single Point Calculation *
                       ****************************

---------------------------------
CARTESIAN COORDINATES (ANGSTROEM)
---------------------------------
  C     -6.486851    0.776883    0.000000
  C     -7.733811    0.145684   -0.000000
  C     -7.788996   -1.250475    0.000000
  C     -6.613079   -2.006586   -0.000000
  C     -5.373502   -1.360102   -0.000000
  C     -5.302224    0.035307    0.000000
  H     -8.645195    0.745877   -0.000000
  H     -8.761949   -1.748567    0.000000
  H     -6.662667   -3.098017   -0.000000
  H     -4.449478   -1.943966   -0.000000
  H     -4.340316    0.550643    0.000000
  Cl    -6.407461    2.524169   -0.000000

----------------------------
CARTESIAN COORDINATES (A.U.)
----------------------------
  NO LB      ZA    FRAG     MASS         X           Y           Z
   0 C     6.0000    0    12.011  -12.258372    1.468095    0.000000
   1 C     6.0000    0    12.011  -14.614786    0.275304   -0.000000
   2 C     6.0000    0    12.011  -14.719069   -2.363055    0.000000
   3 C     6.0000    0    12.011  -12.496907   -3.791898   -0.000000
   4 C     6.0000    0    12.011  -10.154448   -2.570220   -0.000000
   5 C     6.0000    0    12.011  -10.019751    0.066721    0.000000
   6 H     1.0000    0     1.008  -16.337051    1.409503   -0.000000
   7 H     1.0000    0     1.008  -16.557684   -3.304312    0.000000
   8 H     1.0000    0     1.008  -12.590617   -5.854404   -0.000000
   9 H     1.0000    0     1.008   -8.408294   -3.673562   -0.000000
  10 H     1.0000    0     1.008   -8.202009    1.040564    0.000000
  11 Cl   17.0000    0    35.453  -12.108347    4.769988   -0.000000

--------------------------------
INTERNAL COORDINATES (ANGSTROEM)
--------------------------------
 C      0   0   0     0.000000000000     0.00000000     0.00000000
 C      1   0   0     1.397612519453     0.00000000     0.00000000
 C      2   1   0     1.397249538396   119.11154041     0.00000000
 C      3   2   1     1.398029104461   120.47739882     0.00000000
 C      4   3   2     1.398030959402   119.71543094     0.00000000
 C      5   4   3     1.397228198211   120.46784697     0.00000000
 H      2   1   3     1.091261207867   119.78500647   179.99999447
 H      3   2   1     1.093038512753   119.37313258   179.99999317
 H      4   3   2     1.092557445539   120.13945937   180.00001207
 H      5   4   3     1.093031843538   120.16874234   179.99999658
 H      6   5   4     1.091255025628   121.10403098   180.00000148
 Cl     1   2   3     1.749088818596   119.44956843   179.99999474

---------------------------
INTERNAL COORDINATES (A.U.)
---------------------------
 C      0   0   0     0.000000000000     0.00000000     0.00000000
 C      1   0   0     2.641104903106     0.00000000     0.00000000
 C      2   1   0     2.640418968316   119.11154041     0.00000000
 C      3   2   1     2.641892134682   120.47739882     0.00000000
 C      4   3   2     2.641895640014   119.71543094     0.00000000
 C      5   4   3     2.640378641212   120.46784697     0.00000000
 H      2   1   3     2.062184823440   119.78500647   179.99999447
 H      3   2   1     2.065543442931   119.37313258   179.99999317
 H      4   3   2     2.064634357646   120.13945937   180.00001207
 H      5   4   3     2.065530839943   120.16874234   179.99999658
 H      6   5   4     2.062173140702   121.10403098   180.00000148
 Cl     1   2   3     3.305298851050   119.44956843   179.99999474

---------------------
BASIS SET INFORMATION
---------------------
There are 3 groups of distinct atoms

 Group   1 Type C   : 15s8p3d2f1g contracted to 7s4p3d2f1g pattern {8211111/5111/111/11/1}
 Group   2 Type H   : 7s3p2d1f contracted to 4s3p2d1f pattern {4111/111/11/1}
 Group   3 Type Cl  : 20s14p4d2f1g contracted to 9s6p4d2f1g pattern {1031111111/821111/1111/11/1}

Atom   0C    basis set group =>   1
Atom   1C    basis set group =>   1
Atom   2C    basis set group =>   1
Atom   3C    basis set group =>   1
Atom   4C    basis set group =>   1
Atom   5C    basis set group =>   1
Atom   6H    basis set group =>   2
Atom   7H    basis set group =>   2
Atom   8H    basis set group =>   2
Atom   9H    basis set group =>   2
Atom  10H    basis set group =>   2
Atom  11Cl   basis set group =>   3
---------------------------------
AUXILIARY/J BASIS SET INFORMATION
---------------------------------
There are 3 groups of distinct atoms

 Group   1 Type C   : 12s5p4d2f1g contracted to 6s4p3d1f1g pattern {711111/2111/211/2/1}
 Group   2 Type H   : 5s2p1d contracted to 3s1p1d pattern {311/2/1}
 Group   3 Type Cl  : 14s5p5d2f1g contracted to 8s4p3d1f1g pattern {71111111/2111/311/2/1}

Atom   0C    basis set group =>   1
Atom   1C    basis set group =>   1
Atom   2C    basis set group =>   1
Atom   3C    basis set group =>   1
Atom   4C    basis set group =>   1
Atom   5C    basis set group =>   1
Atom   6H    basis set group =>   2
Atom   7H    basis set group =>   2
Atom   8H    basis set group =>   2
Atom   9H    basis set group =>   2
Atom  10H    basis set group =>   2
Atom  11Cl   basis set group =>   3
------------------------------------------------------------------------------
                           ORCA GTO INTEGRAL CALCULATION
                           -- RI-GTO INTEGRALS CHOSEN --
------------------------------------------------------------------------------
------------------------------------------------------------------------------
                   ___                                                        
                  /   \      - P O W E R E D   B Y -                         
                 /     \                                                     
                 |  |  |   _    _      __       _____    __    __             
                 |  |  |  | |  | |    /  \     |  _  \  |  |  /  |          
                  \  \/   | |  | |   /    \    | | | |  |  | /  /          
                 / \  \   | |__| |  /  /\  \   | |_| |  |  |/  /          
                |  |  |   |  __  | /  /__\  \  |    /   |      \           
                |  |  |   | |  | | |   __   |  |    \   |  |\   \          
                \     /   | |  | | |  |  |  |  | |\  \  |  | \   \       
                 \___/    |_|  |_| |__|  |__|  |_| \__\ |__|  \__/        
                                                                              
                      - O R C A' S   B I G   F R I E N D -                    
                                      &                                       
                       - I N T E G R A L  F E E D E R -                       
                                                                              
 v1 FN, 2020, v2 2021                                                         
------------------------------------------------------------------------------


Reading SHARK input file neutral.SHARKINP.tmp ... ok
----------------------
SHARK INTEGRAL PACKAGE
----------------------

Number of atoms                             ...     12
Number of basis functions                   ...    562
Number of shells                            ...    174
Maximum angular momentum                    ...      4
Integral batch strategy                     ... SHARK/LIBINT Hybrid
RI-J (if used) integral strategy            ... SPLIT-RIJ (Revised 2003 algorithm where possible)
Printlevel                                  ...      1
Contraction scheme used                     ... SEGMENTED contraction
Coulomb Range Separation                    ... NOT USED
Exchange Range Separation                   ... NOT USED
Finite Nucleus Model                        ... NOT USED
Auxiliary Coulomb fitting basis             ... AVAILABLE
   # of basis functions in Aux-J            ...    400
   # of shells in Aux-J                     ...    132
   Maximum angular momentum in Aux-J        ...      4
Auxiliary J/K fitting basis                 ... NOT available
Auxiliary Correlation fitting basis         ... NOT available
Auxiliary 'external' fitting basis          ... NOT available
Integral threshold                          ...     2.500000e-11
Primitive cut-off                           ...     2.500000e-12
Primitive pair pre-selection threshold      ...     2.500000e-12

Calculating pre-screening integrals         ... done (  3.3 sec) Dimension = 174
Organizing shell pair data                  ... done (  2.5 sec)
Shell pair information
Total number of shell pairs                 ...     15225
Shell pairs after pre-screening             ...     13304
Total number of primitive shell pairs       ...     39681
Primitive shell pairs kept                  ...     26672
          la=0 lb=0:   2045 shell pairs
          la=1 lb=0:   2800 shell pairs
          la=1 lb=1:    961 shell pairs
          la=2 lb=0:   1930 shell pairs
          la=2 lb=1:   1312 shell pairs
          la=2 lb=2:    468 shell pairs
          la=3 lb=0:   1164 shell pairs
          la=3 lb=1:    779 shell pairs
          la=3 lb=2:    551 shell pairs
          la=3 lb=3:    174 shell pairs
          la=4 lb=0:    458 shell pairs
          la=4 lb=1:    296 shell pairs
          la=4 lb=2:    210 shell pairs
          la=4 lb=3:    128 shell pairs
          la=4 lb=4:     28 shell pairs

Calculating one electron integrals          ... done (  0.7 sec)
Calculating RI/J V-Matrix + Cholesky decomp.... done (  0.1 sec)
Calculating Nuclear repulsion               ... done (  0.0 sec) ENN=    314.439010897161 Eh

SHARK setup successfully completed in  12.3 seconds

Maximum memory used throughout the entire GTOINT-calculation: 476.7 MB
-------------------------------------------------------------------------------
                                 ORCA SCF
-------------------------------------------------------------------------------

------------
SCF SETTINGS
------------
Hamiltonian:
 Density Functional     Method          .... DFT(GTOs)
 Exchange Functional    Exchange        .... B88
   X-Alpha parameter    XAlpha          ....  0.666667
   Becke's b parameter  XBeta           ....  0.004200
 Correlation Functional Correlation     .... LYP
 LDA part of GGA corr.  LDAOpt          .... VWN-5
 Gradients option       PostSCFGGA      .... off
 Hybrid DFT is turned on
   Fraction HF Exchange ScalHFX         ....  0.200000
   Scaling of DF-GGA-X  ScalDFX         ....  0.720000
   Scaling of DF-GGA-C  ScalDFC         ....  0.810000
   Scaling of DF-LDA-C  ScalLDAC        ....  1.000000
   Perturbative correction              ....  0.000000
   Density functional embedding theory  .... OFF
   NL short-range parameter             ....  4.800000
 RI-approximation to the Coulomb term is turned on
   Number of AuxJ basis functions       .... 400
   RIJ-COSX (HFX calculated with COS-X)).... on


General Settings:
 Integral files         IntName         .... neutral
 Hartree-Fock type      HFTyp           .... RHF
 Total Charge           Charge          ....    0
 Multiplicity           Mult            ....    1
 Number of Electrons    NEL             ....   58
 Basis Dimension        Dim             ....  562
 Nuclear Repulsion      ENuc            ....    314.4390108972 Eh

Convergence Acceleration:
 DIIS                   CNVDIIS         .... on
   Start iteration      DIISMaxIt       ....    12
   Startup error        DIISStart       ....  0.200000
   # of expansion vecs  DIISMaxEq       ....     5
   Bias factor          DIISBfac        ....   1.050
   Max. coefficient     DIISMaxC        ....  10.000
 Trust-Rad. Augm. Hess. CNVTRAH         .... auto
   Auto Start mean grad. ratio tolernc. ....  1.125000
   Auto Start start iteration           ....    20
   Auto Start num. interpolation iter.  ....    10
   Max. Number of Micro iterations      ....    16
   Max. Number of Macro iterations      .... Maxiter - #DIIS iter
   Number of Davidson start vectors     ....     2
   Converg. threshold I  (grad. norm)   ....   1.000e-05
   Converg. threshold II (energy diff.) ....   1.000e-08
   Grad. Scal. Fac. for Micro threshold ....   0.100
   Minimum threshold for Micro iter.    ....   0.010
   NR start threshold (gradient norm)   ....   0.001
   Initial trust radius                 ....   0.400
   Minimum AH scaling param. (alpha)    ....   1.000
   Maximum AH scaling param. (alpha)    .... 1000.000
   Orbital update algorithm             .... Taylor
   White noise on init. David. guess    .... on
   Maximum white noise                  ....   0.010
   Quad. conv. algorithm                .... NR
 SOSCF                  CNVSOSCF        .... on
   Start iteration      SOSCFMaxIt      ....   150
   Startup grad/error   SOSCFStart      ....  0.003300
 Level Shifting         CNVShift        .... on
   Level shift para.    LevelShift      ....    0.2500
   Turn off err/grad.   ShiftErr        ....    0.0010
 Zerner damping         CNVZerner       .... off
 Static damping         CNVDamp         .... on
   Fraction old density DampFac         ....    0.7000
   Max. Damping (<1)    DampMax         ....    0.9800
   Min. Damping (>=0)   DampMin         ....    0.0000
   Turn off err/grad.   DampErr         ....    0.1000
 Fernandez-Rico         CNVRico         .... off

SCF Procedure:
 Maximum # iterations   MaxIter         ....   125
 SCF integral mode      SCFMode         .... Direct
   Integral package                     .... SHARK and LIBINT hybrid scheme
 Reset frequency        DirectResetFreq ....    20
 Integral Threshold     Thresh          ....  2.500e-11 Eh
 Primitive CutOff       TCut            ....  2.500e-12 Eh

Convergence Tolerance:
 Convergence Check Mode ConvCheckMode   .... Total+1el-Energy
 Convergence forced     ConvForced      .... 0
 Energy Change          TolE            ....  1.000e-08 Eh
 1-El. energy change                    ....  1.000e-05 Eh
 Orbital Gradient       TolG            ....  1.000e-05
 Orbital Rotation angle TolX            ....  1.000e-05
 DIIS Error             TolErr          ....  5.000e-07


Diagonalization of the overlap matrix:
Smallest eigenvalue                        ... 7.324e-06
Time for diagonalization                   ...    0.321 sec
Threshold for overlap eigenvalues          ... 1.000e-08
Number of eigenvalues below threshold      ... 0
Time for construction of square roots      ...    0.182 sec
Total time needed                          ...    0.505 sec

Time for model grid setup =    2.511 sec

------------------------------
INITIAL GUESS: MODEL POTENTIAL
------------------------------
Loading Hartree-Fock densities                     ... done
Calculating cut-offs                               ... done
Initializing the effective Hamiltonian             ... done
Setting up the integral package (SHARK)            ... done
Starting the Coulomb interaction                   ... done (   6.4 sec)
Reading the grid                                   ... done
Mapping shells                                     ... done
Starting the XC term evaluation                    ... done (   8.8 sec)
  promolecular density results
     # of electrons  =     57.997187881
     EX              =    -59.836600814
     EC              =     -2.068094925
     EX+EC           =    -61.904695739
Transforming the Hamiltonian                       ... done (   0.1 sec)
Diagonalizing the Hamiltonian                      ... done (   0.3 sec)
Back transforming the eigenvectors                 ... done (   0.1 sec)
Now organizing SCF variables                       ... done
                      ------------------
                      INITIAL GUESS DONE (  18.4 sec)
                      ------------------
-------------------
DFT GRID GENERATION
-------------------

General Integration Accuracy     IntAcc      ... 4.388
Radial Grid Type                 RadialGrid  ... OptM3 with GC (2021)
Angular Grid (max. ang.)         AngularGrid ... 4 (Lebedev-302)
Angular grid pruning method      GridPruning ... 4 (adaptive)
Weight generation scheme         WeightScheme... Becke
Basis function cutoff            BFCut       ... 1.0000e-11
Integration weight cutoff        WCut        ... 1.0000e-14
Angular grids for H and He will be reduced by one unit
Partially contracted basis set               ... off
Rotationally invariant grid construction     ... off

Total number of grid points                  ...    61160
Total number of batches                      ...      961
Average number of points per batch           ...       63
Average number of grid points per atom       ...     5097
Time for grid setup =    6.002 sec

--------------------
COSX GRID GENERATION
--------------------

GRIDX 1
-------
General Integration Accuracy     IntAcc      ... 3.816
Radial Grid Type                 RadialGrid  ... OptM3 with GC (2021)
Angular Grid (max. ang.)         AngularGrid ... 1 (Lebedev-50)
Angular grid pruning method      GridPruning ... 4 (adaptive)
Weight generation scheme         WeightScheme... Becke
Basis function cutoff            BFCut       ... 1.0000e-11
Integration weight cutoff        WCut        ... 1.0000e-14
Angular grids for H and He will be reduced by one unit
Partially contracted basis set               ... on
Rotationally invariant grid construction     ... off

Total number of grid points                  ...     7732
Total number of batches                      ...      127
Average number of points per batch           ...       60
Average number of grid points per atom       ...      644
UseSFitting                                  ... on

GRIDX 2
-------
General Integration Accuracy     IntAcc      ... 4.020
Radial Grid Type                 RadialGrid  ... OptM3 with GC (2021)
Angular Grid (max. ang.)         AngularGrid ... 2 (Lebedev-110)
Angular grid pruning method      GridPruning ... 4 (adaptive)
Weight generation scheme         WeightScheme... Becke
Basis function cutoff            BFCut       ... 1.0000e-11
Integration weight cutoff        WCut        ... 1.0000e-14
Angular grids for H and He will be reduced by one unit
Partially contracted basis set               ... on
Rotationally invariant grid construction     ... off

Total number of grid points                  ...    18530
Total number of batches                      ...      294
Average number of points per batch           ...       63
Average number of grid points per atom       ...     1544
UseSFitting                                  ... on

GRIDX 3
-------
General Integration Accuracy     IntAcc      ... 4.338
Radial Grid Type                 RadialGrid  ... OptM3 with GC (2021)
Angular Grid (max. ang.)         AngularGrid ... 3 (Lebedev-194)
Angular grid pruning method      GridPruning ... 4 (adaptive)
Weight generation scheme         WeightScheme... Becke
Basis function cutoff            BFCut       ... 1.0000e-11
Integration weight cutoff        WCut        ... 1.0000e-14
Angular grids for H and He will be reduced by one unit
Partially contracted basis set               ... on
Rotationally invariant grid construction     ... off

Total number of grid points                  ...    40820
Total number of batches                      ...      645
Average number of points per batch           ...       63
Average number of grid points per atom       ...     3402
UseSFitting                                  ... on

Time for X-Grid setup             =   13.889 sec

--------------
SCF ITERATIONS
--------------
ITER       Energy         Delta-E        Max-DP      RMS-DP      [F,P]     Damp
               ***  Starting incremental Fock matrix formation  ***
  0   -691.6170486529   0.000000000000 0.01832878  0.00027507  0.1569350 0.7000
  1   -691.6910899565  -0.074041303635 0.01168752  0.00020558  0.0762995 0.7000
                               ***Turning on DIIS***
  2   -691.7211409949  -0.030051038440 0.02053325  0.00036806  0.0330230 0.0000
  3   -691.7635675910  -0.042426596100 0.00994963  0.00014965  0.0471511 0.0000
  4   -691.7765018331  -0.012934242078 0.00406705  0.00005155  0.0071559 0.0000
                      *** Initiating the SOSCF procedure ***
                           *** Shutting down DIIS ***
                      *** Re-Reading the Fockian *** 
                      *** Removing any level shift *** 
ITER      Energy       Delta-E        Grad      Rot      Max-DP    RMS-DP
  5   -691.77705453  -0.0005527006  0.000884  0.000884  0.001218  0.000020
               *** Restarting incremental Fock matrix formation ***
  6   -691.77708853  -0.0000339965  0.000340  0.000809  0.000859  0.000016
  7   -691.77709014  -0.0000016112  0.000340  0.000767  0.000213  0.000004
  8   -691.77709157  -0.0000014238  0.000172  0.000407  0.000171  0.000003
  9   -691.77709163  -0.0000000669  0.000112  0.000205  0.000079  0.000001
 10   -691.77709188  -0.0000002475  0.000021  0.000075  0.000042  0.000001
 11   -691.77709189  -0.0000000071  0.000024  0.000029  0.000029  0.000000
                  ***Gradient check signals convergence***
              ***Rediagonalizing the Fockian in SOSCF/NRSCF***

               *****************************************************
               *                     SUCCESS                       *
               *           SCF CONVERGED AFTER  12 CYCLES          *
               *****************************************************

Old exchange energy                            =    -12.071629264 Eh
New exchange energy                            =    -12.071628726 Eh
Exchange energy change after final integration =      0.000000537 Eh
Total energy after final integration           =   -691.777091368 Eh
Final COS-X integration done in                =   292.418 sec

----------------
TOTAL SCF ENERGY
----------------

Total Energy       :         -691.77709137 Eh          -18824.21166 eV

Components:
Nuclear Repulsion  :          314.43901090 Eh            8556.32048 eV
Electronic Energy  :        -1006.21610226 Eh          -27380.53214 eV
One Electron Energy:        -1570.52848640 Eh          -42736.25278 eV
Two Electron Energy:          564.31238414 Eh           15355.72064 eV
Max COSX asymmetry :            0.00000646 Eh               0.00018 eV

Virial components:
Potential Energy   :        -1381.62622513 Eh          -37595.96093 eV
Kinetic Energy     :          689.84913377 Eh           18771.74927 eV
Virial Ratio       :            2.00279475


DFT components:
N(Alpha)           :       29.000015054570 electrons
N(Beta)            :       29.000015054570 electrons
N(Total)           :       58.000030109140 electrons
E(X)               :      -47.944378803585 Eh       
E(C)               :       -2.438664872734 Eh       
E(XC)              :      -50.383043676318 Eh       
DFET-embed. en.    :        0.000000000000 Eh       

---------------
SCF CONVERGENCE
---------------

  Last Energy change         ...   -1.8596e-08  Tolerance :   1.0000e-08
  Last MAX-Density change    ...    2.2204e-15  Tolerance :   1.0000e-07
  Last RMS-Density change    ...    9.6605e-18  Tolerance :   5.0000e-09
  Last Orbital Gradient      ...    2.3594e-06  Tolerance :   1.0000e-05
  Last Orbital Rotation      ...    8.6426e-06  Tolerance :   1.0000e-05

             **** THE GBW FILE WAS UPDATED (neutral.gbw) ****
             **** DENSITY neutral.scfp WAS UPDATED ****
             **** ENERGY FILE WAS UPDATED (neutral.en.tmp) ****
             **** THE GBW FILE WAS UPDATED (neutral.gbw) ****
             **** DENSITY neutral.scfp WAS UPDATED ****
----------------
ORBITAL ENERGIES
----------------

  NO   OCC          E(Eh)            E(eV) 
   0   2.0000    -101.529992     -2762.7715 
   1   2.0000     -10.243611      -278.7428 
   2   2.0000     -10.194418      -277.4042 
   3   2.0000     -10.194406      -277.4039 
   4   2.0000     -10.193555      -277.3807 
   5   2.0000     -10.193515      -277.3796 
   6   2.0000     -10.189959      -277.2829 
   7   2.0000      -9.460806      -257.4416 
   8   2.0000      -7.222876      -196.5444 
   9   2.0000      -7.214599      -196.3192 
  10   2.0000      -7.214291      -196.3108 
  11   2.0000      -0.892568       -24.2880 
  12   2.0000      -0.838397       -22.8139 
  13   2.0000      -0.761086       -20.7102 
  14   2.0000      -0.736642       -20.0451 
  15   2.0000      -0.621954       -16.9242 
  16   2.0000      -0.603791       -16.4300 
  17   2.0000      -0.528148       -14.3716 
  18   2.0000      -0.472520       -12.8579 
  19   2.0000      -0.470734       -12.8093 
  20   2.0000      -0.436613       -11.8809 
  21   2.0000      -0.434587       -11.8257 
  22   2.0000      -0.400483       -10.8977 
  23   2.0000      -0.367540       -10.0013 
  24   2.0000      -0.365332        -9.9412 
  25   2.0000      -0.338386        -9.2080 
  26   2.0000      -0.315261        -8.5787 
  27   2.0000      -0.270400        -7.3580 
  28   2.0000      -0.252292        -6.8652 
  29   0.0000      -0.028757        -0.7825 
  30   0.0000      -0.027525        -0.7490 
  31   0.0000       0.009251         0.2517 
  32   0.0000       0.036526         0.9939 
  33   0.0000       0.043090         1.1725 
  34   0.0000       0.052666         1.4331 
  35   0.0000       0.077170         2.0999 
  36   0.0000       0.080290         2.1848 
  37   0.0000       0.105669         2.8754 
  38   0.0000       0.108628         2.9559 
  39   0.0000       0.121969         3.3189 
  40   0.0000       0.122846         3.3428 
  41   0.0000       0.144918         3.9434 
  42   0.0000       0.148781         4.0485 
  43   0.0000       0.164186         4.4677 
  44   0.0000       0.165717         4.5094 
  45   0.0000       0.168956         4.5975 
  46   0.0000       0.189443         5.1550 
  47   0.0000       0.207744         5.6530 
  48   0.0000       0.213057         5.7976 
  49   0.0000       0.214075         5.8253 
  50   0.0000       0.220850         6.0096 
  51   0.0000       0.242798         6.6069 
  52   0.0000       0.246212         6.6998 
  53   0.0000       0.258916         7.0455 
  54   0.0000       0.266063         7.2400 
  55   0.0000       0.267538         7.2801 
  56   0.0000       0.277238         7.5440 
  57   0.0000       0.280627         7.6362 
  58   0.0000       0.292197         7.9511 
  59   0.0000       0.303384         8.2555 
  60   0.0000       0.307093         8.3564 
  61   0.0000       0.325042         8.8448 
  62   0.0000       0.332745         9.0545 
  63   0.0000       0.336116         9.1462 
  64   0.0000       0.337119         9.1735 
  65   0.0000       0.371776        10.1165 
  66   0.0000       0.388200        10.5635 
  67   0.0000       0.394009        10.7215 
  68   0.0000       0.414541        11.2802 
  69   0.0000       0.415320        11.3014 
  70   0.0000       0.439922        11.9709 
  71   0.0000       0.441397        12.0110 
  72   0.0000       0.458963        12.4890 
  73   0.0000       0.461223        12.5505 
  74   0.0000       0.479831        13.0569 
  75   0.0000       0.479912        13.0591 
  76   0.0000       0.500905        13.6303 
  77   0.0000       0.514053        13.9881 
  78   0.0000       0.522182        14.2093 
  79   0.0000       0.536046        14.5866 
  80   0.0000       0.537822        14.6349 
  81   0.0000       0.559646        15.2287 
  82   0.0000       0.579020        15.7559 
  83   0.0000       0.584814        15.9136 
  84   0.0000       0.609591        16.5878 
  85   0.0000       0.612894        16.6777 
  86   0.0000       0.627747        17.0819 
  87   0.0000       0.644978        17.5507 
  88   0.0000       0.655339        17.8327 
  89   0.0000       0.673671        18.3315 
  90   0.0000       0.689018        18.7491 
  91   0.0000       0.704913        19.1816 
  92   0.0000       0.710076        19.3222 
  93   0.0000       0.720189        19.5973 
  94   0.0000       0.736634        20.0448 
  95   0.0000       0.743187        20.2232 
  96   0.0000       0.746490        20.3130 
  97   0.0000       0.751387        20.4463 
  98   0.0000       0.754599        20.5337 
  99   0.0000       0.764466        20.8022 
 100   0.0000       0.795156        21.6373 
 101   0.0000       0.803756        21.8713 
 102   0.0000       0.819380        22.2965 
 103   0.0000       0.824251        22.4290 
 104   0.0000       0.851319        23.1656 
 105   0.0000       0.871106        23.7040 
 106   0.0000       0.880222        23.9521 
 107   0.0000       0.881886        23.9973 
 108   0.0000       0.892364        24.2824 
 109   0.0000       0.895962        24.3804 
 110   0.0000       0.898623        24.4528 
 111   0.0000       0.899435        24.4749 
 112   0.0000       0.915009        24.8987 
 113   0.0000       0.950110        25.8538 
 114   0.0000       0.984685        26.7946 
 115   0.0000       0.987863        26.8811 
 116   0.0000       0.995000        27.0753 
 117   0.0000       0.997741        27.1499 
 118   0.0000       1.002101        27.2686 
 119   0.0000       1.019946        27.7541 
 120   0.0000       1.035435        28.1756 
 121   0.0000       1.039250        28.2794 
 122   0.0000       1.065122        28.9834 
 123   0.0000       1.074883        29.2491 
 124   0.0000       1.106297        30.1039 
 125   0.0000       1.114786        30.3349 
 126   0.0000       1.115534        30.3552 
 127   0.0000       1.120620        30.4936 
 128   0.0000       1.125231        30.6191 
 129   0.0000       1.144686        31.1485 
 130   0.0000       1.149976        31.2924 
 131   0.0000       1.150120        31.2964 
 132   0.0000       1.193595        32.4794 
 133   0.0000       1.198787        32.6206 
 134   0.0000       1.215114        33.0649 
 135   0.0000       1.229394        33.4535 
 136   0.0000       1.232763        33.5452 
 137   0.0000       1.240308        33.7505 
 138   0.0000       1.266694        34.4685 
 139   0.0000       1.270286        34.5663 
 140   0.0000       1.283458        34.9247 
 141   0.0000       1.290983        35.1294 
 142   0.0000       1.326939        36.1079 
 143   0.0000       1.333906        36.2974 
 144   0.0000       1.349679        36.7266 
 145   0.0000       1.414271        38.4843 
 146   0.0000       1.434464        39.0337 
 147   0.0000       1.445403        39.3314 
 148   0.0000       1.470731        40.0206 
 149   0.0000       1.515939        41.2508 
 150   0.0000       1.518519        41.3210 
 151   0.0000       1.523780        41.4642 
 152   0.0000       1.538029        41.8519 
 153   0.0000       1.552908        42.2568 
 154   0.0000       1.575298        42.8660 
 155   0.0000       1.597441        43.4686 
 156   0.0000       1.614055        43.9207 
 157   0.0000       1.631121        44.3850 
 158   0.0000       1.643859        44.7317 
 159   0.0000       1.648451        44.8566 
 160   0.0000       1.661639        45.2155 
 161   0.0000       1.668473        45.4014 
 162   0.0000       1.698155        46.2091 
 163   0.0000       1.739540        47.3353 
 164   0.0000       1.752551        47.6893 
 165   0.0000       1.755058        47.7575 
 166   0.0000       1.774665        48.2911 
 167   0.0000       1.786536        48.6141 
 168   0.0000       1.797756        48.9194 
 169   0.0000       1.808277        49.2057 
 170   0.0000       1.810011        49.2529 
 171   0.0000       1.829437        49.7815 
 172   0.0000       1.832423        49.8628 
 173   0.0000       1.864725        50.7417 
 174   0.0000       1.875581        51.0371 
 175   0.0000       1.910297        51.9818 
 176   0.0000       1.930841        52.5409 
 177   0.0000       1.937321        52.7172 
 178   0.0000       1.942490        52.8578 
 179   0.0000       1.954325        53.1799 
 180   0.0000       1.969023        53.5798 
 181   0.0000       1.989376        54.1337 
 182   0.0000       1.991063        54.1796 
 183   0.0000       2.004216        54.5375 
 184   0.0000       2.013586        54.7925 
 185   0.0000       2.029983        55.2386 
 186   0.0000       2.030339        55.2483 
 187   0.0000       2.030533        55.2536 
 188   0.0000       2.046437        55.6864 
 189   0.0000       2.077618        56.5348 
 190   0.0000       2.105920        57.3050 
 191   0.0000       2.118402        57.6446 
 192   0.0000       2.144685        58.3599 
 193   0.0000       2.147524        58.4371 
 194   0.0000       2.169197        59.0268 
 195   0.0000       2.172074        59.1051 
 196   0.0000       2.181612        59.3647 
 197   0.0000       2.193173        59.6793 
 198   0.0000       2.207680        60.0740 
 199   0.0000       2.224523        60.5324 
 200   0.0000       2.230910        60.7061 
 201   0.0000       2.251318        61.2615 
 202   0.0000       2.269925        61.7678 
 203   0.0000       2.273213        61.8573 
 204   0.0000       2.301954        62.6394 
 205   0.0000       2.318192        63.0812 
 206   0.0000       2.318411        63.0872 
 207   0.0000       2.359356        64.2013 
 208   0.0000       2.379142        64.7397 
 209   0.0000       2.383407        64.8558 
 210   0.0000       2.398061        65.2546 
 211   0.0000       2.425610        66.0042 
 212   0.0000       2.426976        66.0414 
 213   0.0000       2.434465        66.2452 
 214   0.0000       2.435661        66.2777 
 215   0.0000       2.446853        66.5822 
 216   0.0000       2.471353        67.2489 
 217   0.0000       2.481424        67.5230 
 218   0.0000       2.489621        67.7460 
 219   0.0000       2.502255        68.0898 
 220   0.0000       2.509694        68.2922 
 221   0.0000       2.540219        69.1229 
 222   0.0000       2.549480        69.3749 
 223   0.0000       2.552439        69.4554 
 224   0.0000       2.580100        70.2081 
 225   0.0000       2.605443        70.8977 
 226   0.0000       2.608074        70.9693 
 227   0.0000       2.616161        71.1894 
 228   0.0000       2.623452        71.3878 
 229   0.0000       2.636882        71.7532 
 230   0.0000       2.647108        72.0315 
 231   0.0000       2.659111        72.3581 
 232   0.0000       2.679566        72.9147 
 233   0.0000       2.684586        73.0513 
 234   0.0000       2.691787        73.2472 
 235   0.0000       2.721994        74.0692 
 236   0.0000       2.735658        74.4410 
 237   0.0000       2.742083        74.6159 
 238   0.0000       2.746272        74.7299 
 239   0.0000       2.766085        75.2690 
 240   0.0000       2.767720        75.3135 
 241   0.0000       2.795447        76.0680 
 242   0.0000       2.809879        76.4607 
 243   0.0000       2.837173        77.2034 
 244   0.0000       2.841576        77.3232 
 245   0.0000       2.896793        78.8257 
 246   0.0000       2.931477        79.7695 
 247   0.0000       2.935811        79.8875 
 248   0.0000       2.983048        81.1729 
 249   0.0000       3.014422        82.0266 
 250   0.0000       3.022199        82.2382 
 251   0.0000       3.047535        82.9277 
 252   0.0000       3.071453        83.5785 
 253   0.0000       3.089380        84.0663 
 254   0.0000       3.099518        84.3422 
 255   0.0000       3.129411        85.1556 
 256   0.0000       3.156135        85.8828 
 257   0.0000       3.178005        86.4779 
 258   0.0000       3.229543        87.8803 
 259   0.0000       3.231226        87.9261 
 260   0.0000       3.252684        88.5100 
 261   0.0000       3.293965        89.6333 
 262   0.0000       3.314576        90.1942 
 263   0.0000       3.338638        90.8490 
 264   0.0000       3.342425        90.9520 
 265   0.0000       3.348057        91.1053 
 266   0.0000       3.357854        91.3719 
 267   0.0000       3.360188        91.4354 
 268   0.0000       3.396154        92.4140 
 269   0.0000       3.421032        93.0910 
 270   0.0000       3.432529        93.4039 
 271   0.0000       3.442408        93.6727 
 272   0.0000       3.453860        93.9843 
 273   0.0000       3.476974        94.6133 
 274   0.0000       3.489031        94.9414 
 275   0.0000       3.494340        95.0858 
 276   0.0000       3.498418        95.1968 
 277   0.0000       3.547024        96.5194 
 278   0.0000       3.555071        96.7384 
 279   0.0000       3.594138        97.8015 
 280   0.0000       3.600714        97.9804 
 281   0.0000       3.604636        98.0871 
 282   0.0000       3.630879        98.8012 
 283   0.0000       3.632924        98.8569 
 284   0.0000       3.645132        99.1891 
 285   0.0000       3.690169       100.4146 
 286   0.0000       3.710695       100.9732 
 287   0.0000       3.730125       101.5019 
 288   0.0000       3.777121       102.7807 
 289   0.0000       3.814192       103.7894 
 290   0.0000       3.849801       104.7584 
 291   0.0000       3.859300       105.0169 
 292   0.0000       3.911654       106.4415 
 293   0.0000       3.917411       106.5982 
 294   0.0000       3.926786       106.8533 
 295   0.0000       3.944731       107.3416 
 296   0.0000       3.958459       107.7151 
 297   0.0000       4.001012       108.8731 
 298   0.0000       4.015966       109.2800 
 299   0.0000       4.031776       109.7102 
 300   0.0000       4.061710       110.5248 
 301   0.0000       4.064018       110.5876 
 302   0.0000       4.093857       111.3995 
 303   0.0000       4.100586       111.5826 
 304   0.0000       4.128950       112.3544 
 305   0.0000       4.159714       113.1916 
 306   0.0000       4.165145       113.3394 
 307   0.0000       4.219132       114.8084 
 308   0.0000       4.283848       116.5694 
 309   0.0000       4.299016       116.9822 
 310   0.0000       4.343610       118.1956 
 311   0.0000       4.398492       119.6890 
 312   0.0000       4.482261       121.9685 
 313   0.0000       4.483231       121.9949 
 314   0.0000       4.562182       124.1433 
 315   0.0000       4.563951       124.1914 
 316   0.0000       4.573172       124.4423 
 317   0.0000       4.592849       124.9778 
 318   0.0000       4.684711       127.4775 
 319   0.0000       4.733778       128.8127 
 320   0.0000       4.750078       129.2562 
 321   0.0000       4.757184       129.4496 
 322   0.0000       4.821179       131.1910 
 323   0.0000       4.862170       132.3064 
 324   0.0000       4.870435       132.5313 
 325   0.0000       4.876785       132.7041 
 326   0.0000       4.908347       133.5629 
 327   0.0000       5.002462       136.1239 
 328   0.0000       5.005507       136.2068 
 329   0.0000       5.028263       136.8260 
 330   0.0000       5.033750       136.9753 
 331   0.0000       5.067663       137.8981 
 332   0.0000       5.088127       138.4550 
 333   0.0000       5.105393       138.9248 
 334   0.0000       5.113588       139.1478 
 335   0.0000       5.154345       140.2569 
 336   0.0000       5.205628       141.6523 
 337   0.0000       5.210147       141.7753 
 338   0.0000       5.221816       142.0928 
 339   0.0000       5.268399       143.3604 
 340   0.0000       5.295093       144.0868 
 341   0.0000       5.321155       144.7960 
 342   0.0000       5.340506       145.3225 
 343   0.0000       5.363303       145.9429 
 344   0.0000       5.363672       145.9529 
 345   0.0000       5.367833       146.0662 
 346   0.0000       5.368474       146.0836 
 347   0.0000       5.437304       147.9566 
 348   0.0000       5.443370       148.1216 
 349   0.0000       5.470677       148.8647 
 350   0.0000       5.511285       149.9697 
 351   0.0000       5.521321       150.2428 
 352   0.0000       5.523367       150.2985 
 353   0.0000       5.528320       150.4332 
 354   0.0000       5.628968       153.1720 
 355   0.0000       5.632987       153.2814 
 356   0.0000       5.647000       153.6627 
 357   0.0000       5.653053       153.8274 
 358   0.0000       5.702102       155.1621 
 359   0.0000       5.715567       155.5285 
 360   0.0000       5.734488       156.0434 
 361   0.0000       5.781210       157.3147 
 362   0.0000       5.805814       157.9842 
 363   0.0000       5.833127       158.7275 
 364   0.0000       5.871922       159.7831 
 365   0.0000       5.888800       160.2424 
 366   0.0000       5.891262       160.3094 
 367   0.0000       5.893711       160.3760 
 368   0.0000       5.895794       160.4327 
 369   0.0000       5.930108       161.3664 
 370   0.0000       5.951464       161.9476 
 371   0.0000       5.980812       162.7462 
 372   0.0000       6.008971       163.5124 
 373   0.0000       6.013477       163.6350 
 374   0.0000       6.037215       164.2810 
 375   0.0000       6.050023       164.6295 
 376   0.0000       6.050272       164.6363 
 377   0.0000       6.064892       165.0341 
 378   0.0000       6.079703       165.4371 
 379   0.0000       6.086969       165.6349 
 380   0.0000       6.087717       165.6552 
 381   0.0000       6.103894       166.0954 
 382   0.0000       6.107055       166.1814 
 383   0.0000       6.138433       167.0352 
 384   0.0000       6.163412       167.7150 
 385   0.0000       6.178450       168.1242 
 386   0.0000       6.199180       168.6883 
 387   0.0000       6.221275       169.2895 
 388   0.0000       6.230780       169.5481 
 389   0.0000       6.246588       169.9783 
 390   0.0000       6.249284       170.0517 
 391   0.0000       6.250275       170.0786 
 392   0.0000       6.278876       170.8569 
 393   0.0000       6.279986       170.8871 
 394   0.0000       6.301274       171.4664 
 395   0.0000       6.306072       171.5970 
 396   0.0000       6.337794       172.4601 
 397   0.0000       6.363241       173.1526 
 398   0.0000       6.375080       173.4747 
 399   0.0000       6.375889       173.4967 
 400   0.0000       6.383403       173.7012 
 401   0.0000       6.417633       174.6327 
 402   0.0000       6.455036       175.6504 
 403   0.0000       6.486862       176.5165 
 404   0.0000       6.520333       177.4273 
 405   0.0000       6.531636       177.7348 
 406   0.0000       6.537538       177.8955 
 407   0.0000       6.549179       178.2122 
 408   0.0000       6.582308       179.1137 
 409   0.0000       6.587112       179.2444 
 410   0.0000       6.587264       179.2486 
 411   0.0000       6.615952       180.0292 
 412   0.0000       6.633666       180.5112 
 413   0.0000       6.660119       181.2310 
 414   0.0000       6.663754       181.3300 
 415   0.0000       6.669848       181.4958 
 416   0.0000       6.684669       181.8991 
 417   0.0000       6.714352       182.7068 
 418   0.0000       6.718876       182.8299 
 419   0.0000       6.731711       183.1792 
 420   0.0000       6.765778       184.1062 
 421   0.0000       6.766885       184.1363 
 422   0.0000       6.778311       184.4472 
 423   0.0000       6.870886       186.9663 
 424   0.0000       6.904025       187.8681 
 425   0.0000       6.927014       188.4936 
 426   0.0000       6.929883       188.5717 
 427   0.0000       6.934961       188.7099 
 428   0.0000       6.964698       189.5191 
 429   0.0000       7.012707       190.8255 
 430   0.0000       7.015320       190.8966 
 431   0.0000       7.076358       192.5575 
 432   0.0000       7.097810       193.1412 
 433   0.0000       7.134352       194.1356 
 434   0.0000       7.144810       194.4202 
 435   0.0000       7.145803       194.4472 
 436   0.0000       7.258623       197.5172 
 437   0.0000       7.298438       198.6006 
 438   0.0000       7.313030       198.9977 
 439   0.0000       7.367074       200.4683 
 440   0.0000       7.369402       200.5316 
 441   0.0000       7.381537       200.8618 
 442   0.0000       7.403737       201.4659 
 443   0.0000       7.413604       201.7344 
 444   0.0000       7.432879       202.2589 
 445   0.0000       7.445857       202.6121 
 446   0.0000       7.466087       203.1626 
 447   0.0000       7.471080       203.2984 
 448   0.0000       7.504876       204.2181 
 449   0.0000       7.546785       205.3585 
 450   0.0000       7.566304       205.8896 
 451   0.0000       7.574495       206.1125 
 452   0.0000       7.617075       207.2712 
 453   0.0000       7.658200       208.3902 
 454   0.0000       7.672339       208.7750 
 455   0.0000       7.687186       209.1790 
 456   0.0000       7.726484       210.2483 
 457   0.0000       7.788361       211.9321 
 458   0.0000       7.810975       212.5474 
 459   0.0000       7.830776       213.0862 
 460   0.0000       7.858368       213.8371 
 461   0.0000       7.916674       215.4237 
 462   0.0000       7.917032       215.4334 
 463   0.0000       7.938518       216.0180 
 464   0.0000       7.948773       216.2971 
 465   0.0000       7.996399       217.5931 
 466   0.0000       8.074837       219.7275 
 467   0.0000       8.084507       219.9906 
 468   0.0000       8.100675       220.4306 
 469   0.0000       8.106891       220.5997 
 470   0.0000       8.135671       221.3829 
 471   0.0000       8.154232       221.8879 
 472   0.0000       8.157838       221.9860 
 473   0.0000       8.170779       222.3382 
 474   0.0000       8.195890       223.0215 
 475   0.0000       8.235601       224.1021 
 476   0.0000       8.238411       224.1786 
 477   0.0000       8.256179       224.6621 
 478   0.0000       8.272901       225.1171 
 479   0.0000       8.282296       225.3727 
 480   0.0000       8.295459       225.7309 
 481   0.0000       8.297778       225.7940 
 482   0.0000       8.331216       226.7039 
 483   0.0000       8.360291       227.4951 
 484   0.0000       8.361254       227.5213 
 485   0.0000       8.380524       228.0457 
 486   0.0000       8.383772       228.1340 
 487   0.0000       8.420843       229.1428 
 488   0.0000       8.438354       229.6193 
 489   0.0000       8.499348       231.2790 
 490   0.0000       8.514300       231.6859 
 491   0.0000       8.541424       232.4240 
 492   0.0000       8.573868       233.3068 
 493   0.0000       8.631954       234.8874 
 494   0.0000       8.638220       235.0579 
 495   0.0000       8.661087       235.6802 
 496   0.0000       8.683109       236.2794 
 497   0.0000       8.726077       237.4486 
 498   0.0000       8.727034       237.4747 
 499   0.0000       8.735796       237.7131 
 500   0.0000       8.851606       240.8644 
 501   0.0000       8.855491       240.9702 
 502   0.0000       8.877678       241.5739 
 503   0.0000       8.880439       241.6490 
 504   0.0000       8.940600       243.2861 
 505   0.0000       8.972092       244.1430 
 506   0.0000       9.067671       246.7439 
 507   0.0000       9.300424       253.0774 
 508   0.0000       9.380295       255.2508 
 509   0.0000       9.445205       257.0171 
 510   0.0000       9.507181       258.7035 
 511   0.0000       9.594097       261.0687 
 512   0.0000       9.653619       262.6883 
 513   0.0000       9.657535       262.7949 
 514   0.0000       9.703663       264.0501 
 515   0.0000       9.749886       265.3079 
 516   0.0000       9.764770       265.7129 
 517   0.0000       9.796040       266.5638 
 518   0.0000       9.830186       267.4930 
 519   0.0000       9.954664       270.8802 
 520   0.0000       9.982019       271.6246 
 521   0.0000      10.002165       272.1728 
 522   0.0000      10.031924       272.9825 
 523   0.0000      10.062113       273.8040 
 524   0.0000      10.195299       277.4282 
 525   0.0000      10.220199       278.1058 
 526   0.0000      10.231875       278.4235 
 527   0.0000      10.263178       279.2753 
 528   0.0000      10.477621       285.1105 
 529   0.0000      10.618224       288.9366 
 530   0.0000      10.635039       289.3941 
 531   0.0000      10.654130       289.9136 
 532   0.0000      10.681277       290.6523 
 533   0.0000      10.714591       291.5589 
 534   0.0000      10.802751       293.9578 
 535   0.0000      10.851140       295.2745 
 536   0.0000      11.014923       299.7313 
 537   0.0000      11.237785       305.7957 
 538   0.0000      11.599798       315.6466 
 539   0.0000      12.043074       327.7087 
 540   0.0000      12.549104       341.4785 
 541   0.0000      12.654645       344.3504 
 542   0.0000      12.813216       348.6653 
 543   0.0000      13.095244       356.3397 
 544   0.0000      27.814938       756.8829 
 545   0.0000      28.291980       769.8639 
 546   0.0000      28.471110       774.7383 
 547   0.0000      28.778609       783.1058 
 548   0.0000      28.951092       787.7993 
 549   0.0000      29.067792       790.9748 
 550   0.0000      29.266330       796.3773 
 551   0.0000      41.688242      1134.3947 
 552   0.0000      41.700781      1134.7359 
 553   0.0000      41.812783      1137.7837 
 554   0.0000      98.523822      2680.9695 
 555   0.0000     146.882402      3996.8734 
 556   0.0000     147.340391      4009.3359 
 557   0.0000     147.512458      4014.0181 
 558   0.0000     147.807000      4022.0329 
 559   0.0000     147.953814      4026.0280 
 560   0.0000     148.287532      4035.1089 
 561   0.0000     525.888570     14310.1555 

                    ********************************
                    * MULLIKEN POPULATION ANALYSIS *
                    ********************************

-----------------------
MULLIKEN ATOMIC CHARGES
-----------------------
   0 C :    0.122384
   1 C :   -0.051048
   2 C :   -0.054714
   3 C :   -0.070239
   4 C :   -0.054476
   5 C :   -0.049815
   6 H :    0.072289
   7 H :    0.065091
   8 H :    0.060755
   9 H :    0.065409
  10 H :    0.071854
  11 Cl:   -0.177489
Sum of atomic charges:    0.0000000

--------------------------------
MULLIKEN REDUCED ORBITAL CHARGES
--------------------------------
  0 C s       :     3.316608  s :     3.316608
      pz      :     0.973619  p :     2.401042
      px      :     0.770954
      py      :     0.656468
      dz2     :     0.004011  d :     0.134195
      dxz     :     0.035425
      dyz     :     0.026986
      dx2y2   :     0.046328
      dxy     :     0.021446
      f0      :     0.002860  f :     0.024147
      f+1     :     0.000679
      f-1     :     0.001295
      f+2     :     0.002236
      f-2     :     0.002829
      f+3     :     0.011034
      f-3     :     0.003216
      g0      :     0.000056  g :     0.001624
      g+1     :     0.000167
      g-1     :     0.000121
      g+2     :     0.000133
      g-2     :     0.000097
      g+3     :     0.000007
      g-3     :     0.000267
      g+4     :     0.000393
      g-4     :     0.000381
  1 C s       :     3.336878  s :     3.336878
      pz      :     0.945606  p :     2.599720
      px      :     0.827951
      py      :     0.826163
      dz2     :     0.001869  d :     0.097676
      dxz     :     0.013293
      dyz     :     0.024421
      dx2y2   :     0.022354
      dxy     :     0.035739
      f0      :     0.001622  f :     0.015693
      f+1     :     0.000390
      f-1     :     0.000442
      f+2     :     0.002549
      f-2     :     0.001418
      f+3     :     0.007573
      f-3     :     0.001699
      g0      :     0.000049  g :     0.001080
      g+1     :     0.000102
      g-1     :     0.000126
      g+2     :     0.000069
      g-2     :     0.000063
      g+3     :     0.000007
      g-3     :     0.000152
      g+4     :     0.000260
      g-4     :     0.000252
  2 C s       :     3.307838  s :     3.307838
      pz      :     0.928670  p :     2.618736
      px      :     0.855018
      py      :     0.835048
      dz2     :     0.001891  d :     0.111828
      dxz     :     0.011701
      dyz     :     0.026825
      dx2y2   :     0.030325
      dxy     :     0.041086
      f0      :     0.001625  f :     0.015195
      f+1     :     0.000384
      f-1     :     0.000468
      f+2     :     0.002291
      f-2     :     0.001531
      f+3     :     0.007115
      f-3     :     0.001783
      g0      :     0.000047  g :     0.001117
      g+1     :     0.000081
      g-1     :     0.000140
      g+2     :     0.000077
      g-2     :     0.000063
      g+3     :     0.000004
      g-3     :     0.000154
      g+4     :     0.000259
      g-4     :     0.000293
  3 C s       :     3.317585  s :     3.317585
      pz      :     0.943656  p :     2.625702
      px      :     0.821904
      py      :     0.860141
      dz2     :     0.002487  d :     0.110299
      dxz     :     0.030703
      dyz     :     0.006936
      dx2y2   :     0.048731
      dxy     :     0.021443
      f0      :     0.001643  f :     0.015548
      f+1     :     0.000498
      f-1     :     0.000350
      f+2     :     0.000628
      f-2     :     0.003040
      f+3     :     0.007610
      f-3     :     0.001778
      g0      :     0.000046  g :     0.001105
      g+1     :     0.000149
      g-1     :     0.000063
      g+2     :     0.000050
      g-2     :     0.000088
      g+3     :     0.000005
      g-3     :     0.000153
      g+4     :     0.000297
      g-4     :     0.000254
  4 C s       :     3.307422  s :     3.307422
      pz      :     0.928640  p :     2.619213
      px      :     0.852105
      py      :     0.838469
      dz2     :     0.001923  d :     0.111568
      dxz     :     0.013704
      dyz     :     0.024762
      dx2y2   :     0.025332
      dxy     :     0.045846
      f0      :     0.001629  f :     0.015155
      f+1     :     0.000399
      f-1     :     0.000461
      f+2     :     0.002683
      f-2     :     0.001129
      f+3     :     0.007129
      f-3     :     0.001725
      g0      :     0.000047  g :     0.001118
      g+1     :     0.000088
      g-1     :     0.000132
      g+2     :     0.000083
      g-2     :     0.000057
      g+3     :     0.000005
      g-3     :     0.000153
      g+4     :     0.000269
      g-4     :     0.000283
  5 C s       :     3.336431  s :     3.336431
      pz      :     0.945632  p :     2.599145
      px      :     0.833146
      py      :     0.820368
      dz2     :     0.001880  d :     0.097487
      dxz     :     0.011482
      dyz     :     0.026241
      dx2y2   :     0.025554
      dxy     :     0.032330
      f0      :     0.001618  f :     0.015673
      f+1     :     0.000361
      f-1     :     0.000464
      f+2     :     0.002182
      f-2     :     0.001790
      f+3     :     0.007098
      f-3     :     0.002159
      g0      :     0.000049  g :     0.001078
      g+1     :     0.000095
      g-1     :     0.000133
      g+2     :     0.000063
      g-2     :     0.000069
      g+3     :     0.000007
      g-3     :     0.000151
      g+4     :     0.000258
      g-4     :     0.000254
  6 H s       :     0.887924  s :     0.887924
      pz      :     0.016441  p :     0.034241
      px      :     0.006660
      py      :     0.011139
      dz2     :     0.000118  d :     0.005241
      dxz     :     0.001584
      dyz     :     0.000730
      dx2y2   :     0.002079
      dxy     :     0.000730
      f0      :     0.000059  f :     0.000306
      f+1     :     0.000009
      f-1     :     0.000009
      f+2     :     0.000016
      f-2     :     0.000072
      f+3     :     0.000121
      f-3     :     0.000021
  7 H s       :     0.895785  s :     0.895785
      pz      :     0.016520  p :     0.034018
      px      :     0.007312
      py      :     0.010186
      dz2     :     0.000145  d :     0.004814
      dxz     :     0.001666
      dyz     :     0.000492
      dx2y2   :     0.001538
      dxy     :     0.000973
      f0      :     0.000056  f :     0.000292
      f+1     :     0.000010
      f-1     :     0.000009
      f+2     :     0.000028
      f-2     :     0.000053
      f+3     :     0.000114
      f-3     :     0.000023
  8 H s       :     0.899544  s :     0.899544
      pz      :     0.016847  p :     0.034538
      px      :     0.011608
      py      :     0.006083
      dz2     :     0.000141  d :     0.004869
      dxz     :     0.000061
      dyz     :     0.002100
      dx2y2   :     0.000396
      dxy     :     0.002170
      f0      :     0.000057  f :     0.000294
      f+1     :     0.000008
      f-1     :     0.000010
      f+2     :     0.000077
      f-2     :     0.000004
      f+3     :     0.000115
      f-3     :     0.000023
  9 H s       :     0.895518  s :     0.895518
      pz      :     0.016495  p :     0.033977
      px      :     0.007740
      py      :     0.009741
      dz2     :     0.000145  d :     0.004804
      dxz     :     0.001502
      dyz     :     0.000648
      dx2y2   :     0.001810
      dxy     :     0.000699
      f0      :     0.000056  f :     0.000292
      f+1     :     0.000010
      f-1     :     0.000009
      f+2     :     0.000017
      f-2     :     0.000064
      f+3     :     0.000114
      f-3     :     0.000022
 10 H s       :     0.888281  s :     0.888281
      pz      :     0.016470  p :     0.034306
      px      :     0.006216
      py      :     0.011620
      dz2     :     0.000118  d :     0.005252
      dxz     :     0.001767
      dyz     :     0.000556
      dx2y2   :     0.001783
      dxy     :     0.001029
      f0      :     0.000060  f :     0.000307
      f+1     :     0.000009
      f-1     :     0.000009
      f+2     :     0.000028
      f-2     :     0.000060
      f+3     :     0.000122
      f-3     :     0.000020
 11 Cls       :     5.932395  s :     5.932395
      pz      :     3.922390  p :    11.165822
      px      :     3.973741
      py      :     3.269692
      dz2     :     0.008353  d :     0.069961
      dxz     :     0.000541
      dyz     :     0.023348
      dx2y2   :     0.025429
      dxy     :     0.012291
      f0      :     0.001135  f :     0.008592
      f+1     :     0.000140
      f-1     :     0.001337
      f+2     :     0.001597
      f-2     :     0.000111
      f+3     :     0.001852
      f-3     :     0.002419
      g0      :     0.000050  g :     0.000718
      g+1     :     0.000002
      g-1     :     0.000133
      g+2     :     0.000104
      g-2     :     0.000024
      g+3     :     0.000008
      g-3     :     0.000083
      g+4     :     0.000170
      g-4     :     0.000144


                     *******************************
                     * LOEWDIN POPULATION ANALYSIS *
                     *******************************

----------------------
LOEWDIN ATOMIC CHARGES
----------------------
   0 C :   -0.466765
   1 C :    0.036790
   2 C :    0.064360
   3 C :    0.060650
   4 C :    0.064398
   5 C :    0.036756
   6 H :   -0.055182
   7 H :   -0.054152
   8 H :   -0.056284
   9 H :   -0.054149
  10 H :   -0.055191
  11 Cl:    0.478770

-------------------------------
LOEWDIN REDUCED ORBITAL CHARGES
-------------------------------
  0 C s       :     2.638977  s :     2.638977
      pz      :     0.840130  p :     2.825992
      px      :     1.076839
      py      :     0.909023
      dz2     :     0.060750  d :     0.800345
      dxz     :     0.102229
      dyz     :     0.129921
      dx2y2   :     0.275764
      dxy     :     0.231680
      f0      :     0.011988  f :     0.186205
      f+1     :     0.008770
      f-1     :     0.013132
      f+2     :     0.024775
      f-2     :     0.020429
      f+3     :     0.078777
      f-3     :     0.028335
      g0      :     0.000462  g :     0.015246
      g+1     :     0.001590
      g-1     :     0.001624
      g+2     :     0.001610
      g-2     :     0.001370
      g+3     :     0.000059
      g-3     :     0.001314
      g+4     :     0.003898
      g-4     :     0.003318
  1 C s       :     2.598124  s :     2.598124
      pz      :     0.778403  p :     2.738244
      px      :     0.961156
      py      :     0.998685
      dz2     :     0.040482  d :     0.503240
      dxz     :     0.045052
      dyz     :     0.073971
      dx2y2   :     0.148957
      dxy     :     0.194777
      f0      :     0.006770  f :     0.112157
      f+1     :     0.007259
      f-1     :     0.007620
      f+2     :     0.018800
      f-2     :     0.009139
      f+3     :     0.044206
      f-3     :     0.018363
      g0      :     0.000382  g :     0.011445
      g+1     :     0.001025
      g-1     :     0.001277
      g+2     :     0.001145
      g-2     :     0.001316
      g+3     :     0.000079
      g-3     :     0.000889
      g+4     :     0.002550
      g-4     :     0.002783
  2 C s       :     2.596035  s :     2.596035
      pz      :     0.767214  p :     2.714661
      px      :     0.960526
      py      :     0.986922
      dz2     :     0.037855  d :     0.502874
      dxz     :     0.036480
      dyz     :     0.084150
      dx2y2   :     0.163539
      dxy     :     0.180850
      f0      :     0.006159  f :     0.110816
      f+1     :     0.006876
      f-1     :     0.007350
      f+2     :     0.016117
      f-2     :     0.010498
      f+3     :     0.046319
      f-3     :     0.017497
      g0      :     0.000360  g :     0.011253
      g+1     :     0.000814
      g-1     :     0.001362
      g+2     :     0.001247
      g-2     :     0.001223
      g+3     :     0.000042
      g-3     :     0.000809
      g+4     :     0.002118
      g-4     :     0.003277
  3 C s       :     2.596015  s :     2.596015
      pz      :     0.775256  p :     2.723995
      px      :     0.999672
      py      :     0.949066
      dz2     :     0.037905  d :     0.497968
      dxz     :     0.093865
      dyz     :     0.020892
      dx2y2   :     0.203594
      dxy     :     0.141712
      f0      :     0.006216  f :     0.110197
      f+1     :     0.007512
      f-1     :     0.006713
      f+2     :     0.005194
      f-2     :     0.020484
      f+3     :     0.046685
      f-3     :     0.017392
      g0      :     0.000359  g :     0.011176
      g+1     :     0.001455
      g-1     :     0.000643
      g+2     :     0.001225
      g-2     :     0.001252
      g+3     :     0.000051
      g-3     :     0.000812
      g+4     :     0.003341
      g-4     :     0.002038
  4 C s       :     2.596033  s :     2.596033
      pz      :     0.767198  p :     2.714659
      px      :     0.965027
      py      :     0.982434
      dz2     :     0.037851  d :     0.502844
      dxz     :     0.042719
      dyz     :     0.077901
      dx2y2   :     0.153207
      dxy     :     0.191166
      f0      :     0.006161  f :     0.110813
      f+1     :     0.006942
      f-1     :     0.007283
      f+2     :     0.018607
      f-2     :     0.008007
      f+3     :     0.046319
      f-3     :     0.017495
      g0      :     0.000360  g :     0.011253
      g+1     :     0.000885
      g-1     :     0.001292
      g+2     :     0.001248
      g-2     :     0.001223
      g+3     :     0.000045
      g-3     :     0.000807
      g+4     :     0.002576
      g-4     :     0.002819
  5 C s       :     2.598109  s :     2.598109
      pz      :     0.778397  p :     2.738232
      px      :     0.957369
      py      :     1.002467
      dz2     :     0.040488  d :     0.503289
      dxz     :     0.038937
      dyz     :     0.080098
      dx2y2   :     0.155948
      dxy     :     0.187818
      f0      :     0.006769  f :     0.112168
      f+1     :     0.007145
      f-1     :     0.007735
      f+2     :     0.016074
      f-2     :     0.011868
      f+3     :     0.044051
      f-3     :     0.018526
      g0      :     0.000383  g :     0.011447
      g+1     :     0.000946
      g-1     :     0.001356
      g+2     :     0.001123
      g-2     :     0.001337
      g+3     :     0.000088
      g-3     :     0.000879
      g+4     :     0.002205
      g-4     :     0.003129
  6 H s       :     0.795588  s :     0.795588
      pz      :     0.052981  p :     0.186764
      px      :     0.076741
      py      :     0.057042
      dz2     :     0.004736  d :     0.063578
      dxz     :     0.014104
      dyz     :     0.006465
      dx2y2   :     0.022498
      dxy     :     0.015776
      f0      :     0.001023  f :     0.009252
      f+1     :     0.000762
      f-1     :     0.000447
      f+2     :     0.000307
      f-2     :     0.001458
      f+3     :     0.003271
      f-3     :     0.001986
  7 H s       :     0.796626  s :     0.796626
      pz      :     0.052213  p :     0.185858
      px      :     0.081409
      py      :     0.052236
      dz2     :     0.004702  d :     0.062545
      dxz     :     0.015519
      dyz     :     0.004323
      dx2y2   :     0.020526
      dxy     :     0.017475
      f0      :     0.000989  f :     0.009124
      f+1     :     0.000809
      f-1     :     0.000388
      f+2     :     0.000584
      f-2     :     0.001097
      f+3     :     0.003283
      f-3     :     0.001974
  8 H s       :     0.797635  s :     0.797635
      pz      :     0.053524  p :     0.186846
      px      :     0.042141
      py      :     0.091181
      dz2     :     0.004683  d :     0.062635
      dxz     :     0.000330
      dyz     :     0.019743
      dx2y2   :     0.014320
      dxy     :     0.023560
      f0      :     0.001005  f :     0.009168
      f+1     :     0.000237
      f-1     :     0.000962
      f+2     :     0.001655
      f-2     :     0.000050
      f+3     :     0.003292
      f-3     :     0.001968
  9 H s       :     0.796624  s :     0.796624
      pz      :     0.052209  p :     0.185855
      px      :     0.077575
      py      :     0.056071
      dz2     :     0.004702  d :     0.062545
      dxz     :     0.014024
      dyz     :     0.005817
      dx2y2   :     0.022002
      dxy     :     0.015999
      f0      :     0.000989  f :     0.009124
      f+1     :     0.000752
      f-1     :     0.000445
      f+2     :     0.000332
      f-2     :     0.001349
      f+3     :     0.003293
      f-3     :     0.001964
 10 H s       :     0.795586  s :     0.795586
      pz      :     0.052985  p :     0.186772
      px      :     0.080888
      py      :     0.052900
      dz2     :     0.004736  d :     0.063581
      dxz     :     0.015710
      dyz     :     0.004860
      dx2y2   :     0.021152
      dxy     :     0.017123
      f0      :     0.001023  f :     0.009253
      f+1     :     0.000820
      f-1     :     0.000388
      f+2     :     0.000562
      f-2     :     0.001202
      f+3     :     0.003284
      f-3     :     0.001973
 11 Cls       :     5.503549  s :     5.503549
      pz      :     3.784728  p :    10.832496
      px      :     3.788249
      py      :     3.259519
      dz2     :     0.016075  d :     0.143404
      dxz     :     0.000742
      dyz     :     0.045799
      dx2y2   :     0.046678
      dxy     :     0.034109
      f0      :     0.004537  f :     0.038009
      f+1     :     0.000806
      f-1     :     0.004743
      f+2     :     0.007247
      f-2     :     0.000309
      f+3     :     0.012114
      f-3     :     0.008253
      g0      :     0.000160  g :     0.003772
      g+1     :     0.000007
      g-1     :     0.000648
      g+2     :     0.000357
      g-2     :     0.000168
      g+3     :     0.000038
      g-3     :     0.000502
      g+4     :     0.000704
      g-4     :     0.001189


                      *****************************
                      * MAYER POPULATION ANALYSIS *
                      *****************************

  NA   - Mulliken gross atomic population
  ZA   - Total nuclear charge
  QA   - Mulliken gross atomic charge
  VA   - Mayer's total valence
  BVA  - Mayer's bonded valence
  FA   - Mayer's free valence

  ATOM       NA         ZA         QA         VA         BVA        FA
  0 C      5.8776     6.0000     0.1224     3.6924     3.6924     0.0000
  1 C      6.0510     6.0000    -0.0510     3.7200     3.7200     0.0000
  2 C      6.0547     6.0000    -0.0547     3.7957     3.7957     0.0000
  3 C      6.0702     6.0000    -0.0702     3.8144     3.8144     0.0000
  4 C      6.0545     6.0000    -0.0545     3.7968     3.7968     0.0000
  5 C      6.0498     6.0000    -0.0498     3.7195     3.7195     0.0000
  6 H      0.9277     1.0000     0.0723     1.0054     1.0054     0.0000
  7 H      0.9349     1.0000     0.0651     0.9981     0.9981     0.0000
  8 H      0.9392     1.0000     0.0608     1.0012     1.0012    -0.0000
  9 H      0.9346     1.0000     0.0654     0.9981     0.9981    -0.0000
 10 H      0.9281     1.0000     0.0719     1.0057     1.0057     0.0000
 11 Cl    17.1775    17.0000    -0.1775     1.1399     1.1399    -0.0000

  Mayer bond orders larger than 0.100000
B(  0-C ,  1-C ) :   1.2582 B(  0-C ,  5-C ) :   1.2585 B(  0-C , 11-Cl) :   1.0155 
B(  1-C ,  2-C ) :   1.3224 B(  1-C ,  6-H ) :   0.9587 B(  2-C ,  3-C ) :   1.3295 
B(  2-C ,  7-H ) :   0.9643 B(  3-C ,  4-C ) :   1.3300 B(  3-C ,  8-H ) :   0.9684 
B(  4-C ,  5-C ) :   1.3228 B(  4-C ,  9-H ) :   0.9645 B(  5-C , 10-H ) :   0.9583 


-------
TIMINGS
-------

Total SCF time: 0 days 0 hours 34 min 18 sec 

Total time                  ....    2058.420 sec
Sum of individual times     ....    2022.975 sec  ( 98.3%)

Fock matrix formation       ....    1978.708 sec  ( 96.1%)
  Split-RI-J                ....     124.768 sec  (  6.3% of F)
  Chain of spheres X        ....    1637.856 sec  ( 82.8% of F)
  XC integration            ....     212.317 sec  ( 10.7% of F)
    Basis function eval.    ....      39.696 sec  ( 18.7% of XC)
    Density eval.           ....      73.598 sec  ( 34.7% of XC)
    XC-Functional eval.     ....       2.794 sec  (  1.3% of XC)
    XC-Potential eval.      ....      90.233 sec  ( 42.5% of XC)
Diagonalization             ....       2.495 sec  (  0.1%)
Density matrix formation    ....       0.340 sec  (  0.0%)
Population analysis         ....       0.315 sec  (  0.0%)
Initial guess               ....      15.853 sec  (  0.8%)
Orbital Transformation      ....       0.000 sec  (  0.0%)
Orbital Orthonormalization  ....       0.000 sec  (  0.0%)
DIIS solution               ....       1.442 sec  (  0.1%)
SOSCF solution              ....       1.420 sec  (  0.1%)
Grid generation             ....      22.402 sec  (  1.1%)

Maximum memory used throughout the entire SCF-calculation: 577.8 MB

-------------------------   --------------------
FINAL SINGLE POINT ENERGY      -691.777091367794
-------------------------   --------------------


                            ***************************************
                            *     ORCA property calculations      *
                            ***************************************

                                    ---------------------
                                    Active property flags
                                    ---------------------
   (+) Dipole Moment


------------------------------------------------------------------------------
                       ORCA ELECTRIC PROPERTIES CALCULATION
------------------------------------------------------------------------------

Dipole Moment Calculation                       ... on
Quadrupole Moment Calculation                   ... off
Polarizability Calculation                      ... off
GBWName                                         ... neutral.gbw
Electron density                                ... neutral.scfp
The origin for moment calculation is the CENTER OF MASS  = (-12.294410,  0.671545 -0.000000)

-------------
DIPOLE MOMENT
-------------
                                X             Y             Z
Electronic contribution:      0.41095       9.05323       0.00000
Nuclear contribution   :     -0.44175      -9.73233       0.00000
                        -----------------------------------------
Total Dipole Moment    :     -0.03080      -0.67910       0.00000
                        -----------------------------------------
Magnitude (a.u.)       :      0.67980
Magnitude (Debye)      :      1.72791



--------------------
Rotational spectrum 
--------------------
 
Rotational constants in cm-1:     0.188469     0.051636     0.040531 
Rotational constants in MHz :  5650.172228  1548.005627  1215.098957 

 Dipole components along the rotational axes: 
x,y,z [a.u.] :    -0.679800     0.000022     0.000001 
x,y,z [Debye]:    -1.727915     0.000057     0.000004 

 

Timings for individual modules:

Sum of individual times         ...     2074.199 sec (=  34.570 min)
GTO integral calculation        ...       13.434 sec (=   0.224 min)   0.6 %
SCF iterations                  ...     2060.765 sec (=  34.346 min)  99.4 %
                             ****ORCA TERMINATED NORMALLY****
TOTAL RUN TIME: 0 days 0 hours 34 minutes 38 seconds 141 msec
