
                                 *****************
                                 * O   R   C   A *
                                 *****************

                                            #,                                       
                                            ###                                      
                                            ####                                     
                                            #####                                    
                                            ######                                   
                                           ########,                                 
                                     ,,################,,,,,                         
                               ,,#################################,,                 
                          ,,##########################################,,             
                       ,#########################################, ''#####,          
                    ,#############################################,,   '####,        
                  ,##################################################,,,,####,       
                ,###########''''           ''''###############################       
              ,#####''   ,,,,##########,,,,          '''####'''          '####       
            ,##' ,,,,###########################,,,                        '##       
           ' ,,###''''                  '''############,,,                           
         ,,##''                                '''############,,,,        ,,,,,,###''
      ,#''                                            '''#######################'''  
     '                                                          ''''####''''         
             ,#######,   #######,   ,#######,      ##                                
            ,#'     '#,  ##    ##  ,#'     '#,    #''#        ######   ,####,        
            ##       ##  ##   ,#'  ##            #'  '#       #        #'  '#        
            ##       ##  #######   ##           ,######,      #####,   #    #        
            '#,     ,#'  ##    ##  '#,     ,#' ,#      #,         ##   #,  ,#        
             '#######'   ##     ##  '#######'  #'      '#     #####' # '####'        



                  #######################################################
                  #                        -***-                        #
                  #          Department of theory and spectroscopy      #
                  #    Directorship and core code : Frank Neese         #
                  #        Max Planck Institute fuer Kohlenforschung    #
                  #                Kaiser Wilhelm Platz 1               #
                  #                 D-45470 Muelheim/Ruhr               #
                  #                      Germany                        #
                  #                                                     #
                  #                  All rights reserved                #
                  #                        -***-                        #
                  #######################################################



                         Program Version 5.0.4 -  RELEASE  -

 With contributions from (in alphabetic order):
   Daniel Aravena         : Magnetic Suceptibility
   Michael Atanasov       : Ab Initio Ligand Field Theory (pilot matlab implementation)
   Alexander A. Auer      : GIAO ZORA, VPT2 properties, NMR spectrum
   Ute Becker             : Parallelization
   Giovanni Bistoni       : ED, misc. LED, open-shell LED, HFLD
   Martin Brehm           : Molecular dynamics
   Dmytro Bykov           : SCF Hessian
   Vijay G. Chilkuri      : MRCI spin determinant printing, contributions to CSF-ICE
   Dipayan Datta          : RHF DLPNO-CCSD density
   Achintya Kumar Dutta   : EOM-CC, STEOM-CC
   Dmitry Ganyushin       : Spin-Orbit,Spin-Spin,Magnetic field MRCI
   Miquel Garcia          : C-PCM and meta-GGA Hessian, CC/C-PCM, Gaussian charge scheme
   Yang Guo               : DLPNO-NEVPT2, F12-NEVPT2, CIM, IAO-localization
   Andreas Hansen         : Spin unrestricted coupled pair/coupled cluster methods
   Benjamin Helmich-Paris : MC-RPA, TRAH-SCF, COSX integrals
   Lee Huntington         : MR-EOM, pCC
   Robert Izsak           : Overlap fitted RIJCOSX, COSX-SCS-MP3, EOM
   Marcus Kettner         : VPT2
   Christian Kollmar      : KDIIS, OOCD, Brueckner-CCSD(T), CCSD density, CASPT2, CASPT2-K
   Simone Kossmann        : Meta GGA functionals, TD-DFT gradient, OOMP2, MP2 Hessian
   Martin Krupicka        : Initial AUTO-CI
   Lucas Lang             : DCDCAS
   Marvin Lechner         : AUTO-CI (C++ implementation), FIC-MRCC
   Dagmar Lenk            : GEPOL surface, SMD
   Dimitrios Liakos       : Extrapolation schemes; Compound Job, initial MDCI parallelization
   Dimitrios Manganas     : Further ROCIS development; embedding schemes
   Dimitrios Pantazis     : SARC Basis sets
   Anastasios Papadopoulos: AUTO-CI, single reference methods and gradients
   Taras Petrenko         : DFT Hessian,TD-DFT gradient, ASA, ECA, R-Raman, ABS, FL, XAS/XES, NRVS
   Peter Pinski           : DLPNO-MP2, DLPNO-MP2 Gradient
   Christoph Reimann      : Effective Core Potentials
   Marius Retegan         : Local ZFS, SOC
   Christoph Riplinger    : Optimizer, TS searches, QM/MM, DLPNO-CCSD(T), (RO)-DLPNO pert. Triples
   Tobias Risthaus        : Range-separated hybrids, TD-DFT gradient, RPA, STAB
   Michael Roemelt        : Original ROCIS implementation
   Masaaki Saitow         : Open-shell DLPNO-CCSD energy and density
   Barbara Sandhoefer     : DKH picture change effects
   Avijit Sen             : IP-ROCIS
   Kantharuban Sivalingam : CASSCF convergence, NEVPT2, FIC-MRCI
   Bernardo de Souza      : ESD, SOC TD-DFT
   Georgi Stoychev        : AutoAux, RI-MP2 NMR, DLPNO-MP2 response
   Willem Van den Heuvel  : Paramagnetic NMR
   Boris Wezisla          : Elementary symmetry handling
   Frank Wennmohs         : Technical directorship


 We gratefully acknowledge several colleagues who have allowed us to
 interface, adapt or use parts of their codes:
   Stefan Grimme, W. Hujo, H. Kruse, P. Pracht,  : VdW corrections, initial TS optimization,
                  C. Bannwarth, S. Ehlert          DFT functionals, gCP, sTDA/sTD-DF
   Ed Valeev, F. Pavosevic, A. Kumar             : LibInt (2-el integral package), F12 methods
   Garnet Chan, S. Sharma, J. Yang, R. Olivares  : DMRG
   Ulf Ekstrom                                   : XCFun DFT Library
   Mihaly Kallay                                 : mrcc  (arbitrary order and MRCC methods)
   Jiri Pittner, Ondrej Demel                    : Mk-CCSD
   Frank Weinhold                                : gennbo (NPA and NBO analysis)
   Christopher J. Cramer and Donald G. Truhlar   : smd solvation model
   Lars Goerigk                                  : TD-DFT with DH, B97 family of functionals
   V. Asgeirsson, H. Jonsson                     : NEB implementation
   FAccTs GmbH                                   : IRC, NEB, NEB-TS, DLPNO-Multilevel, CI-OPT
                                                   MM, QMMM, 2- and 3-layer-ONIOM, Crystal-QMMM,
                                                   LR-CPCM, SF, NACMEs, symmetry and pop. for TD-DFT,
                                                   nearIR, NL-DFT gradient (VV10), updates on ESD,
                                                   ML-optimized integration grids
   S Lehtola, MJT Oliveira, MAL Marques          : LibXC Library
   Liviu Ungur et al                             : ANISO software


 Your calculation uses the libint2 library for the computation of 2-el integrals
 For citations please refer to: http://libint.valeyev.net

 Your ORCA version has been built with support for libXC version: 5.1.0
 For citations please refer to: https://tddft.org/programs/libxc/

 This ORCA versions uses:
   CBLAS   interface :  Fast vector & matrix operations
   LAPACKE interface :  Fast linear algebra routines
   Shared memory     :  Shared parallel matrices


Your calculation utilizes the atom-pairwise dispersion correction
based on tight binding partial charges (D4)
Cite in your paper:
E.Caldeweyher, C.Bannwarth, S.Grimme, J.Chem.Phys., (2017), 147, 034112.
E.Caldeweyher, S.Ehlert, A.Hansen, H.Neugebauer, S.Grimme, J.Chem.Phys., (2018), in progress.
   

================================================================================

----- Orbital basis set information -----
Your calculation utilizes the basis: def2-SVP
   F. Weigend and R. Ahlrichs, Phys. Chem. Chem. Phys. 7, 3297 (2005).

----- AuxJ basis set information -----
Your calculation utilizes the auxiliary basis: def2/J
   F. Weigend, Phys. Chem. Chem. Phys. 8, 1057 (2006).

================================================================================
                                        WARNINGS
                       Please study these warnings very carefully!
================================================================================


WARNING: Geometry Optimization
  ===> : Switching off AutoStart
         For restart on a previous wavefunction, please use MOREAD

INFO   : the flag for use of the SHARK integral package has been found!

================================================================================
                                       INPUT FILE
================================================================================
NAME = opt.inp
|  1> !B3LYP DEF2-SVP OPT FREQ D4
|  2> 
|  3> * xyz 0 1
|  4>    C       -1.03027        1.31900       -0.82266
|  5>    C       -1.73587        0.86522        0.21516
|  6>    C       -0.88305        0.02305        1.09398
|  7>    C       -3.16130        1.13144        0.53375
|  8>    H       -3.62574        1.78129       -0.21503
|  9>    H       -3.24953        1.62248        1.50780
| 10>    H       -3.72659        0.19481        0.56417
| 11>    C        0.37890        0.83652       -0.75796
| 12>    C        1.35162        1.98275       -0.50170
| 13>    C        2.77694        1.49108       -0.60877
| 14>    H        1.20205        2.45384        0.47742
| 15>    H        1.21832        2.77785       -1.24651
| 16>    C        3.37068        0.83820        0.62203
| 17>    N        0.39721       -0.13623        0.36628
| 18>    H        0.63766        0.31315       -1.68636
| 19>    H       -1.33439       -0.95732        1.27797
| 20>    H       -0.70374        0.51677        2.05455
| 21>    H        0.37102       -1.06931       -0.05101
| 22>    O        3.37496        1.56344       -1.68539
| 23>   Cl        5.05807        1.34641        0.82867
| 24>    H        3.33218       -0.24885        0.51761
| 25>    H        2.82924        1.14296        1.52052
| 26>    H       -1.40912        1.96229       -1.60486
| 27> **                         ****END OF INPUT****
================================================================================

                       *****************************
                       * Geometry Optimization Run *
                       *****************************

Geometry optimization settings:
Update method            Update   .... BFGS
Choice of coordinates    CoordSys .... Z-matrix Internals
Initial Hessian          InHess   .... Almoef's Model

Convergence Tolerances:
Energy Change            TolE     ....  5.0000e-06 Eh
Max. Gradient            TolMAXG  ....  3.0000e-04 Eh/bohr
RMS Gradient             TolRMSG  ....  1.0000e-04 Eh/bohr
Max. Displacement        TolMAXD  ....  4.0000e-03 bohr
RMS Displacement         TolRMSD  ....  2.0000e-03 bohr
Strict Convergence                ....  False
------------------------------------------------------------------------------
                        ORCA OPTIMIZATION COORDINATE SETUP
------------------------------------------------------------------------------

The optimization will be done in new redundant internal coordinates
Making redundant internal coordinates   ...  (new redundants) done
Evaluating the initial hessian          ...  (Almloef) done
Evaluating the coordinates              ...  done
Calculating the B-matrix                .... done
Calculating the G-matrix                .... done
Diagonalizing the G-matrix              .... done
Small eigenvalue found = 1.544e-02
Small eigenvalue found = 2.237e-02
The first mode is                       ....   57
The number of degrees of freedom        ....   63

    -----------------------------------------------------------------
                    Redundant Internal Coordinates


    -----------------------------------------------------------------
         Definition                    Initial Value    Approx d2E/dq
    -----------------------------------------------------------------
      1. B(C   1,C   0)                  1.3345         0.766134   
      2. B(C   2,C   1)                  1.4862         0.438744   
      3. B(C   3,C   1)                  1.4847         0.441276   
      4. B(H   4,C   3)                  1.0948         0.353750   
      5. B(H   5,C   3)                  1.0944         0.354346   
      6. B(H   6,C   3)                  1.0944         0.354301   
      7. B(C   7,C   0)                  1.4909         0.431306   
      8. B(C   8,C   7)                  1.5250         0.380467   
      9. B(C   9,C   8)                  1.5115         0.399794   
     10. B(H  10,C   8)                  1.0968         0.351214   
     11. B(H  11,C   8)                  1.0976         0.350203   
     12. B(C  12,C   9)                  1.5145         0.395494   
     13. B(N  13,C   7)                  1.4868         0.392176   
     14. B(N  13,C   2)                  1.4812         0.400272   
     15. B(H  14,C   7)                  1.0967         0.351316   
     16. B(H  15,C   2)                  1.0948         0.353747   
     17. B(H  16,C   2)                  1.0948         0.353794   
     18. B(H  17,N  13)                  1.0225         0.413325   
     19. B(O  18,C   9)                  1.2337         0.993731   
     20. B(Cl 19,C  12)                  1.7743         0.341628   
     21. B(H  20,C  12)                  1.0927         0.356504   
     22. B(H  21,C  12)                  1.0924         0.356950   
     23. B(H  22,C   0)                  1.0813         0.371810   
     24. A(C   1,C   0,H  22)          125.4241         0.367871   
     25. A(C   7,C   0,H  22)          123.7169         0.333865   
     26. A(C   1,C   0,C   7)          110.8528         0.422452   
     27. A(C   0,C   1,C   2)          110.4347         0.423745   
     28. A(C   0,C   1,C   3)          127.8471         0.424181   
     29. A(C   2,C   1,C   3)          121.7115         0.384451   
     30. A(N  13,C   2,H  15)          110.0345         0.325104   
     31. A(C   1,C   2,H  15)          111.7293         0.332060   
     32. A(C   1,C   2,H  16)          110.9313         0.332067   
     33. A(N  13,C   2,H  16)          109.7539         0.325111   
     34. A(H  15,C   2,H  16)          108.8980         0.289226   
     35. A(C   1,C   2,N  13)          105.4501         0.375622   
     36. A(H   4,C   3,H   5)          107.9503         0.289297   
     37. A(C   1,C   3,H   5)          110.4171         0.332470   
     38. A(H   5,C   3,H   6)          108.5190         0.289367   
     39. A(C   1,C   3,H   4)          111.5280         0.332377   
     40. A(H   4,C   3,H   6)          107.9313         0.289291   
     41. A(C   1,C   3,H   6)          110.3905         0.332463   
     42. A(N  13,C   7,H  14)          108.9641         0.323648   
     43. A(C   8,C   7,H  14)          110.5140         0.323978   
     44. A(C   0,C   7,H  14)          109.9200         0.330743   
     45. A(C   0,C   7,C   8)          111.5267         0.373597   
     46. A(C   8,C   7,N  13)          110.9063         0.365244   
     47. A(C   0,C   7,N  13)          104.8441         0.373198   
     48. A(C   7,C   8,H  11)          110.6699         0.323809   
     49. A(C   9,C   8,H  10)          109.3621         0.326612   
     50. A(C   7,C   8,H  10)          112.6967         0.323962   
     51. A(C   7,C   8,C   9)          110.1861         0.368751   
     52. A(H  10,C   8,H  11)          106.1454         0.288439   
     53. A(C   9,C   8,H  11)          107.5830         0.326457   
     54. A(C   8,C   9,C  12)          116.8938         0.371215   
     55. A(C  12,C   9,O  18)          122.9883         0.432948   
     56. A(C   8,C   9,O  18)          119.9889         0.433790   
     57. A(H  20,C  12,H  21)          109.7957         0.289981   
     58. A(Cl 19,C  12,H  21)          107.1973         0.332423   
     59. A(C   9,C  12,H  21)          110.7231         0.326902   
     60. A(Cl 19,C  12,H  20)          109.2426         0.332354   
     61. A(C   9,C  12,H  20)          109.7172         0.326834   
     62. A(C   9,C  12,Cl 19)          110.1210         0.377059   
     63. A(C   2,N  13,H  17)          106.0512         0.330720   
     64. A(C   2,N  13,C   7)          106.8874         0.366135   
     65. A(C   7,N  13,H  17)          106.7471         0.329605   
     66. D(C   2,C   1,C   0,C   7)     -0.1538         0.042035   
     67. D(C   2,C   1,C   0,H  22)   -179.2756         0.042035   
     68. D(C   3,C   1,C   0,H  22)     -0.2199         0.042035   
     69. D(C   3,C   1,C   0,C   7)    178.9019         0.042035   
     70. D(N  13,C   2,C   1,C   3)    173.3977         0.014205   
     71. D(H  15,C   2,C   1,C   3)     53.8751         0.014205   
     72. D(H  16,C   2,C   1,C   3)    -67.8423         0.014205   
     73. D(N  13,C   2,C   1,C   0)     -7.4788         0.014205   
     74. D(H  15,C   2,C   1,C   0)   -127.0014         0.014205   
     75. D(H  16,C   2,C   1,C   0)    111.2812         0.014205   
     76. D(H   4,C   3,C   1,C   0)      0.1865         0.014367   
     77. D(H   5,C   3,C   1,C   2)     59.1232         0.014367   
     78. D(H   4,C   3,C   1,C   2)    179.1464         0.014367   
     79. D(H   5,C   3,C   1,C   0)   -119.8367         0.014367   
     80. D(H   6,C   3,C   1,C   0)    120.1680         0.014367   
     81. D(H   6,C   3,C   1,C   2)    -60.8721         0.014367   
     82. D(H  14,C   7,C   0,H  22)    -56.2102         0.013737   
     83. D(H  14,C   7,C   0,C   1)    124.6501         0.013737   
     84. D(N  13,C   7,C   0,H  22)   -173.1875         0.013737   
     85. D(N  13,C   7,C   0,C   1)      7.6728         0.013737   
     86. D(C   8,C   7,C   0,H  22)     66.7208         0.013737   
     87. D(C   8,C   7,C   0,C   1)   -112.4188         0.013737   
     88. D(H  11,C   8,C   7,N  13)   -170.7299         0.011536   
     89. D(H  11,C   8,C   7,C   0)    -54.2756         0.011536   
     90. D(H  10,C   8,C   7,H  14)   -173.0027         0.011536   
     91. D(C   9,C   8,C   7,H  14)    -50.5466         0.011536   
     92. D(C   9,C   8,C   7,N  13)     70.4079         0.011536   
     93. D(C   9,C   8,C   7,C   0)   -173.1378         0.011536   
     94. D(H  10,C   8,C   7,N  13)    -52.0481         0.011536   
     95. D(H  11,C   8,C   7,H  14)     68.3155         0.011536   
     96. D(H  10,C   8,C   7,C   0)     64.4062         0.011536   
     97. D(O  18,C   9,C   8,H  11)    -28.3241         0.011862   
     98. D(O  18,C   9,C   8,H  10)   -143.1935         0.011862   
     99. D(O  18,C   9,C   8,C   7)     92.4078         0.011862   
    100. D(C  12,C   9,C   8,H  11)    155.6802         0.011862   
    101. D(C  12,C   9,C   8,H  10)     40.8108         0.011862   
    102. D(C  12,C   9,C   8,C   7)    -83.5879         0.011862   
    103. D(H  21,C  12,C   9,C   8)    -21.4357         0.011620   
    104. D(H  20,C  12,C   9,O  18)    -75.9525         0.011620   
    105. D(H  20,C  12,C   9,C   8)     99.9124         0.011620   
    106. D(Cl 19,C  12,C   9,O  18)     44.3225         0.011620   
    107. D(H  21,C  12,C   9,O  18)    162.6994         0.011620   
    108. D(Cl 19,C  12,C   9,C   8)   -139.8125         0.011620   
    109. D(H  17,N  13,C   7,C   8)   -138.3091         0.013144   
    110. D(H  17,N  13,C   7,C   0)    101.1871         0.013144   
    111. D(C   2,N  13,C   7,H  14)   -129.5917         0.013144   
    112. D(C   2,N  13,C   7,C   8)    108.5430         0.013144   
    113. D(C   2,N  13,C   7,C   0)    -11.9609         0.013144   
    114. D(H  17,N  13,C   2,H  16)    138.7834         0.013679   
    115. D(H  17,N  13,C   2,H  15)     18.9650         0.013679   
    116. D(H  17,N  13,C   2,C   1)   -101.6740         0.013679   
    117. D(C   7,N  13,C   2,H  16)   -107.5950         0.013679   
    118. D(C   7,N  13,C   2,H  15)    132.5866         0.013679   
    119. D(H  17,N  13,C   7,H  14)    -16.4438         0.013144   
    120. D(C   7,N  13,C   2,C   1)     11.9476         0.013679   
    -----------------------------------------------------------------

Number of atoms                         .... 23
Number of degrees of freedom            .... 120

         *************************************************************
         *                GEOMETRY OPTIMIZATION CYCLE   1            *
         *************************************************************
---------------------------------
CARTESIAN COORDINATES (ANGSTROEM)
---------------------------------
  C     -1.030270    1.319000   -0.822660
  C     -1.735870    0.865220    0.215160
  C     -0.883050    0.023050    1.093980
  C     -3.161300    1.131440    0.533750
  H     -3.625740    1.781290   -0.215030
  H     -3.249530    1.622480    1.507800
  H     -3.726590    0.194810    0.564170
  C      0.378900    0.836520   -0.757960
  C      1.351620    1.982750   -0.501700
  C      2.776940    1.491080   -0.608770
  H      1.202050    2.453840    0.477420
  H      1.218320    2.777850   -1.246510
  C      3.370680    0.838200    0.622030
  N      0.397210   -0.136230    0.366280
  H      0.637660    0.313150   -1.686360
  H     -1.334390   -0.957320    1.277970
  H     -0.703740    0.516770    2.054550
  H      0.371020   -1.069310   -0.051010
  O      3.374960    1.563440   -1.685390
  Cl     5.058070    1.346410    0.828670
  H      3.332180   -0.248850    0.517610
  H      2.829240    1.142960    1.520520
  H     -1.409120    1.962290   -1.604860

----------------------------
CARTESIAN COORDINATES (A.U.)
----------------------------
  NO LB      ZA    FRAG     MASS         X           Y           Z
   0 C     6.0000    0    12.011   -1.946928    2.492549   -1.554602
   1 C     6.0000    0    12.011   -3.280319    1.635029    0.406593
   2 C     6.0000    0    12.011   -1.668723    0.043558    2.067323
   3 C     6.0000    0    12.011   -5.973991    2.138112    1.008641
   4 H     1.0000    0     1.008   -6.851656    3.366150   -0.406348
   5 H     1.0000    0     1.008   -6.140722    3.066043    2.849329
   6 H     1.0000    0     1.008   -7.042235    0.368138    1.066127
   7 C     6.0000    0    12.011    0.716017    1.580794   -1.432337
   8 C     6.0000    0    12.011    2.554192    3.746854   -0.948076
   9 C     6.0000    0    12.011    5.247656    2.817733   -1.150409
  10 H     1.0000    0     1.008    2.271545    4.637086    0.902193
  11 H     1.0000    0     1.008    2.302291    5.249376   -2.355563
  12 C     6.0000    0    12.011    6.369662    1.583968    1.175466
  13 N     7.0000    0    14.007    0.750618   -0.257437    0.692169
  14 H     1.0000    0     1.008    1.205003    0.591768   -3.186759
  15 H     1.0000    0     1.008   -2.521632   -1.809073    2.415013
  16 H     1.0000    0     1.008   -1.329876    0.976554    3.882537
  17 H     1.0000    0     1.008    0.701126   -2.020703   -0.096395
  18 O     8.0000    0    15.999    6.377750    2.954473   -3.184926
  19 Cl   17.0000    0    35.453    9.558367    2.544346    1.565959
  20 H     1.0000    0     1.008    6.296908   -0.470258    0.978141
  21 H     1.0000    0     1.008    5.346489    2.159881    2.873366
  22 H     1.0000    0     1.008   -2.662851    3.708191   -3.032746

--------------------------------
INTERNAL COORDINATES (ANGSTROEM)
--------------------------------
 C      0   0   0     0.000000000000     0.00000000     0.00000000
 C      1   0   0     1.334487917068     0.00000000     0.00000000
 C      2   1   0     1.486229071745   110.43467984     0.00000000
 C      2   1   3     1.484662709641   127.84708907   179.05571432
 H      4   2   1     1.094842922295   111.52797326     0.18654749
 H      4   2   1     1.094384857808   110.41714722   240.16332952
 H      4   2   1     1.094419443084   110.39052282   120.16802238
 C      1   2   3     1.490883338595   110.85283998   359.84618786
 C      8   1   2     1.525023474869   111.52670432   247.58116157
 C      9   8   1     1.511535800502   110.18612806   186.86223134
 H      9   8   1     1.096801234226   112.69674087    64.40616330
 H      9   8   1     1.097585912856   110.66988899   305.72440262
 C     10   9   8     1.514479488801   116.89383284   276.41209803
 N      3   2   1     1.481210004017   105.45008390   352.52123147
 H      8   1   2     1.096722140973   109.91995720   124.65008003
 H      3   2   1     1.094844944547   111.72926516   232.99856450
 H      3   2   1     1.094808768416   110.93127485   111.28118941
 H     14   3   2     1.022475010257   106.05117226   258.32601642
 O     10   9   8     1.233683312038   119.98893413    92.40779179
 Cl    13  10   9     1.774334383875   110.12096618   220.18749398
 H     13  10   9     1.092732121290   109.71722076    99.91242443
 H     13  10   9     1.092391967794   110.72312467   338.56431891
 H      1   2   3     1.081289131824   125.42409690   180.72436216

---------------------------
INTERNAL COORDINATES (A.U.)
---------------------------
 C      0   0   0     0.000000000000     0.00000000     0.00000000
 C      1   0   0     2.521816692285     0.00000000     0.00000000
 C      2   1   0     2.808565917870   110.43467984     0.00000000
 C      2   1   3     2.805605922468   127.84708907   179.05571432
 H      4   2   1     2.068953282800   111.52797326     0.18654749
 H      4   2   1     2.068087666368   110.41714722   240.16332952
 H      4   2   1     2.068153023067   110.39052282   120.16802238
 C      1   2   3     2.817361207571   110.85283998   359.84618786
 C      8   1   2     2.881876715302   111.52670432   247.58116157
 C      9   8   1     2.856388704567   110.18612806   186.86223134
 H      9   8   1     2.072653956034   112.69674087    64.40616330
 H      9   8   1     2.074136783748   110.66988899   305.72440262
 C     10   9   8     2.861951469276   116.89383284   276.41209803
 N      3   2   1     2.799081254417   105.45008390   352.52123147
 H      8   1   2     2.072504491446   109.91995720   124.65008003
 H      3   2   1     2.068957104302   111.72926516   232.99856450
 H      3   2   1     2.068888741321   110.93127485   111.28118941
 H     14   3   2     1.932197748164   106.05117226   258.32601642
 O     10   9   8     2.331323595740   119.98893413    92.40779179
 Cl    13  10   9     3.353006055523   110.12096618   220.18749398
 H     13  10   9     2.064964446978   109.71722076    99.91242443
 H     13  10   9     2.064321650025   110.72312467   338.56431891
 H      1   2   3     2.043340330732   125.42409690   180.72436216

---------------------
BASIS SET INFORMATION
---------------------
There are 5 groups of distinct atoms

 Group   1 Type C   : 7s4p1d contracted to 3s2p1d pattern {511/31/1}
 Group   2 Type H   : 4s1p contracted to 2s1p pattern {31/1}
 Group   3 Type N   : 7s4p1d contracted to 3s2p1d pattern {511/31/1}
 Group   4 Type O   : 7s4p1d contracted to 3s2p1d pattern {511/31/1}
 Group   5 Type Cl  : 10s7p1d contracted to 4s3p1d pattern {5311/511/1}

Atom   0C    basis set group =>   1
Atom   1C    basis set group =>   1
Atom   2C    basis set group =>   1
Atom   3C    basis set group =>   1
Atom   4H    basis set group =>   2
Atom   5H    basis set group =>   2
Atom   6H    basis set group =>   2
Atom   7C    basis set group =>   1
Atom   8C    basis set group =>   1
Atom   9C    basis set group =>   1
Atom  10H    basis set group =>   2
Atom  11H    basis set group =>   2
Atom  12C    basis set group =>   1
Atom  13N    basis set group =>   3
Atom  14H    basis set group =>   2
Atom  15H    basis set group =>   2
Atom  16H    basis set group =>   2
Atom  17H    basis set group =>   2
Atom  18O    basis set group =>   4
Atom  19Cl   basis set group =>   5
Atom  20H    basis set group =>   2
Atom  21H    basis set group =>   2
Atom  22H    basis set group =>   2
---------------------------------
AUXILIARY/J BASIS SET INFORMATION
---------------------------------
There are 5 groups of distinct atoms

 Group   1 Type C   : 12s5p4d2f1g contracted to 6s4p3d1f1g pattern {711111/2111/211/2/1}
 Group   2 Type H   : 5s2p1d contracted to 3s1p1d pattern {311/2/1}
 Group   3 Type N   : 12s5p4d2f1g contracted to 6s4p3d1f1g pattern {711111/2111/211/2/1}
 Group   4 Type O   : 12s5p4d2f1g contracted to 6s4p3d1f1g pattern {711111/2111/211/2/1}
 Group   5 Type Cl  : 14s5p5d2f1g contracted to 8s4p3d1f1g pattern {71111111/2111/311/2/1}

Atom   0C    basis set group =>   1
Atom   1C    basis set group =>   1
Atom   2C    basis set group =>   1
Atom   3C    basis set group =>   1
Atom   4H    basis set group =>   2
Atom   5H    basis set group =>   2
Atom   6H    basis set group =>   2
Atom   7C    basis set group =>   1
Atom   8C    basis set group =>   1
Atom   9C    basis set group =>   1
Atom  10H    basis set group =>   2
Atom  11H    basis set group =>   2
Atom  12C    basis set group =>   1
Atom  13N    basis set group =>   3
Atom  14H    basis set group =>   2
Atom  15H    basis set group =>   2
Atom  16H    basis set group =>   2
Atom  17H    basis set group =>   2
Atom  18O    basis set group =>   4
Atom  19Cl   basis set group =>   5
Atom  20H    basis set group =>   2
Atom  21H    basis set group =>   2
Atom  22H    basis set group =>   2
------------------------------------------------------------------------------
                           ORCA GTO INTEGRAL CALCULATION
                           -- RI-GTO INTEGRALS CHOSEN --
------------------------------------------------------------------------------
------------------------------------------------------------------------------
                   ___                                                        
                  /   \      - P O W E R E D   B Y -                         
                 /     \                                                     
                 |  |  |   _    _      __       _____    __    __             
                 |  |  |  | |  | |    /  \     |  _  \  |  |  /  |          
                  \  \/   | |  | |   /    \    | | | |  |  | /  /          
                 / \  \   | |__| |  /  /\  \   | |_| |  |  |/  /          
                |  |  |   |  __  | /  /__\  \  |    /   |      \           
                |  |  |   | |  | | |   __   |  |    \   |  |\   \          
                \     /   | |  | | |  |  |  |  | |\  \  |  | \   \       
                 \___/    |_|  |_| |__|  |__|  |_| \__\ |__|  \__/        
                                                                              
                      - O R C A' S   B I G   F R I E N D -                    
                                      &                                       
                       - I N T E G R A L  F E E D E R -                       
                                                                              
 v1 FN, 2020, v2 2021                                                         
------------------------------------------------------------------------------


Reading SHARK input file opt.SHARKINP.tmp ... ok
----------------------
SHARK INTEGRAL PACKAGE
----------------------

Number of atoms                             ...     23
Number of basis functions                   ...    218
Number of shells                            ...    104
Maximum angular momentum                    ...      2
Integral batch strategy                     ... SHARK/LIBINT Hybrid
RI-J (if used) integral strategy            ... SPLIT-RIJ (Revised 2003 algorithm where possible)
Printlevel                                  ...      1
Contraction scheme used                     ... SEGMENTED contraction
Coulomb Range Separation                    ... NOT USED
Exchange Range Separation                   ... NOT USED
Finite Nucleus Model                        ... NOT USED
Auxiliary Coulomb fitting basis             ... AVAILABLE
   # of basis functions in Aux-J            ...    673
   # of shells in Aux-J                     ...    227
   Maximum angular momentum in Aux-J        ...      4
Auxiliary J/K fitting basis                 ... NOT available
Auxiliary Correlation fitting basis         ... NOT available
Auxiliary 'external' fitting basis          ... NOT available
Integral threshold                          ...     2.500000e-11
Primitive cut-off                           ...     2.500000e-12
Primitive pair pre-selection threshold      ...     2.500000e-12

Calculating pre-screening integrals         ... done (  0.2 sec) Dimension = 104
Organizing shell pair data                  ... done (  0.2 sec)
Shell pair information
Total number of shell pairs                 ...      5460
Shell pairs after pre-screening             ...      4739
Total number of primitive shell pairs       ...     19890
Primitive shell pairs kept                  ...     12068
          la=0 lb=0:   1503 shell pairs
          la=1 lb=0:   1775 shell pairs
          la=1 lb=1:    545 shell pairs
          la=2 lb=0:    541 shell pairs
          la=2 lb=1:    321 shell pairs
          la=2 lb=2:     54 shell pairs

Calculating one electron integrals          ... done (  0.1 sec)
Calculating RI/J V-Matrix + Cholesky decomp.... done (  0.1 sec)
Calculating Nuclear repulsion               ... done (  0.0 sec) ENN=    683.859643796767 Eh

SHARK setup successfully completed in   1.0 seconds

Maximum memory used throughout the entire GTOINT-calculation: 32.0 MB
-------------------------------------------------------------------------------
                                 ORCA SCF
-------------------------------------------------------------------------------

------------
SCF SETTINGS
------------
Hamiltonian:
 Density Functional     Method          .... DFT(GTOs)
 Exchange Functional    Exchange        .... B88
   X-Alpha parameter    XAlpha          ....  0.666667
   Becke's b parameter  XBeta           ....  0.004200
 Correlation Functional Correlation     .... LYP
 LDA part of GGA corr.  LDAOpt          .... VWN-5
 Gradients option       PostSCFGGA      .... off
 Hybrid DFT is turned on
   Fraction HF Exchange ScalHFX         ....  0.200000
   Scaling of DF-GGA-X  ScalDFX         ....  0.720000
   Scaling of DF-GGA-C  ScalDFC         ....  0.810000
   Scaling of DF-LDA-C  ScalLDAC        ....  1.000000
   Perturbative correction              ....  0.000000
   Density functional embedding theory  .... OFF
   NL short-range parameter             ....  4.800000
 RI-approximation to the Coulomb term is turned on
   Number of AuxJ basis functions       .... 673
   RIJ-COSX (HFX calculated with COS-X)).... on


General Settings:
 Integral files         IntName         .... opt
 Hartree-Fock type      HFTyp           .... RHF
 Total Charge           Charge          ....    0
 Multiplicity           Mult            ....    1
 Number of Electrons    NEL             ....   92
 Basis Dimension        Dim             ....  218
 Nuclear Repulsion      ENuc            ....    683.8596437968 Eh

Convergence Acceleration:
 DIIS                   CNVDIIS         .... on
   Start iteration      DIISMaxIt       ....    12
   Startup error        DIISStart       ....  0.200000
   # of expansion vecs  DIISMaxEq       ....     5
   Bias factor          DIISBfac        ....   1.050
   Max. coefficient     DIISMaxC        ....  10.000
 Trust-Rad. Augm. Hess. CNVTRAH         .... auto
   Auto Start mean grad. ratio tolernc. ....  1.125000
   Auto Start start iteration           ....    20
   Auto Start num. interpolation iter.  ....    10
   Max. Number of Micro iterations      ....    16
   Max. Number of Macro iterations      .... Maxiter - #DIIS iter
   Number of Davidson start vectors     ....     2
   Converg. threshold I  (grad. norm)   ....   1.000e-05
   Converg. threshold II (energy diff.) ....   1.000e-08
   Grad. Scal. Fac. for Micro threshold ....   0.100
   Minimum threshold for Micro iter.    ....   0.010
   NR start threshold (gradient norm)   ....   0.001
   Initial trust radius                 ....   0.400
   Minimum AH scaling param. (alpha)    ....   1.000
   Maximum AH scaling param. (alpha)    .... 1000.000
   Orbital update algorithm             .... Taylor
   White noise on init. David. guess    .... on
   Maximum white noise                  ....   0.010
   Quad. conv. algorithm                .... NR
 SOSCF                  CNVSOSCF        .... on
   Start iteration      SOSCFMaxIt      ....   150
   Startup grad/error   SOSCFStart      ....  0.003300
 Level Shifting         CNVShift        .... on
   Level shift para.    LevelShift      ....    0.2500
   Turn off err/grad.   ShiftErr        ....    0.0010
 Zerner damping         CNVZerner       .... off
 Static damping         CNVDamp         .... on
   Fraction old density DampFac         ....    0.7000
   Max. Damping (<1)    DampMax         ....    0.9800
   Min. Damping (>=0)   DampMin         ....    0.0000
   Turn off err/grad.   DampErr         ....    0.1000
 Fernandez-Rico         CNVRico         .... off

SCF Procedure:
 Maximum # iterations   MaxIter         ....   125
 SCF integral mode      SCFMode         .... Direct
   Integral package                     .... SHARK and LIBINT hybrid scheme
 Reset frequency        DirectResetFreq ....    20
 Integral Threshold     Thresh          ....  2.500e-11 Eh
 Primitive CutOff       TCut            ....  2.500e-12 Eh

Convergence Tolerance:
 Convergence Check Mode ConvCheckMode   .... Total+1el-Energy
 Convergence forced     ConvForced      .... 0
 Energy Change          TolE            ....  1.000e-08 Eh
 1-El. energy change                    ....  1.000e-05 Eh
 Orbital Gradient       TolG            ....  1.000e-05
 Orbital Rotation angle TolX            ....  1.000e-05
 DIIS Error             TolErr          ....  5.000e-07


Diagonalization of the overlap matrix:
Smallest eigenvalue                        ... 7.105e-04
Time for diagonalization                   ...    0.017 sec
Threshold for overlap eigenvalues          ... 1.000e-08
Number of eigenvalues below threshold      ... 0
Time for construction of square roots      ...    0.010 sec
Total time needed                          ...    0.027 sec

Time for model grid setup =    1.049 sec

------------------------------
INITIAL GUESS: MODEL POTENTIAL
------------------------------
Loading Hartree-Fock densities                     ... done
Calculating cut-offs                               ... done
Initializing the effective Hamiltonian             ... done
Setting up the integral package (SHARK)            ... done
Starting the Coulomb interaction                   ... done (   2.0 sec)
Reading the grid                                   ... done
Mapping shells                                     ... done
Starting the XC term evaluation                    ... done (   1.7 sec)
  promolecular density results
     # of electrons  =     91.994635949
     EX              =    -87.002734729
     EC              =     -3.216463608
     EX+EC           =    -90.219198337
Transforming the Hamiltonian                       ... done (   0.0 sec)
Diagonalizing the Hamiltonian                      ... done (   0.0 sec)
Back transforming the eigenvectors                 ... done (   0.0 sec)
Now organizing SCF variables                       ... done
                      ------------------
                      INITIAL GUESS DONE (   4.8 sec)
                      ------------------
-------------------
DFT GRID GENERATION
-------------------

General Integration Accuracy     IntAcc      ... 4.388
Radial Grid Type                 RadialGrid  ... OptM3 with GC (2021)
Angular Grid (max. ang.)         AngularGrid ... 4 (Lebedev-302)
Angular grid pruning method      GridPruning ... 4 (adaptive)
Weight generation scheme         WeightScheme... Becke
Basis function cutoff            BFCut       ... 1.0000e-11
Integration weight cutoff        WCut        ... 1.0000e-14
Angular grids for H and He will be reduced by one unit
Partially contracted basis set               ... off
Rotationally invariant grid construction     ... off

Total number of grid points                  ...   105626
Total number of batches                      ...     1660
Average number of points per batch           ...       63
Average number of grid points per atom       ...     4592
Time for grid setup =    3.084 sec

--------------------
COSX GRID GENERATION
--------------------

GRIDX 1
-------
General Integration Accuracy     IntAcc      ... 3.816
Radial Grid Type                 RadialGrid  ... OptM3 with GC (2021)
Angular Grid (max. ang.)         AngularGrid ... 1 (Lebedev-50)
Angular grid pruning method      GridPruning ... 4 (adaptive)
Weight generation scheme         WeightScheme... Becke
Basis function cutoff            BFCut       ... 1.0000e-11
Integration weight cutoff        WCut        ... 1.0000e-14
Angular grids for H and He will be reduced by one unit
Partially contracted basis set               ... on
Rotationally invariant grid construction     ... off

Total number of grid points                  ...    13397
Total number of batches                      ...      224
Average number of points per batch           ...       59
Average number of grid points per atom       ...      582
UseSFitting                                  ... on

GRIDX 2
-------
General Integration Accuracy     IntAcc      ... 4.020
Radial Grid Type                 RadialGrid  ... OptM3 with GC (2021)
Angular Grid (max. ang.)         AngularGrid ... 2 (Lebedev-110)
Angular grid pruning method      GridPruning ... 4 (adaptive)
Weight generation scheme         WeightScheme... Becke
Basis function cutoff            BFCut       ... 1.0000e-11
Integration weight cutoff        WCut        ... 1.0000e-14
Angular grids for H and He will be reduced by one unit
Partially contracted basis set               ... on
Rotationally invariant grid construction     ... off

Total number of grid points                  ...    28731
Total number of batches                      ...      459
Average number of points per batch           ...       62
Average number of grid points per atom       ...     1249
UseSFitting                                  ... on

GRIDX 3
-------
General Integration Accuracy     IntAcc      ... 4.338
Radial Grid Type                 RadialGrid  ... OptM3 with GC (2021)
Angular Grid (max. ang.)         AngularGrid ... 3 (Lebedev-194)
Angular grid pruning method      GridPruning ... 4 (adaptive)
Weight generation scheme         WeightScheme... Becke
Basis function cutoff            BFCut       ... 1.0000e-11
Integration weight cutoff        WCut        ... 1.0000e-14
Angular grids for H and He will be reduced by one unit
Partially contracted basis set               ... on
Rotationally invariant grid construction     ... off

Total number of grid points                  ...    63407
Total number of batches                      ...     1001
Average number of points per batch           ...       63
Average number of grid points per atom       ...     2757
UseSFitting                                  ... on

Time for X-Grid setup             =    2.712 sec

--------------
SCF ITERATIONS
--------------
ITER       Energy         Delta-E        Max-DP      RMS-DP      [F,P]     Damp
               ***  Starting incremental Fock matrix formation  ***
  0   -901.1200240607   0.000000000000 0.09822136  0.00243808  0.2530186 0.7000
  1   -901.2592057525  -0.139181691775 0.06416407  0.00163896  0.0946722 0.7000
                               ***Turning on DIIS***
  2   -901.3122285747  -0.053022822204 0.07279461  0.00249530  0.0369903 0.0000
  3   -901.3961016494  -0.083873074699 0.05600954  0.00123374  0.0517042 0.0000
  4   -901.4149338378  -0.018832188439 0.01444582  0.00034973  0.0176806 0.0000
  5   -901.4162218225  -0.001287984690 0.00627018  0.00013514  0.0084246 0.0000
                      *** Initiating the SOSCF procedure ***
                           *** Shutting down DIIS ***
                      *** Re-Reading the Fockian *** 
                      *** Removing any level shift *** 
ITER      Energy       Delta-E        Grad      Rot      Max-DP    RMS-DP
  6   -901.41636228  -0.0001404530  0.000201  0.000201  0.001646  0.000043
               *** Restarting incremental Fock matrix formation ***
  7   -901.41636624  -0.0000039604  0.000122  0.000460  0.001342  0.000032
  8   -901.41636610   0.0000001318  0.000150  0.000141  0.000528  0.000012
  9   -901.41636775  -0.0000016500  0.000048  0.000128  0.000203  0.000005
 10   -901.41636766   0.0000000900  0.000098  0.000105  0.000148  0.000003
 11   -901.41636780  -0.0000001371  0.000014  0.000029  0.000070  0.000002
 12   -901.41636780  -0.0000000029  0.000012  0.000014  0.000035  0.000001
                  ***Gradient check signals convergence***
              ***Rediagonalizing the Fockian in SOSCF/NRSCF***

               *****************************************************
               *                     SUCCESS                       *
               *           SCF CONVERGED AFTER  13 CYCLES          *
               *****************************************************

Old exchange energy                            =    -17.620261628 Eh
New exchange energy                            =    -17.620232045 Eh
Exchange energy change after final integration =      0.000029583 Eh
Total energy after final integration           =   -901.416338224 Eh
Final COS-X integration done in                =    29.955 sec

----------------
TOTAL SCF ENERGY
----------------

Total Energy       :         -901.41633822 Eh          -24528.78558 eV

Components:
Nuclear Repulsion  :          683.85964380 Eh           18608.76696 eV
Electronic Energy  :        -1585.27598202 Eh          -43137.55254 eV
One Electron Energy:        -2591.17138541 Eh          -70509.35802 eV
Two Electron Energy:         1005.89540339 Eh           27371.80548 eV
Max COSX asymmetry :            0.00000404 Eh               0.00011 eV

Virial components:
Potential Energy   :        -1797.79722901 Eh          -48920.54967 eV
Kinetic Energy     :          896.38089079 Eh           24391.76409 eV
Virial Ratio       :            2.00561753


DFT components:
N(Alpha)           :       46.000024159552 electrons
N(Beta)            :       46.000024159552 electrons
N(Total)           :       92.000048319104 electrons
E(X)               :      -69.931863719885 Eh       
E(C)               :       -3.787708822044 Eh       
E(XC)              :      -73.719572541929 Eh       
DFET-embed. en.    :        0.000000000000 Eh       

---------------
SCF CONVERGENCE
---------------

  Last Energy change         ...   -3.0419e-09  Tolerance :   1.0000e-08
  Last MAX-Density change    ...    4.4409e-15  Tolerance :   1.0000e-07
  Last RMS-Density change    ...    5.5391e-17  Tolerance :   5.0000e-09
  Last Orbital Gradient      ...    2.1422e-06  Tolerance :   1.0000e-05
  Last Orbital Rotation      ...    7.7827e-06  Tolerance :   1.0000e-05

             **** THE GBW FILE WAS UPDATED (opt.gbw) ****
             **** DENSITY opt.scfp WAS UPDATED ****
             **** ENERGY FILE WAS UPDATED (opt.en.tmp) ****
             **** THE GBW FILE WAS UPDATED (opt.gbw) ****
             **** DENSITY opt.scfp WAS UPDATED ****
----------------
ORBITAL ENERGIES
----------------

  NO   OCC          E(Eh)            E(eV) 
   0   2.0000    -101.476881     -2761.3263 
   1   2.0000     -19.121436      -520.3207 
   2   2.0000     -14.320369      -389.6771 
   3   2.0000     -10.272499      -279.5289 
   4   2.0000     -10.234119      -278.4845 
   5   2.0000     -10.226468      -278.2763 
   6   2.0000     -10.216780      -278.0127 
   7   2.0000     -10.194437      -277.4047 
   8   2.0000     -10.193998      -277.3928 
   9   2.0000     -10.189943      -277.2825 
  10   2.0000     -10.182637      -277.0836 
  11   2.0000      -9.431881      -256.6545 
  12   2.0000      -7.201303      -195.9574 
  13   2.0000      -7.190792      -195.6714 
  14   2.0000      -7.190647      -195.6675 
  15   2.0000      -1.017573       -27.6896 
  16   2.0000      -0.928974       -25.2787 
  17   2.0000      -0.844853       -22.9896 
  18   2.0000      -0.793145       -21.5826 
  19   2.0000      -0.779309       -21.2061 
  20   2.0000      -0.717562       -19.5259 
  21   2.0000      -0.686584       -18.6829 
  22   2.0000      -0.669712       -18.2238 
  23   2.0000      -0.588143       -16.0042 
  24   2.0000      -0.545452       -14.8425 
  25   2.0000      -0.531696       -14.4682 
  26   2.0000      -0.514942       -14.0123 
  27   2.0000      -0.481368       -13.0987 
  28   2.0000      -0.469159       -12.7665 
  29   2.0000      -0.465078       -12.6554 
  30   2.0000      -0.444870       -12.1055 
  31   2.0000      -0.430804       -11.7228 
  32   2.0000      -0.425338       -11.5740 
  33   2.0000      -0.412053       -11.2125 
  34   2.0000      -0.407799       -11.0968 
  35   2.0000      -0.396901       -10.8002 
  36   2.0000      -0.390594       -10.6286 
  37   2.0000      -0.368681       -10.0323 
  38   2.0000      -0.363905        -9.9024 
  39   2.0000      -0.360621        -9.8130 
  40   2.0000      -0.343659        -9.3514 
  41   2.0000      -0.287652        -7.8274 
  42   2.0000      -0.280821        -7.6415 
  43   2.0000      -0.258732        -7.0405 
  44   2.0000      -0.249686        -6.7943 
  45   2.0000      -0.237605        -6.4656 
  46   0.0000      -0.034615        -0.9419 
  47   0.0000       0.008247         0.2244 
  48   0.0000       0.036133         0.9832 
  49   0.0000       0.057698         1.5700 
  50   0.0000       0.069083         1.8798 
  51   0.0000       0.076069         2.0699 
  52   0.0000       0.087450         2.3796 
  53   0.0000       0.106692         2.9032 
  54   0.0000       0.116366         3.1665 
  55   0.0000       0.120749         3.2857 
  56   0.0000       0.130944         3.5632 
  57   0.0000       0.137068         3.7298 
  58   0.0000       0.142032         3.8649 
  59   0.0000       0.149978         4.0811 
  60   0.0000       0.154086         4.1929 
  61   0.0000       0.181111         4.9283 
  62   0.0000       0.202539         5.5114 
  63   0.0000       0.208312         5.6685 
  64   0.0000       0.215492         5.8638 
  65   0.0000       0.238982         6.5030 
  66   0.0000       0.265774         7.2321 
  67   0.0000       0.290824         7.9137 
  68   0.0000       0.302947         8.2436 
  69   0.0000       0.316460         8.6113 
  70   0.0000       0.376173        10.2362 
  71   0.0000       0.418890        11.3986 
  72   0.0000       0.432833        11.7780 
  73   0.0000       0.436090        11.8666 
  74   0.0000       0.445974        12.1356 
  75   0.0000       0.452271        12.3069 
  76   0.0000       0.454309        12.3624 
  77   0.0000       0.467579        12.7235 
  78   0.0000       0.484419        13.1817 
  79   0.0000       0.487847        13.2750 
  80   0.0000       0.504005        13.7147 
  81   0.0000       0.519442        14.1347 
  82   0.0000       0.543314        14.7843 
  83   0.0000       0.566967        15.4280 
  84   0.0000       0.573675        15.6105 
  85   0.0000       0.583456        15.8767 
  86   0.0000       0.588280        16.0079 
  87   0.0000       0.609448        16.5839 
  88   0.0000       0.617832        16.8121 
  89   0.0000       0.627680        17.0801 
  90   0.0000       0.630530        17.1576 
  91   0.0000       0.640075        17.4173 
  92   0.0000       0.644360        17.5339 
  93   0.0000       0.646389        17.5892 
  94   0.0000       0.653043        17.7702 
  95   0.0000       0.662387        18.0245 
  96   0.0000       0.665466        18.1083 
  97   0.0000       0.672291        18.2940 
  98   0.0000       0.674266        18.3477 
  99   0.0000       0.680393        18.5144 
 100   0.0000       0.689443        18.7607 
 101   0.0000       0.695131        18.9155 
 102   0.0000       0.705103        19.1868 
 103   0.0000       0.710422        19.3316 
 104   0.0000       0.724448        19.7132 
 105   0.0000       0.730702        19.8834 
 106   0.0000       0.755205        20.5502 
 107   0.0000       0.787257        21.4223 
 108   0.0000       0.806748        21.9527 
 109   0.0000       0.809205        22.0196 
 110   0.0000       0.814865        22.1736 
 111   0.0000       0.823604        22.4114 
 112   0.0000       0.844173        22.9711 
 113   0.0000       0.852742        23.2043 
 114   0.0000       0.860520        23.4160 
 115   0.0000       0.900012        24.4906 
 116   0.0000       0.913280        24.8516 
 117   0.0000       0.924452        25.1556 
 118   0.0000       0.941411        25.6171 
 119   0.0000       0.990575        26.9549 
 120   0.0000       0.999308        27.1925 
 121   0.0000       1.010062        27.4852 
 122   0.0000       1.068472        29.0746 
 123   0.0000       1.087155        29.5830 
 124   0.0000       1.107997        30.1501 
 125   0.0000       1.122124        30.5346 
 126   0.0000       1.154049        31.4033 
 127   0.0000       1.180193        32.1147 
 128   0.0000       1.191959        32.4348 
 129   0.0000       1.227294        33.3964 
 130   0.0000       1.232297        33.5325 
 131   0.0000       1.253910        34.1206 
 132   0.0000       1.334692        36.3188 
 133   0.0000       1.356158        36.9029 
 134   0.0000       1.417098        38.5612 
 135   0.0000       1.445323        39.3292 
 136   0.0000       1.452762        39.5317 
 137   0.0000       1.489989        40.5447 
 138   0.0000       1.496141        40.7121 
 139   0.0000       1.498396        40.7734 
 140   0.0000       1.523298        41.4511 
 141   0.0000       1.528030        41.5798 
 142   0.0000       1.581291        43.0291 
 143   0.0000       1.593124        43.3511 
 144   0.0000       1.658714        45.1359 
 145   0.0000       1.669876        45.4396 
 146   0.0000       1.689193        45.9653 
 147   0.0000       1.712172        46.5906 
 148   0.0000       1.720282        46.8113 
 149   0.0000       1.722684        46.8766 
 150   0.0000       1.737563        47.2815 
 151   0.0000       1.752637        47.6917 
 152   0.0000       1.763479        47.9867 
 153   0.0000       1.771440        48.2033 
 154   0.0000       1.781212        48.4692 
 155   0.0000       1.801411        49.0189 
 156   0.0000       1.804921        49.1144 
 157   0.0000       1.822662        49.5971 
 158   0.0000       1.838780        50.0357 
 159   0.0000       1.853941        50.4483 
 160   0.0000       1.868834        50.8536 
 161   0.0000       1.887411        51.3591 
 162   0.0000       1.905268        51.8450 
 163   0.0000       1.911393        52.0116 
 164   0.0000       1.927480        52.4494 
 165   0.0000       1.952919        53.1416 
 166   0.0000       1.962254        53.3957 
 167   0.0000       1.964135        53.4468 
 168   0.0000       1.994080        54.2617 
 169   0.0000       2.000007        54.4230 
 170   0.0000       2.024544        55.0906 
 171   0.0000       2.047805        55.7236 
 172   0.0000       2.078358        56.5550 
 173   0.0000       2.099586        57.1327 
 174   0.0000       2.106590        57.3232 
 175   0.0000       2.147569        58.4383 
 176   0.0000       2.157600        58.7113 
 177   0.0000       2.211494        60.1778 
 178   0.0000       2.222267        60.4710 
 179   0.0000       2.234786        60.8116 
 180   0.0000       2.265016        61.6342 
 181   0.0000       2.313985        62.9667 
 182   0.0000       2.319825        63.1257 
 183   0.0000       2.350795        63.9684 
 184   0.0000       2.380135        64.7668 
 185   0.0000       2.381254        64.7972 
 186   0.0000       2.419786        65.8457 
 187   0.0000       2.440569        66.4113 
 188   0.0000       2.454552        66.7918 
 189   0.0000       2.469915        67.2098 
 190   0.0000       2.526432        68.7477 
 191   0.0000       2.568775        69.8999 
 192   0.0000       2.611089        71.0514 
 193   0.0000       2.620732        71.3137 
 194   0.0000       2.648837        72.0785 
 195   0.0000       2.688415        73.1555 
 196   0.0000       2.700647        73.4883 
 197   0.0000       2.736509        74.4642 
 198   0.0000       2.752054        74.8872 
 199   0.0000       2.757692        75.0406 
 200   0.0000       2.767881        75.3179 
 201   0.0000       2.803330        76.2825 
 202   0.0000       2.824124        76.8483 
 203   0.0000       2.852243        77.6135 
 204   0.0000       2.866485        78.0010 
 205   0.0000       2.910295        79.1932 
 206   0.0000       2.928875        79.6987 
 207   0.0000       2.954417        80.3938 
 208   0.0000       2.974859        80.9500 
 209   0.0000       3.009508        81.8929 
 210   0.0000       3.026572        82.3572 
 211   0.0000       3.050338        83.0039 
 212   0.0000       3.155309        85.8603 
 213   0.0000       3.184686        86.6597 
 214   0.0000       3.253132        88.5222 
 215   0.0000       3.339116        90.8620 
 216   0.0000       3.363966        91.5382 
 217   0.0000       3.609957        98.2319 

                    ********************************
                    * MULLIKEN POPULATION ANALYSIS *
                    ********************************

-----------------------
MULLIKEN ATOMIC CHARGES
-----------------------
   0 C :   -0.046943
   1 C :   -0.223199
   2 C :    0.236745
   3 C :    0.124699
   4 H :    0.007328
   5 H :    0.019343
   6 H :    0.016550
   7 C :    0.026285
   8 C :    0.165056
   9 C :   -0.006541
  10 H :   -0.007197
  11 H :    0.005851
  12 C :    0.110410
  13 N :   -0.272296
  14 H :    0.007404
  15 H :    0.002818
  16 H :    0.005305
  17 H :    0.104310
  18 O :   -0.207326
  19 Cl:   -0.152962
  20 H :    0.066813
  21 H :    0.043550
  22 H :   -0.026003
Sum of atomic charges:   -0.0000000

--------------------------------
MULLIKEN REDUCED ORBITAL CHARGES
--------------------------------
  0 C s       :     3.251092  s :     3.251092
      pz      :     0.912829  p :     2.761532
      px      :     0.900399
      py      :     0.948305
      dz2     :     0.007897  d :     0.034319
      dxz     :     0.007980
      dyz     :     0.006076
      dx2y2   :     0.005686
      dxy     :     0.006680
  1 C s       :     3.151563  s :     3.151563
      pz      :     0.997960  p :     3.026091
      px      :     1.011992
      py      :     1.016138
      dz2     :     0.009455  d :     0.045545
      dxz     :     0.012384
      dyz     :     0.006383
      dx2y2   :     0.007853
      dxy     :     0.009471
  2 C s       :     2.884657  s :     2.884657
      pz      :     0.999964  p :     2.828064
      px      :     0.844839
      py      :     0.983261
      dz2     :     0.010860  d :     0.050535
      dxz     :     0.012215
      dyz     :     0.008771
      dx2y2   :     0.010135
      dxy     :     0.008555
  3 C s       :     2.894092  s :     2.894092
      pz      :     0.992491  p :     2.951986
      px      :     0.972205
      py      :     0.987290
      dz2     :     0.006192  d :     0.029224
      dxz     :     0.004279
      dyz     :     0.005655
      dx2y2   :     0.005585
      dxy     :     0.007512
  4 H s       :     0.969279  s :     0.969279
      pz      :     0.009224  p :     0.023392
      px      :     0.005895
      py      :     0.008274
  5 H s       :     0.956622  s :     0.956622
      pz      :     0.012318  p :     0.024035
      px      :     0.004470
      py      :     0.007247
  6 H s       :     0.959470  s :     0.959470
      pz      :     0.005328  p :     0.023980
      px      :     0.007078
      py      :     0.011575
  7 C s       :     3.023727  s :     3.023727
      pz      :     0.952586  p :     2.890517
      px      :     0.976999
      py      :     0.960932
      dz2     :     0.011327  d :     0.059470
      dxz     :     0.008321
      dyz     :     0.014800
      dx2y2   :     0.011601
      dxy     :     0.013421
  8 C s       :     2.932610  s :     2.932610
      pz      :     0.949516  p :     2.869693
      px      :     0.935105
      py      :     0.985072
      dz2     :     0.006588  d :     0.032641
      dxz     :     0.002706
      dyz     :     0.008813
      dx2y2   :     0.007848
      dxy     :     0.006686
  9 C s       :     3.174919  s :     3.174919
      pz      :     0.944311  p :     2.740640
      px      :     0.956407
      py      :     0.839922
      dz2     :     0.028791  d :     0.090982
      dxz     :     0.024966
      dyz     :     0.017779
      dx2y2   :     0.010739
      dxy     :     0.008707
 10 H s       :     0.984452  s :     0.984452
      pz      :     0.012449  p :     0.022744
      px      :     0.004093
      py      :     0.006202
 11 H s       :     0.971631  s :     0.971631
      pz      :     0.009343  p :     0.022517
      px      :     0.003760
      py      :     0.009414
 12 C s       :     2.985700  s :     2.985700
      pz      :     1.023006  p :     2.863493
      px      :     0.788477
      py      :     1.052011
      dz2     :     0.008224  d :     0.040397
      dxz     :     0.010031
      dyz     :     0.004790
      dx2y2   :     0.010782
      dxy     :     0.006570
 13 N s       :     3.492439  s :     3.492439
      pz      :     1.240111  p :     3.756569
      px      :     1.450708
      py      :     1.065750
      dz2     :     0.004065  d :     0.023288
      dxz     :     0.003915
      dyz     :     0.006745
      dx2y2   :     0.005944
      dxy     :     0.002618
 14 H s       :     0.971960  s :     0.971960
      pz      :     0.010952  p :     0.020636
      px      :     0.004448
      py      :     0.005235
 15 H s       :     0.975108  s :     0.975108
      pz      :     0.004560  p :     0.022074
      px      :     0.005194
      py      :     0.012320
 16 H s       :     0.973073  s :     0.973073
      pz      :     0.011758  p :     0.021622
      px      :     0.003347
      py      :     0.006517
 17 H s       :     0.851301  s :     0.851301
      pz      :     0.011677  p :     0.044389
      px      :     0.011997
      py      :     0.020715
 18 O s       :     3.763840  s :     3.763840
      pz      :     1.399765  p :     4.426299
      px      :     1.632067
      py      :     1.394467
      dz2     :     0.005537  d :     0.017187
      dxz     :     0.005321
      dyz     :     0.003921
      dx2y2   :     0.001071
      dxy     :     0.001336
 19 Cls       :     5.958873  s :     5.958873
      pz      :     3.949345  p :    11.160532
      px      :     3.312838
      py      :     3.898349
      dz2     :     0.005230  d :     0.033557
      dxz     :     0.006336
      dyz     :     0.000578
      dx2y2   :     0.012621
      dxy     :     0.008793
 20 H s       :     0.910146  s :     0.910146
      pz      :     0.004656  p :     0.023041
      px      :     0.003506
      py      :     0.014879
 21 H s       :     0.934129  s :     0.934129
      pz      :     0.011462  p :     0.022322
      px      :     0.005891
      py      :     0.004969
 22 H s       :     1.002493  s :     1.002493
      pz      :     0.010104  p :     0.023511
      px      :     0.004863
      py      :     0.008543


                     *******************************
                     * LOEWDIN POPULATION ANALYSIS *
                     *******************************

----------------------
LOEWDIN ATOMIC CHARGES
----------------------
   0 C :   -0.052114
   1 C :   -0.043902
   2 C :    0.037819
   3 C :   -0.042821
   4 H :    0.031273
   5 H :    0.033669
   6 H :    0.032452
   7 C :    0.032309
   8 C :   -0.050482
   9 C :    0.074064
  10 H :    0.026577
  11 H :    0.035294
  12 C :   -0.103844
  13 N :   -0.115706
  14 H :    0.021769
  15 H :    0.019476
  16 H :    0.018083
  17 H :    0.059504
  18 O :   -0.155364
  19 Cl:    0.054329
  20 H :    0.040811
  21 H :    0.025845
  22 H :    0.020958

-------------------------------
LOEWDIN REDUCED ORBITAL CHARGES
-------------------------------
  0 C s       :     2.873370  s :     2.873370
      pz      :     1.048042  p :     3.088815
      px      :     1.019977
      py      :     1.020796
      dz2     :     0.020150  d :     0.089929
      dxz     :     0.021769
      dyz     :     0.015186
      dx2y2   :     0.015883
      dxy     :     0.016941
  1 C s       :     2.865066  s :     2.865066
      pz      :     1.042662  p :     3.067227
      px      :     1.034257
      py      :     0.990308
      dz2     :     0.022195  d :     0.111609
      dxz     :     0.033477
      dyz     :     0.015477
      dx2y2   :     0.018898
      dxy     :     0.021562
  2 C s       :     2.831170  s :     2.831170
      pz      :     1.024241  p :     3.012577
      px      :     0.936286
      py      :     1.052049
      dz2     :     0.025518  d :     0.118435
      dxz     :     0.028564
      dyz     :     0.021047
      dx2y2   :     0.023544
      dxy     :     0.019763
  3 C s       :     2.823140  s :     2.823140
      pz      :     1.059960  p :     3.143683
      px      :     1.025313
      py      :     1.058410
      dz2     :     0.016075  d :     0.075998
      dxz     :     0.010753
      dyz     :     0.014855
      dx2y2   :     0.014810
      dxy     :     0.019504
  4 H s       :     0.904171  s :     0.904171
      pz      :     0.025197  p :     0.064555
      px      :     0.017354
      py      :     0.022004
  5 H s       :     0.900807  s :     0.900807
      pz      :     0.034357  p :     0.065524
      px      :     0.013028
      py      :     0.018139
  6 H s       :     0.902189  s :     0.902189
      pz      :     0.012585  p :     0.065360
      px      :     0.020217
      py      :     0.032558
  7 C s       :     2.836945  s :     2.836945
      pz      :     0.979155  p :     2.993730
      px      :     1.029150
      py      :     0.985425
      dz2     :     0.026881  d :     0.137015
      dxz     :     0.015751
      dyz     :     0.034751
      dx2y2   :     0.024974
      dxy     :     0.034658
  8 C s       :     2.852650  s :     2.852650
      pz      :     1.059386  p :     3.111897
      px      :     1.016068
      py      :     1.036444
      dz2     :     0.017735  d :     0.085935
      dxz     :     0.006674
      dyz     :     0.022268
      dx2y2   :     0.019979
      dxy     :     0.019279
  9 C s       :     2.897246  s :     2.897246
      pz      :     1.006565  p :     2.822982
      px      :     1.007355
      py      :     0.809062
      dz2     :     0.068308  d :     0.205708
      dxz     :     0.059267
      dyz     :     0.036246
      dx2y2   :     0.024737
      dxy     :     0.017150
 10 H s       :     0.905767  s :     0.905767
      pz      :     0.035292  p :     0.067656
      px      :     0.014124
      py      :     0.018240
 11 H s       :     0.897910  s :     0.897910
      pz      :     0.025897  p :     0.066795
      px      :     0.012893
      py      :     0.028005
 12 C s       :     2.908693  s :     2.908693
      pz      :     1.083671  p :     3.097789
      px      :     0.920836
      py      :     1.093282
      dz2     :     0.020344  d :     0.097362
      dxz     :     0.025613
      dyz     :     0.011980
      dx2y2   :     0.025062
      dxy     :     0.014363
 13 N s       :     3.168206  s :     3.168206
      pz      :     1.300670  p :     3.898201
      px      :     1.454343
      py      :     1.143188
      dz2     :     0.007275  d :     0.049300
      dxz     :     0.008038
      dyz     :     0.015728
      dx2y2   :     0.014318
      dxy     :     0.003941
 14 H s       :     0.911462  s :     0.911462
      pz      :     0.033823  p :     0.066769
      px      :     0.014903
      py      :     0.018043
 15 H s       :     0.914911  s :     0.914911
      pz      :     0.013912  p :     0.065613
      px      :     0.016278
      py      :     0.035423
 16 H s       :     0.916450  s :     0.916450
      pz      :     0.035272  p :     0.065467
      px      :     0.011451
      py      :     0.018744
 17 H s       :     0.817140  s :     0.817140
      pz      :     0.033089  p :     0.123356
      px      :     0.033924
      py      :     0.056343
 18 O s       :     3.565258  s :     3.565258
      pz      :     1.501703  p :     4.560565
      px      :     1.662263
      py      :     1.396599
      dz2     :     0.010325  d :     0.029540
      dxz     :     0.010627
      dyz     :     0.005068
      dx2y2   :     0.001882
      dxy     :     0.001639
 19 Cls       :     5.779334  s :     5.779334
      pz      :     3.927869  p :    11.128847
      px      :     3.315579
      py      :     3.885399
      dz2     :     0.006200  d :     0.037489
      dxz     :     0.006493
      dyz     :     0.000640
      dx2y2   :     0.014621
      dxy     :     0.009535
 20 H s       :     0.887904  s :     0.887904
      pz      :     0.013759  p :     0.071285
      px      :     0.011246
      py      :     0.046280
 21 H s       :     0.903477  s :     0.903477
      pz      :     0.035377  p :     0.070678
      px      :     0.020488
      py      :     0.014813
 22 H s       :     0.907649  s :     0.907649
      pz      :     0.028644  p :     0.071393
      px      :     0.016928
      py      :     0.025821


                      *****************************
                      * MAYER POPULATION ANALYSIS *
                      *****************************

  NA   - Mulliken gross atomic population
  ZA   - Total nuclear charge
  QA   - Mulliken gross atomic charge
  VA   - Mayer's total valence
  BVA  - Mayer's bonded valence
  FA   - Mayer's free valence

  ATOM       NA         ZA         QA         VA         BVA        FA
  0 C      6.0469     6.0000    -0.0469     3.8904     3.8904     0.0000
  1 C      6.2232     6.0000    -0.2232     4.1877     4.1877     0.0000
  2 C      5.7633     6.0000     0.2367     3.9049     3.9049    -0.0000
  3 C      5.8753     6.0000     0.1247     3.9201     3.9201     0.0000
  4 H      0.9927     1.0000     0.0073     0.9971     0.9971     0.0000
  5 H      0.9807     1.0000     0.0193     0.9896     0.9896    -0.0000
  6 H      0.9834     1.0000     0.0166     0.9899     0.9899     0.0000
  7 C      5.9737     6.0000     0.0263     4.0857     4.0857    -0.0000
  8 C      5.8349     6.0000     0.1651     3.7751     3.7751    -0.0000
  9 C      6.0065     6.0000    -0.0065     4.2374     4.2374     0.0000
 10 H      1.0072     1.0000    -0.0072     0.9963     0.9963    -0.0000
 11 H      0.9941     1.0000     0.0059     1.0126     1.0126    -0.0000
 12 C      5.8896     6.0000     0.1104     3.8137     3.8137     0.0000
 13 N      7.2723     7.0000    -0.2723     3.1058     3.1058    -0.0000
 14 H      0.9926     1.0000     0.0074     0.9780     0.9780    -0.0000
 15 H      0.9972     1.0000     0.0028     0.9804     0.9804    -0.0000
 16 H      0.9947     1.0000     0.0053     0.9778     0.9778    -0.0000
 17 H      0.8957     1.0000     0.1043     0.9870     0.9870    -0.0000
 18 O      8.2073     8.0000    -0.2073     2.2473     2.2473     0.0000
 19 Cl    17.1530    17.0000    -0.1530     1.0820     1.0820    -0.0000
 20 H      0.9332     1.0000     0.0668     1.0103     1.0103     0.0000
 21 H      0.9565     1.0000     0.0435     1.0089     1.0089     0.0000
 22 H      1.0260     1.0000    -0.0260     0.9955     0.9955     0.0000

  Mayer bond orders larger than 0.100000
B(  0-C ,  1-C ) :   1.8798 B(  0-C ,  7-C ) :   0.9751 B(  0-C , 22-H ) :   0.9940 
B(  1-C ,  2-C ) :   1.0189 B(  1-C ,  3-C ) :   1.0941 B(  2-C , 13-N ) :   1.0324 
B(  2-C , 15-H ) :   0.9381 B(  2-C , 16-H ) :   0.9153 B(  3-C ,  4-H ) :   0.9530 
B(  3-C ,  5-H ) :   0.9466 B(  3-C ,  6-H ) :   0.9448 B(  7-C ,  8-C ) :   1.0236 
B(  7-C , 13-N ) :   1.0736 B(  7-C , 14-H ) :   0.9132 B(  8-C ,  9-C ) :   0.9974 
B(  8-C , 10-H ) :   0.9068 B(  8-C , 11-H ) :   0.9143 B(  9-C , 12-C ) :   0.9411 
B(  9-C , 18-O ) :   2.1693 B( 12-C , 19-Cl) :   1.0228 B( 12-C , 20-H ) :   0.9234 
B( 12-C , 21-H ) :   0.9409 B( 13-N , 17-H ) :   0.9477 

-------
TIMINGS
-------

Total SCF time: 0 days 0 hours 3 min 48 sec 

Total time                  ....     228.954 sec
Sum of individual times     ....     228.090 sec  ( 99.6%)

Fock matrix formation       ....     217.077 sec  ( 94.8%)
  Split-RI-J                ....      17.034 sec  (  7.8% of F)
  Chain of spheres X        ....     163.827 sec  ( 75.5% of F)
  XC integration            ....      36.059 sec  ( 16.6% of F)
    Basis function eval.    ....      13.760 sec  ( 38.2% of XC)
    Density eval.           ....      10.882 sec  ( 30.2% of XC)
    XC-Functional eval.     ....       2.399 sec  (  6.7% of XC)
    XC-Potential eval.      ....       7.444 sec  ( 20.6% of XC)
Diagonalization             ....       0.125 sec  (  0.1%)
Density matrix formation    ....       0.029 sec  (  0.0%)
Population analysis         ....       0.051 sec  (  0.0%)
Initial guess               ....       3.716 sec  (  1.6%)
Orbital Transformation      ....       0.000 sec  (  0.0%)
Orbital Orthonormalization  ....       0.000 sec  (  0.0%)
DIIS solution               ....       0.129 sec  (  0.1%)
SOSCF solution              ....       0.118 sec  (  0.1%)
Grid generation             ....       6.845 sec  (  3.0%)

Maximum memory used throughout the entire SCF-calculation: 86.3 MB


-------------------------------------------------------------------------------
                          DFT DISPERSION CORRECTION                            
                                                                               
                                 DFTD4 V2.5                                    
-------------------------------------------------------------------------------
The B3LYP functional is recognized
Active option DFTDOPT                   ...         5   

Starting D4
-------------------------   ----------------
Dispersion correction           -0.037940240
-------------------------   ----------------


-------------------------   --------------------
FINAL SINGLE POINT ENERGY      -901.454278464137
-------------------------   --------------------

------------------------------------------------------------------------------
                         ORCA SCF GRADIENT CALCULATION
------------------------------------------------------------------------------

 ... reading COSX grid (gridx3)
Gradient of the Kohn-Sham DFT energy:
Kohn-Sham wavefunction type      ... RKS
Hartree-Fock exchange scaling    ...    0.200
Number of operators              ...    1
Number of atoms                  ...   23
Basis set dimensions             ...  218
Integral neglect threshold       ... 2.5e-11
Integral primitive cutoff        ... 2.5e-12
SHARK Integral package           ... ON

Nuc. rep. gradient       (SHARK) ... done (  0.0 sec)
HCore & Overlap gradient (SHARK) ... done (  0.6 sec)
RI-J gradient            (SHARK) ... done (  3.8 sec)
COSX-gradient                    ... done ( 37.8 sec)
Exchange-correlation gradient    ... done
Dispersion correction            ... Starting D4


------------------- 
Dispersion Gradient 
------------------- 
   1  :   -0.000338640    0.000130530   -0.000388087
   2  :   -0.000505010   -0.000059729    0.000088073
   3  :   -0.000300713   -0.000406493    0.000441409
   4  :   -0.000751935    0.000146071    0.000133197
   5  :   -0.000163276    0.000043826    0.000011696
   6  :   -0.000175927    0.000061204    0.000064717
   7  :   -0.000191253   -0.000000087    0.000022755
   8  :   -0.000201645   -0.000032946   -0.000363048
   9  :    0.000128497    0.000555438   -0.000275623
  10  :    0.000519158    0.000221465   -0.000226109
  11  :    0.000052398    0.000245228    0.000045594
  12  :    0.000058379    0.000198712   -0.000129573
  13  :    0.000624213   -0.000066811    0.000312541
  14  :   -0.000231982   -0.000547292    0.000239929
  15  :   -0.000020695   -0.000083475   -0.000179904
  16  :   -0.000005175   -0.000168223    0.000121209
  17  :   -0.000025476   -0.000081822    0.000220570
  18  :   -0.000036355   -0.000334118   -0.000044708
  19  :    0.000355116    0.000166124   -0.000614894
  20  :    0.000875644   -0.000023261    0.000472924
  21  :    0.000232286   -0.000099356    0.000071449
  22  :    0.000224140    0.000020233    0.000175498
  23  :   -0.000121751    0.000114782   -0.000199616

  |G| =    0.002063201

done

------------------
CARTESIAN GRADIENT
------------------

   1   C   :    0.006122332    0.002694251   -0.002976414
   2   C   :    0.009700872   -0.007563255    0.006430815
   3   C   :   -0.014861236    0.003967265    0.002631851
   4   C   :   -0.000653649   -0.003275869    0.004176980
   5   H   :    0.001777895   -0.002258455    0.002221070
   6   H   :    0.002701466   -0.001072492   -0.006575979
   7   H   :    0.004497950    0.004686193   -0.002767183
   8   C   :    0.002531045    0.004063714   -0.008095608
   9   C   :   -0.012544416   -0.008565340    0.003503438
  10   C   :   -0.010689433   -0.004079404    0.042554346
  11   H   :    0.006800974    0.003487902   -0.004928779
  12   H   :   -0.000140890    0.000948472    0.004790611
  13   C   :    0.000318682   -0.007041735   -0.001167063
  14   N   :    0.003500546    0.008841958    0.006746629
  15   H   :   -0.007490550   -0.001413174    0.004932380
[...]
     38       0.000010   0.036906   0.044684  -0.000086  -0.001227   0.000875
     39      -0.000117  -0.000248  -0.000158   0.000020   0.000232   0.000331
     40       0.000065   0.000062  -0.000352   0.000080   0.000143   0.000103
     41      -0.000110   0.000070  -0.000009   0.000055   0.000208  -0.000345
     42      -0.000395  -0.005889   0.004058   0.000153  -0.004204   0.006139
     43      -0.000483   0.013767  -0.010152  -0.000527   0.011009  -0.022122
     44      -0.001625   0.026848  -0.017422  -0.001558   0.020403  -0.041099
     45       0.011223   0.000440   0.001975   0.001715  -0.000578  -0.001375
     46       0.029839   0.001337   0.003273   0.008403  -0.001397  -0.002041
     47       0.004816   0.000117   0.000421   0.000484  -0.000194  -0.000159
     48      -0.002663   0.000121   0.000116   0.001356  -0.000254   0.000062
     49      -0.007157   0.000542  -0.001189   0.000398  -0.000109   0.000522
     50      -0.043315   0.003812  -0.007204   0.010315   0.000337   0.000561
     51      -0.000211   0.000001  -0.000337  -0.000196   0.000147  -0.001402
     52       0.000025  -0.000061   0.000282  -0.000176  -0.000384  -0.000619
     53       0.000382  -0.000149  -0.000209   0.000091  -0.000353   0.000085
     54      -0.000050   0.000289   0.000390  -0.000002  -0.000045   0.000321
     55       0.000026  -0.000290  -0.000362   0.000003   0.000333   0.000121
     56       0.000034  -0.000787  -0.000990   0.000007   0.000614  -0.000542
     57      -0.000010   0.000073   0.000078  -0.000001  -0.000257  -0.000127
     58       0.000004   0.000009   0.000017   0.000000  -0.000233  -0.000141
     59      -0.000002  -0.000136  -0.000220   0.000001   0.000038  -0.000016
     60       0.000082   0.301920   0.377277  -0.000803  -0.397631  -0.197275
     61       0.000058   0.251900   0.314144  -0.000674  -0.320369  -0.156216
     62       0.000179  -0.234500  -0.292664   0.000570   0.325362   0.159689
     63      -0.000161  -0.065860  -0.075281   0.000154  -0.086730  -0.048791
     64      -0.000585  -0.390894  -0.450685   0.000848  -0.556480  -0.313295
     65      -0.000251  -0.199813  -0.229317   0.000407  -0.300172  -0.168509
     66      -0.003574   0.001330  -0.001004   0.000140  -0.001572   0.002748
     67       0.005809  -0.004384   0.004033  -0.000207   0.003907  -0.007393
     68      -0.004380   0.003488  -0.003324   0.000237  -0.003438   0.006744
                 66         67         68    
      0      -0.000016  -0.026017  -0.000156
      1      -0.000832   0.064481   0.000231
      2       0.000908  -0.055767  -0.000215
      3       0.001109  -0.004875  -0.000387
      4       0.000775  -0.002771   0.000079
      5      -0.001349   0.005163   0.000013
      6       0.000438  -0.000039  -0.002119
      7      -0.000149  -0.000776  -0.001316
      8      -0.000089   0.000668  -0.000587
      9      -0.018917  -0.000284   0.000017
     10       0.065847   0.000470   0.000023
     11      -0.062167  -0.000345   0.000011
     12       0.382309   0.005358  -0.000226
     13      -0.649991  -0.006503   0.000343
     14       0.516970   0.004507  -0.000149
     15      -0.015954   0.001325  -0.000097
     16       0.092785  -0.000844   0.000064
     17       0.265147  -0.002978   0.000032
     18      -0.154319   0.002493   0.000183
     19      -0.226164   0.001837  -0.000159
     20      -0.036331  -0.000189   0.000003
     21      -0.000063   0.002659  -0.000517
     22       0.000005  -0.000956   0.000041
     23      -0.000024  -0.001186  -0.002392
     24       0.000023  -0.000204   0.000178
     25       0.000065   0.000762  -0.000019
     26      -0.000332  -0.000974   0.000137
     27      -0.000001  -0.000023  -0.000029
     28       0.000006  -0.000140  -0.000054
     29      -0.000020  -0.000002   0.000064
     30      -0.000426  -0.000175   0.000029
     31       0.001036   0.000731   0.000014
     32       0.001653   0.000920  -0.000075
     33       0.000144   0.000037  -0.000487
     34      -0.001930  -0.008659  -0.000424
     35       0.002415   0.010774  -0.000464
     36      -0.000078   0.000017  -0.000042
     37      -0.000125   0.000004   0.000038
     38       0.000021  -0.000001   0.000010
     39      -0.000016   0.000433   0.030567
     40      -0.000057  -0.000391  -0.063343
     41       0.000023   0.000340  -0.018587
     42      -0.000081  -0.004906  -0.003010
     43       0.000142   0.006115   0.007189
     44       0.000528   0.009548   0.007309
     45      -0.000470   0.002168   0.000639
     46      -0.002700   0.005874   0.010036
     47      -0.000098  -0.000168   0.001966
     48       0.000756   0.000130   0.002144
     49      -0.000017  -0.000062  -0.000026
     50       0.003189  -0.004942   0.004862
     51      -0.000195   0.000502  -0.387255
     52       0.000167  -0.000591   0.874965
     53       0.000422  -0.000235   0.280918
     54      -0.000001  -0.000018   0.000025
     55      -0.000002   0.000013  -0.000001
     56       0.000008   0.000019  -0.000044
     57      -0.000000  -0.000005   0.000011
     58       0.000000   0.000002  -0.000006
     59       0.000000  -0.000001  -0.000002
     60       0.000900   0.000266  -0.000918
     61       0.000690   0.000196  -0.000228
     62      -0.000634  -0.000028  -0.000296
     63       0.000112  -0.000030   0.000231
     64       0.000798   0.000060  -0.000103
     65       0.000438   0.000151  -0.000090
     66      -0.003965   0.330033  -0.000384
     67       0.004436  -0.720748   0.000411
     68      -0.002850   0.602546   0.000312


-----------
IR SPECTRUM
-----------

 Mode   freq       eps      Int      T**2         TX        TY        TZ
       cm**-1   L/(mol*cm) km/mol    a.u.
----------------------------------------------------------------------------
  6:     39.05   0.000691    3.49  0.005523  ( 0.046751  0.054168 -0.020084)
  7:     46.34   0.000067    0.34  0.000454  ( 0.011958  0.015733 -0.007987)
  8:     54.26   0.000710    3.59  0.004081  ( 0.057772  0.027138  0.002549)
  9:     99.62   0.000452    2.29  0.001417  ( 0.015784  0.034042  0.002987)
 10:    137.37   0.001248    6.31  0.002836  ( 0.043705  0.028679  0.010148)
 11:    168.96   0.000032    0.16  0.000059  ( 0.000155 -0.000798  0.007665)
 12:    193.11   0.000062    0.31  0.000101  (-0.004996 -0.008341  0.002463)
 13:    217.58   0.000109    0.55  0.000156  (-0.008297  0.004580 -0.008140)
 14:    256.29   0.000484    2.45  0.000589  (-0.019685  0.005095 -0.013262)
 15:    339.35   0.000047    0.24  0.000044  ( 0.005540  0.001741 -0.003153)
 16:    373.97   0.000597    3.02  0.000498  ( 0.007036 -0.020553 -0.005142)
 17:    408.70   0.000325    1.64  0.000248  ( 0.010290 -0.010157  0.006247)
 18:    457.50   0.001028    5.20  0.000701  (-0.022486 -0.000866 -0.013961)
 19:    541.24   0.000485    2.45  0.000280  (-0.000098 -0.000314  0.016721)
 20:    597.81   0.001690    8.54  0.000882  (-0.027806 -0.004530 -0.009420)
 21:    611.29   0.016367   82.71  0.008355  ( 0.075290 -0.017898  0.048645)
 22:    657.75   0.000883    4.46  0.000419  (-0.010470 -0.010018 -0.014461)
 23:    769.59   0.006115   30.90  0.002480  (-0.045314  0.015220 -0.013949)
 24:    786.68   0.000708    3.58  0.000281  ( 0.014993 -0.007333  0.001515)
 25:    839.31   0.002811   14.21  0.001045  (-0.021932 -0.014747 -0.018624)
 26:    845.80   0.003491   17.64  0.001288  ( 0.033298 -0.012122 -0.005685)
 27:    879.65   0.000382    1.93  0.000136  ( 0.009581 -0.004483  0.004860)
 28:    901.79   0.000412    2.08  0.000143  (-0.010105  0.001693  0.006136)
 29:    932.38   0.000035    0.18  0.000012  (-0.001574  0.001326  0.002748)
 30:    976.54   0.000602    3.04  0.000192  ( 0.006376  0.007189  0.010008)
 31:    983.83   0.000491    2.48  0.000156  ( 0.010267  0.002916  0.006461)
 32:    993.94   0.001525    7.71  0.000479  ( 0.008166  0.000428 -0.020297)
 33:   1026.76   0.000937    4.73  0.000285  (-0.005842 -0.015470 -0.003363)
 34:   1036.73   0.001870    9.45  0.000563  ( 0.014954  0.017943 -0.004179)
 35:   1078.92   0.000516    2.61  0.000149  (-0.009999 -0.007017  0.000379)
 36:   1102.17   0.019384   97.96  0.005488  ( 0.073393  0.001557  0.009960)
 37:   1131.63   0.006369   32.19  0.001756  ( 0.020248  0.023323 -0.028327)
 38:   1170.29   0.000525    2.65  0.000140  ( 0.009740 -0.000539 -0.006699)
 39:   1194.24   0.000179    0.90  0.000047  ( 0.003427 -0.005441  0.002313)
 40:   1211.13   0.001083    5.47  0.000279  ( 0.014728  0.006712 -0.004119)
 41:   1219.28   0.002152   10.88  0.000551  (-0.013106  0.019320 -0.002414)
 42:   1251.07   0.001412    7.14  0.000352  (-0.017307  0.007255 -0.000328)
 43:   1283.15   0.001032    5.22  0.000251  ( 0.014253 -0.002292 -0.006529)
 44:   1319.09   0.003342   16.89  0.000791  (-0.011791 -0.010416 -0.023307)
 45:   1330.59   0.003459   17.48  0.000811  ( 0.015542 -0.010894  0.021237)
 46:   1353.67   0.009073   45.85  0.002092  (-0.041288 -0.016418  0.010834)
 47:   1385.87   0.000548    2.77  0.000123  ( 0.009972 -0.004385 -0.002181)
 48:   1401.88   0.000366    1.85  0.000082  (-0.000372 -0.008300  0.003535)
 49:   1416.78   0.005195   26.25  0.001144  ( 0.018273 -0.002913  0.028316)
 50:   1437.29   0.001752    8.85  0.000380  ( 0.015865  0.005500 -0.009919)
 51:   1449.25   0.001746    8.82  0.000376  (-0.006241 -0.013082 -0.012880)
 52:   1451.00   0.001685    8.51  0.000362  ( 0.012347 -0.014281  0.002431)
 53:   1459.00   0.002474   12.50  0.000529  (-0.003099 -0.015210  0.016979)
 54:   1493.41   0.000595    3.01  0.000124  (-0.010965  0.001916  0.000670)
 55:   1739.68   0.001699    8.59  0.000305  ( 0.015544  0.002726 -0.007470)
 56:   1844.72   0.031222  157.78  0.005282  ( 0.036632 -0.007700 -0.062293)
 57:   2965.33   0.017732   89.61  0.001866  ( 0.023481  0.024248 -0.026957)
 58:   2976.68   0.005182   26.19  0.000543  ( 0.000784 -0.008788 -0.021574)
 59:   2986.41   0.007651   38.66  0.000799  ( 0.003891  0.017346  0.021988)
 60:   3013.41   0.007002   35.38  0.000725  (-0.023939 -0.003006  0.011958)
 61:   3046.31   0.000329    1.66  0.000034  (-0.000224 -0.002859 -0.005043)
 62:   3051.40   0.002962   14.97  0.000303  (-0.002790  0.017174  0.000403)
 63:   3072.94   0.002908   14.70  0.000295  (-0.005139 -0.012010 -0.011167)
 64:   3111.29   0.001070    5.41  0.000107  (-0.009208  0.001336 -0.004559)
 65:   3115.16   0.002509   12.68  0.000251  (-0.006075  0.001099  0.014602)
 66:   3124.31   0.002534   12.81  0.000253  (-0.005174  0.011310 -0.009921)
 67:   3198.29   0.001212    6.13  0.000118  (-0.007646  0.005976 -0.004909)
 68:   3580.92   0.002030   10.26  0.000177  (-0.001206  0.012624  0.004010)

* The epsilon (eps) is given for a Dirac delta lineshape.
** The dipole moment derivative (T) already includes vibrational overlap.

The first frequency considered to be a vibration is 6
The total number of vibrations considered is 63


--------------------------
THERMOCHEMISTRY AT 298.15K
--------------------------

Temperature         ... 298.15 K
Pressure            ... 1.00 atm
Total Mass          ... 173.64 AMU

Throughout the following assumptions are being made:
  (1) The electronic state is orbitally nondegenerate
  (2) There are no thermally accessible electronically excited states
  (3) Hindered rotations indicated by low frequency modes are not
      treated as such but are treated as vibrations and this may
      cause some error
  (4) All equations used are the standard statistical mechanics
      equations for an ideal gas
  (5) All vibrations are strictly harmonic

freq.      39.05  E(vib)   ...       0.54 
freq.      46.34  E(vib)   ...       0.53 
freq.      54.26  E(vib)   ...       0.52 
freq.      99.62  E(vib)   ...       0.46 
freq.     137.37  E(vib)   ...       0.42 
freq.     168.96  E(vib)   ...       0.38 
freq.     193.11  E(vib)   ...       0.36 
freq.     217.58  E(vib)   ...       0.33 
freq.     256.29  E(vib)   ...       0.30 
freq.     339.35  E(vib)   ...       0.23 
freq.     373.97  E(vib)   ...       0.21 
freq.     408.70  E(vib)   ...       0.19 
freq.     457.50  E(vib)   ...       0.16 
freq.     541.24  E(vib)   ...       0.12 
freq.     597.81  E(vib)   ...       0.10 
freq.     611.29  E(vib)   ...       0.10 
freq.     657.75  E(vib)   ...       0.08 
freq.     769.59  E(vib)   ...       0.06 
freq.     786.68  E(vib)   ...       0.05 
freq.     839.31  E(vib)   ...       0.04 
freq.     845.80  E(vib)   ...       0.04 
freq.     879.65  E(vib)   ...       0.04 
freq.     901.79  E(vib)   ...       0.03 
freq.     932.38  E(vib)   ...       0.03 
freq.     976.54  E(vib)   ...       0.03 
freq.     983.83  E(vib)   ...       0.02 
freq.     993.94  E(vib)   ...       0.02 
freq.    1026.76  E(vib)   ...       0.02 
freq.    1036.73  E(vib)   ...       0.02 
freq.    1078.92  E(vib)   ...       0.02 
freq.    1102.17  E(vib)   ...       0.02 
freq.    1131.63  E(vib)   ...       0.01 
freq.    1170.29  E(vib)   ...       0.01 
freq.    1194.24  E(vib)   ...       0.01 
freq.    1211.13  E(vib)   ...       0.01 
freq.    1219.28  E(vib)   ...       0.01 
freq.    1251.07  E(vib)   ...       0.01 
freq.    1283.15  E(vib)   ...       0.01 
freq.    1319.09  E(vib)   ...       0.01 
freq.    1330.59  E(vib)   ...       0.01 
freq.    1353.67  E(vib)   ...       0.01 
freq.    1385.87  E(vib)   ...       0.00 
freq.    1401.88  E(vib)   ...       0.00 
freq.    1416.78  E(vib)   ...       0.00 
freq.    1437.29  E(vib)   ...       0.00 
freq.    1449.25  E(vib)   ...       0.00 
freq.    1451.00  E(vib)   ...       0.00 
freq.    1459.00  E(vib)   ...       0.00 
freq.    1493.41  E(vib)   ...       0.00 
freq.    1739.68  E(vib)   ...       0.00 
freq.    1844.72  E(vib)   ...       0.00 
freq.    2965.33  E(vib)   ...       0.00 
freq.    2976.68  E(vib)   ...       0.00 
freq.    2986.41  E(vib)   ...       0.00 
freq.    3013.41  E(vib)   ...       0.00 
freq.    3046.31  E(vib)   ...       0.00 
freq.    3051.40  E(vib)   ...       0.00 
freq.    3072.94  E(vib)   ...       0.00 
freq.    3111.29  E(vib)   ...       0.00 
freq.    3115.16  E(vib)   ...       0.00 
freq.    3124.31  E(vib)   ...       0.00 
freq.    3198.29  E(vib)   ...       0.00 
freq.    3580.92  E(vib)   ...       0.00 

------------
INNER ENERGY
------------

The inner energy is: U= E(el) + E(ZPE) + E(vib) + E(rot) + E(trans)
    E(el)   - is the total energy from the electronic structure calculation
              = E(kin-el) + E(nuc-el) + E(el-el) + E(nuc-nuc)
    E(ZPE)  - the the zero temperature vibrational energy from the frequency calculation
    E(vib)  - the the finite temperature correction to E(ZPE) due to population
              of excited vibrational states
    E(rot)  - is the rotational thermal energy
    E(trans)- is the translational thermal energy

Summary of contributions to the inner energy U:
Electronic energy                ...   -901.46498022 Eh
Zero point energy                ...      0.18940622 Eh     118.85 kcal/mol
Thermal vibrational correction   ...      0.00892715 Eh       5.60 kcal/mol
Thermal rotational correction    ...      0.00141627 Eh       0.89 kcal/mol
Thermal translational correction ...      0.00141627 Eh       0.89 kcal/mol
-----------------------------------------------------------------------
Total thermal energy                   -901.26381432 Eh


Summary of corrections to the electronic energy:
(perhaps to be used in another calculation)
Total thermal correction                  0.01175969 Eh       7.38 kcal/mol
Non-thermal (ZPE) correction              0.18940622 Eh     118.85 kcal/mol
-----------------------------------------------------------------------
Total correction                          0.20116591 Eh     126.23 kcal/mol


--------
ENTHALPY
--------

The enthalpy is H = U + kB*T
                kB is Boltzmann's constant
Total free energy                 ...   -901.26381432 Eh 
Thermal Enthalpy correction       ...      0.00094421 Eh       0.59 kcal/mol
-----------------------------------------------------------------------
Total Enthalpy                    ...   -901.26287011 Eh


Note: Only C1 symmetry has been detected, increase convergence thresholds 
      if your molecule has a higher symmetry. Symmetry factor of 1.0 is   
      used for the rotational entropy correction. 
 

Note: Rotational entropy computed according to Herzberg 
Infrared and Raman Spectra, Chapter V,1, Van Nostrand Reinhold, 1945 
Point Group:  C1, Symmetry Number:   1  
Rotational constants in cm-1:     0.078975     0.013377     0.012208 

Vibrational entropy computed according to the QRRHO of S. Grimme
Chem.Eur.J. 2012 18 9955


-------
ENTROPY
-------

The entropy contributions are T*S = T*(S(el)+S(vib)+S(rot)+S(trans))
     S(el)   - electronic entropy
     S(vib)  - vibrational entropy
     S(rot)  - rotational entropy
     S(trans)- translational entropy
The entropies will be listed as multiplied by the temperature to get
units of energy

Electronic entropy                ...      0.00000000 Eh      0.00 kcal/mol
Vibrational entropy               ...      0.01586908 Eh      9.96 kcal/mol
Rotational entropy                ...      0.01482586 Eh      9.30 kcal/mol
Translational entropy             ...      0.01965278 Eh     12.33 kcal/mol
-----------------------------------------------------------------------
Final entropy term                ...      0.05034772 Eh     31.59 kcal/mol

In case the symmetry of your molecule has not been determined correctly
or in case you have a reason to use a different symmetry number we print 
out the resulting rotational entropy values for sn=1,12 :
 --------------------------------------------------------
|  sn= 1 | S(rot)=       0.01482586 Eh      9.30 kcal/mol|
|  sn= 2 | S(rot)=       0.01417140 Eh      8.89 kcal/mol|
|  sn= 3 | S(rot)=       0.01378857 Eh      8.65 kcal/mol|
|  sn= 4 | S(rot)=       0.01351694 Eh      8.48 kcal/mol|
|  sn= 5 | S(rot)=       0.01330626 Eh      8.35 kcal/mol|
|  sn= 6 | S(rot)=       0.01313411 Eh      8.24 kcal/mol|
|  sn= 7 | S(rot)=       0.01298856 Eh      8.15 kcal/mol|
|  sn= 8 | S(rot)=       0.01286249 Eh      8.07 kcal/mol|
|  sn= 9 | S(rot)=       0.01275128 Eh      8.00 kcal/mol|
|  sn=10 | S(rot)=       0.01265180 Eh      7.94 kcal/mol|
|  sn=11 | S(rot)=       0.01256181 Eh      7.88 kcal/mol|
|  sn=12 | S(rot)=       0.01247965 Eh      7.83 kcal/mol|
 --------------------------------------------------------


-------------------
GIBBS FREE ENERGY
-------------------

The Gibbs free energy is G = H - T*S

Total enthalpy                    ...   -901.26287011 Eh 
Total entropy correction          ...     -0.05034772 Eh    -31.59 kcal/mol
-----------------------------------------------------------------------
Final Gibbs free energy         ...   -901.31321782 Eh

For completeness - the Gibbs free energy minus the electronic energy
G-E(el)                           ...      0.15176240 Eh     95.23 kcal/mol


Timings for individual modules:

Sum of individual times         ...    34207.793 sec (= 570.130 min)
GTO integral calculation        ...       18.670 sec (=   0.311 min)   0.1 %
SCF iterations                  ...     3392.743 sec (=  56.546 min)   9.9 %
SCF Gradient evaluation         ...     1021.252 sec (=  17.021 min)   3.0 %
Geometry relaxation             ...        8.828 sec (=   0.147 min)   0.0 %
Analytical frequency calculation...    29766.300 sec (= 496.105 min)  87.0 %
                             ****ORCA TERMINATED NORMALLY****
TOTAL RUN TIME: 0 days 9 hours 30 minutes 20 seconds 927 msec
