
                                 *****************
                                 * O   R   C   A *
                                 *****************

                                            #,                                       
                                            ###                                      
                                            ####                                     
                                            #####                                    
                                            ######                                   
                                           ########,                                 
                                     ,,################,,,,,                         
                               ,,#################################,,                 
                          ,,##########################################,,             
                       ,#########################################, ''#####,          
                    ,#############################################,,   '####,        
                  ,##################################################,,,,####,       
                ,###########''''           ''''###############################       
              ,#####''   ,,,,##########,,,,          '''####'''          '####       
            ,##' ,,,,###########################,,,                        '##       
           ' ,,###''''                  '''############,,,                           
         ,,##''                                '''############,,,,        ,,,,,,###''
      ,#''                                            '''#######################'''  
     '                                                          ''''####''''         
             ,#######,   #######,   ,#######,      ##                                
            ,#'     '#,  ##    ##  ,#'     '#,    #''#        ######   ,####,        
            ##       ##  ##   ,#'  ##            #'  '#       #        #'  '#        
            ##       ##  #######   ##           ,######,      #####,   #    #        
            '#,     ,#'  ##    ##  '#,     ,#' ,#      #,         ##   #,  ,#        
             '#######'   ##     ##  '#######'  #'      '#     #####' # '####'        



                  #######################################################
                  #                        -***-                        #
                  #          Department of theory and spectroscopy      #
                  #    Directorship and core code : Frank Neese         #
                  #        Max Planck Institute fuer Kohlenforschung    #
                  #                Kaiser Wilhelm Platz 1               #
                  #                 D-45470 Muelheim/Ruhr               #
                  #                      Germany                        #
                  #                                                     #
                  #                  All rights reserved                #
                  #                        -***-                        #
                  #######################################################



                         Program Version 5.0.4 -  RELEASE  -

 With contributions from (in alphabetic order):
   Daniel Aravena         : Magnetic Suceptibility
   Michael Atanasov       : Ab Initio Ligand Field Theory (pilot matlab implementation)
   Alexander A. Auer      : GIAO ZORA, VPT2 properties, NMR spectrum
   Ute Becker             : Parallelization
   Giovanni Bistoni       : ED, misc. LED, open-shell LED, HFLD
   Martin Brehm           : Molecular dynamics
   Dmytro Bykov           : SCF Hessian
   Vijay G. Chilkuri      : MRCI spin determinant printing, contributions to CSF-ICE
   Dipayan Datta          : RHF DLPNO-CCSD density
   Achintya Kumar Dutta   : EOM-CC, STEOM-CC
   Dmitry Ganyushin       : Spin-Orbit,Spin-Spin,Magnetic field MRCI
   Miquel Garcia          : C-PCM and meta-GGA Hessian, CC/C-PCM, Gaussian charge scheme
   Yang Guo               : DLPNO-NEVPT2, F12-NEVPT2, CIM, IAO-localization
   Andreas Hansen         : Spin unrestricted coupled pair/coupled cluster methods
   Benjamin Helmich-Paris : MC-RPA, TRAH-SCF, COSX integrals
   Lee Huntington         : MR-EOM, pCC
   Robert Izsak           : Overlap fitted RIJCOSX, COSX-SCS-MP3, EOM
   Marcus Kettner         : VPT2
   Christian Kollmar      : KDIIS, OOCD, Brueckner-CCSD(T), CCSD density, CASPT2, CASPT2-K
   Simone Kossmann        : Meta GGA functionals, TD-DFT gradient, OOMP2, MP2 Hessian
   Martin Krupicka        : Initial AUTO-CI
   Lucas Lang             : DCDCAS
   Marvin Lechner         : AUTO-CI (C++ implementation), FIC-MRCC
   Dagmar Lenk            : GEPOL surface, SMD
   Dimitrios Liakos       : Extrapolation schemes; Compound Job, initial MDCI parallelization
   Dimitrios Manganas     : Further ROCIS development; embedding schemes
   Dimitrios Pantazis     : SARC Basis sets
   Anastasios Papadopoulos: AUTO-CI, single reference methods and gradients
   Taras Petrenko         : DFT Hessian,TD-DFT gradient, ASA, ECA, R-Raman, ABS, FL, XAS/XES, NRVS
   Peter Pinski           : DLPNO-MP2, DLPNO-MP2 Gradient
   Christoph Reimann      : Effective Core Potentials
   Marius Retegan         : Local ZFS, SOC
   Christoph Riplinger    : Optimizer, TS searches, QM/MM, DLPNO-CCSD(T), (RO)-DLPNO pert. Triples
   Tobias Risthaus        : Range-separated hybrids, TD-DFT gradient, RPA, STAB
   Michael Roemelt        : Original ROCIS implementation
   Masaaki Saitow         : Open-shell DLPNO-CCSD energy and density
   Barbara Sandhoefer     : DKH picture change effects
   Avijit Sen             : IP-ROCIS
   Kantharuban Sivalingam : CASSCF convergence, NEVPT2, FIC-MRCI
   Bernardo de Souza      : ESD, SOC TD-DFT
   Georgi Stoychev        : AutoAux, RI-MP2 NMR, DLPNO-MP2 response
   Willem Van den Heuvel  : Paramagnetic NMR
   Boris Wezisla          : Elementary symmetry handling
   Frank Wennmohs         : Technical directorship


 We gratefully acknowledge several colleagues who have allowed us to
 interface, adapt or use parts of their codes:
   Stefan Grimme, W. Hujo, H. Kruse, P. Pracht,  : VdW corrections, initial TS optimization,
                  C. Bannwarth, S. Ehlert          DFT functionals, gCP, sTDA/sTD-DF
   Ed Valeev, F. Pavosevic, A. Kumar             : LibInt (2-el integral package), F12 methods
   Garnet Chan, S. Sharma, J. Yang, R. Olivares  : DMRG
   Ulf Ekstrom                                   : XCFun DFT Library
   Mihaly Kallay                                 : mrcc  (arbitrary order and MRCC methods)
   Jiri Pittner, Ondrej Demel                    : Mk-CCSD
   Frank Weinhold                                : gennbo (NPA and NBO analysis)
   Christopher J. Cramer and Donald G. Truhlar   : smd solvation model
   Lars Goerigk                                  : TD-DFT with DH, B97 family of functionals
   V. Asgeirsson, H. Jonsson                     : NEB implementation
   FAccTs GmbH                                   : IRC, NEB, NEB-TS, DLPNO-Multilevel, CI-OPT
                                                   MM, QMMM, 2- and 3-layer-ONIOM, Crystal-QMMM,
                                                   LR-CPCM, SF, NACMEs, symmetry and pop. for TD-DFT,
                                                   nearIR, NL-DFT gradient (VV10), updates on ESD,
                                                   ML-optimized integration grids
   S Lehtola, MJT Oliveira, MAL Marques          : LibXC Library
   Liviu Ungur et al                             : ANISO software


 Your calculation uses the libint2 library for the computation of 2-el integrals
 For citations please refer to: http://libint.valeyev.net

 Your ORCA version has been built with support for libXC version: 5.1.0
 For citations please refer to: https://tddft.org/programs/libxc/

 This ORCA versions uses:
   CBLAS   interface :  Fast vector & matrix operations
   LAPACKE interface :  Fast linear algebra routines
   Shared memory     :  Shared parallel matrices


Your calculation utilizes the atom-pairwise dispersion correction
based on tight binding partial charges (D4)
Cite in your paper:
E.Caldeweyher, C.Bannwarth, S.Grimme, J.Chem.Phys., (2017), 147, 034112.
E.Caldeweyher, S.Ehlert, A.Hansen, H.Neugebauer, S.Grimme, J.Chem.Phys., (2018), in progress.
   

================================================================================

----- Orbital basis set information -----
Your calculation utilizes the basis: def2-SVP
   F. Weigend and R. Ahlrichs, Phys. Chem. Chem. Phys. 7, 3297 (2005).

----- AuxJ basis set information -----
Your calculation utilizes the auxiliary basis: def2/J
   F. Weigend, Phys. Chem. Chem. Phys. 8, 1057 (2006).

================================================================================
                                        WARNINGS
                       Please study these warnings very carefully!
================================================================================


WARNING: Geometry Optimization
  ===> : Switching off AutoStart
         For restart on a previous wavefunction, please use MOREAD

INFO   : the flag for use of the SHARK integral package has been found!

================================================================================
                                       INPUT FILE
================================================================================
NAME = opt.inp
|  1> !B3LYP DEF2-SVP OPT FREQ D4 SOSCF
|  2> 
|  3> * xyz 0 1
|  4>    C       -6.35682        0.98193       -0.00001
|  5>    C       -7.69700        0.58208        0.00000
|  6>    C       -8.01948       -0.77773        0.00002
|  7>    C       -7.00378       -1.73773        0.00002
|  8>    C       -5.66455       -1.33817        0.00001
|  9>    C       -5.34015        0.02113       -0.00000
| 10>    C       -6.02300        2.37673       -0.00004
| 11>    H       -8.48865        1.32155       -0.00000
| 12>    H       -9.05666       -1.08731        0.00003
| 13>    H       -7.25441       -2.79087        0.00004
| 14>    H       -4.87798       -2.08176        0.00002
| 15>    H       -4.30007        0.32471       -0.00001
| 16>    N       -5.74664        3.49907       -0.00006
| 17> **                         ****END OF INPUT****
================================================================================

                       *****************************
                       * Geometry Optimization Run *
                       *****************************

Geometry optimization settings:
Update method            Update   .... BFGS
Choice of coordinates    CoordSys .... Z-matrix Internals
Initial Hessian          InHess   .... Almoef's Model

Convergence Tolerances:
Energy Change            TolE     ....  5.0000e-06 Eh
Max. Gradient            TolMAXG  ....  3.0000e-04 Eh/bohr
RMS Gradient             TolRMSG  ....  1.0000e-04 Eh/bohr
Max. Displacement        TolMAXD  ....  4.0000e-03 bohr
RMS Displacement         TolRMSD  ....  2.0000e-03 bohr
Strict Convergence                ....  False
------------------------------------------------------------------------------
                        ORCA OPTIMIZATION COORDINATE SETUP
------------------------------------------------------------------------------

The optimization will be done in new redundant internal coordinates
Making redundant internal coordinates   ...  (new redundants) done
Evaluating the initial hessian          ...  (Almloef) done
Evaluating the coordinates              ...  done
Calculating the B-matrix                .... done
Calculating the G-matrix                .... done
Diagonalizing the G-matrix              .... done
The first mode is                       ....   24
The number of degrees of freedom        ....   33

    -----------------------------------------------------------------
                    Redundant Internal Coordinates


    -----------------------------------------------------------------
         Definition                    Initial Value    Approx d2E/dq
    -----------------------------------------------------------------
      1. B(C   1,C   0)                  1.3986         0.605461   
      2. B(C   2,C   1)                  1.3975         0.607761   
      3. B(C   3,C   2)                  1.3976         0.607625   
      4. B(C   4,C   3)                  1.3976         0.607674   
      5. B(C   5,C   4)                  1.3975         0.607876   
      6. B(C   5,C   0)                  1.3988         0.604831   
      7. B(C   6,C   0)                  1.4342         0.531172   
      8. B(H   7,C   1)                  1.0833         0.369082   
      9. B(H   8,C   2)                  1.0824         0.370300   
     10. B(H   9,C   3)                  1.0826         0.370089   
     11. B(H  10,C   4)                  1.0824         0.370277   
     12. B(H  11,C   5)                  1.0835         0.368830   
     13. B(N  12,C   6)                  1.1559         1.322587   
     14. A(C   1,C   0,C   5)          120.0056         0.430299   
     15. A(C   1,C   0,C   6)          120.0723         0.420413   
     16. A(C   5,C   0,C   6)          119.9221         0.420335   
     17. A(C   0,C   1,C   2)          119.9540         0.430672   
     18. A(C   0,C   1,H   7)          120.3391         0.352963   
     19. A(C   2,C   1,H   7)          119.7069         0.353190   
     20. A(C   3,C   2,H   8)          119.9954         0.353374   
     21. A(C   1,C   2,H   8)          119.9607         0.353387   
     22. A(C   1,C   2,C   3)          120.0438         0.430948   
     23. A(C   4,C   3,H   9)          119.9989         0.353344   
     24. A(C   2,C   3,H   9)          119.9987         0.353339   
     25. A(C   2,C   3,C   4)          120.0024         0.430937   
     26. A(C   3,C   4,H  10)          119.9964         0.353375   
     27. A(C   3,C   4,C   5)          120.0352         0.430969   
     28. A(C   5,C   4,H  10)          119.9684         0.353395   
     29. A(C   0,C   5,C   4)          119.9589         0.430607   
     30. A(C   4,C   5,H  11)          119.6942         0.353160   
     31. A(C   0,C   5,H  11)          120.3468         0.352860   
     32. L(C   0,C   6,N  12,C   5, 2) 180.0004         0.481271   
     33. L(C   0,C   6,N  12,C   5, 1) 179.6265         0.481271   
     34. D(H   7,C   1,C   0,C   5)    179.9995         0.025296   
     35. D(H   7,C   1,C   0,C   6)     -0.0009         0.025296   
     36. D(C   2,C   1,C   0,C   6)    179.9996         0.025296   
     37. D(C   2,C   1,C   0,C   5)      0.0000         0.025296   
     38. D(H   8,C   2,C   1,C   0)    179.9999         0.025500   
     39. D(C   3,C   2,C   1,C   0)     -0.0005         0.025500   
     40. D(C   3,C   2,C   1,H   7)    180.0000         0.025500   
     41. D(H   8,C   2,C   1,H   7)      0.0003         0.025500   
     42. D(H   9,C   3,C   2,H   8)     -0.0006         0.025488   
     43. D(H   9,C   3,C   2,C   1)    179.9997         0.025488   
     44. D(C   4,C   3,C   2,H   8)   -179.9999         0.025488   
     45. D(C   4,C   3,C   2,C   1)      0.0005         0.025488   
     46. D(H  10,C   4,C   3,C   2)    179.9994         0.025492   
     47. D(C   5,C   4,C   3,H   9)   -179.9993         0.025492   
     48. D(C   5,C   4,C   3,C   2)      0.0000         0.025492   
     49. D(H  10,C   4,C   3,H   9)      0.0001         0.025492   
     50. D(H  11,C   5,C   4,H  10)      0.0007         0.025510   
     51. D(C   0,C   5,C   4,H  10)   -179.9999         0.025510   
     52. D(C   0,C   5,C   4,C   3)     -0.0005         0.025510   
     53. D(H  11,C   5,C   0,C   6)      0.0003         0.025241   
     54. D(H  11,C   5,C   0,C   1)    179.9999         0.025241   
     55. D(H  11,C   5,C   4,C   3)   -179.9999         0.025510   
     56. D(C   4,C   5,C   0,C   6)   -179.9991         0.025241   
     57. D(C   4,C   5,C   0,C   1)      0.0005         0.025241   
    -----------------------------------------------------------------

Number of atoms                         .... 13
Number of degrees of freedom            .... 57

         *************************************************************
         *                GEOMETRY OPTIMIZATION CYCLE   1            *
         *************************************************************
---------------------------------
CARTESIAN COORDINATES (ANGSTROEM)
---------------------------------
  C     -6.356820    0.981930   -0.000010
  C     -7.697000    0.582080    0.000000
  C     -8.019480   -0.777730    0.000020
  C     -7.003780   -1.737730    0.000020
  C     -5.664550   -1.338170    0.000010
  C     -5.340150    0.021130   -0.000000
  C     -6.023000    2.376730   -0.000040
  H     -8.488650    1.321550   -0.000000
  H     -9.056660   -1.087310    0.000030
  H     -7.254410   -2.790870    0.000040
  H     -4.877980   -2.081760    0.000020
  H     -4.300070    0.324710   -0.000010
  N     -5.746640    3.499070   -0.000060

----------------------------
CARTESIAN COORDINATES (A.U.)
----------------------------
  NO LB      ZA    FRAG     MASS         X           Y           Z
   0 C     6.0000    0    12.011  -12.012649    1.855579   -0.000019
   1 C     6.0000    0    12.011  -14.545222    1.099972    0.000000
   2 C     6.0000    0    12.011  -15.154621   -1.469697    0.000038
   3 C     6.0000    0    12.011  -13.235226   -3.283834    0.000038
   4 C     6.0000    0    12.011  -10.704448   -2.528775    0.000019
   5 C     6.0000    0    12.011  -10.091421    0.039930   -0.000000
   6 C     6.0000    0    12.011  -11.381821    4.491369   -0.000076
   7 H     1.0000    0     1.008  -16.041224    2.497368   -0.000000
   8 H     1.0000    0     1.008  -17.114607   -2.054718    0.000057
   9 H     1.0000    0     1.008  -13.708848   -5.273980    0.000076
  10 H     1.0000    0     1.008   -9.218046   -3.933956    0.000038
  11 H     1.0000    0     1.008   -8.125955    0.613613   -0.000019
  12 N     7.0000    0    14.007  -10.859576    6.612284   -0.000113

--------------------------------
INTERNAL COORDINATES (ANGSTROEM)
--------------------------------
 C      0   0   0     0.000000000000     0.00000000     0.00000000
 C      1   0   0     1.398557276267     0.00000000     0.00000000
 C      2   1   0     1.397525165033   119.95403562     0.00000000
 C      3   2   1     1.397585950845   120.04383783     0.00000000
 C      4   3   2     1.397564018784   120.00238435     0.00000000
 C      5   4   3     1.397473380820   120.03519752     0.00000000
 C      1   2   3     1.434190654446   120.07228730   179.99956258
 H      2   1   3     1.083293867517   120.33910422   179.99952949
 H      3   2   1     1.082396474911   119.96071605   179.99986198
 H      4   3   2     1.082552195924   119.99867237   179.99972496
 H      5   4   3     1.082413254307   119.99643182   179.99938886
 H      6   5   4     1.083479221259   119.69423857   180.00013844
 N      7   1   2     1.155864146689   179.62646364   179.96845708

---------------------------
INTERNAL COORDINATES (A.U.)
---------------------------
 C      0   0   0     0.000000000000     0.00000000     0.00000000
 C      1   0   0     2.642890234748     0.00000000     0.00000000
 C      2   1   0     2.640939827175   119.95403562     0.00000000
 C      3   2   1     2.641054695713   120.04383783     0.00000000
 C      4   3   2     2.641013250124   120.00238435     0.00000000
 C      5   4   3     2.640841969195   120.03519752     0.00000000
 C      1   2   3     2.710227560732   120.07228730   179.99956258
 H      2   1   3     2.047128732164   120.33910422   179.99952949
 H      3   2   1     2.045432905904   119.96071605   179.99986198
 H      4   3   2     2.045727175972   119.99867237   179.99972496
 H      5   4   3     2.045464614367   119.99643182   179.99938886
 H      6   5   4     2.047478999974   119.69423857   180.00013844
 N      7   1   2     2.184266685260   179.62646364   179.96845708

---------------------
BASIS SET INFORMATION
---------------------
There are 3 groups of distinct atoms

 Group   1 Type C   : 7s4p1d contracted to 3s2p1d pattern {511/31/1}
 Group   2 Type H   : 4s1p contracted to 2s1p pattern {31/1}
 Group   3 Type N   : 7s4p1d contracted to 3s2p1d pattern {511/31/1}

Atom   0C    basis set group =>   1
Atom   1C    basis set group =>   1
Atom   2C    basis set group =>   1
Atom   3C    basis set group =>   1
Atom   4C    basis set group =>   1
Atom   5C    basis set group =>   1
Atom   6C    basis set group =>   1
Atom   7H    basis set group =>   2
Atom   8H    basis set group =>   2
Atom   9H    basis set group =>   2
Atom  10H    basis set group =>   2
Atom  11H    basis set group =>   2
Atom  12N    basis set group =>   3
---------------------------------
AUXILIARY/J BASIS SET INFORMATION
---------------------------------
There are 3 groups of distinct atoms

 Group   1 Type C   : 12s5p4d2f1g contracted to 6s4p3d1f1g pattern {711111/2111/211/2/1}
 Group   2 Type H   : 5s2p1d contracted to 3s1p1d pattern {311/2/1}
 Group   3 Type N   : 12s5p4d2f1g contracted to 6s4p3d1f1g pattern {711111/2111/211/2/1}

Atom   0C    basis set group =>   1
Atom   1C    basis set group =>   1
Atom   2C    basis set group =>   1
Atom   3C    basis set group =>   1
Atom   4C    basis set group =>   1
Atom   5C    basis set group =>   1
Atom   6C    basis set group =>   1
Atom   7H    basis set group =>   2
Atom   8H    basis set group =>   2
Atom   9H    basis set group =>   2
Atom  10H    basis set group =>   2
Atom  11H    basis set group =>   2
Atom  12N    basis set group =>   3
------------------------------------------------------------------------------
                           ORCA GTO INTEGRAL CALCULATION
                           -- RI-GTO INTEGRALS CHOSEN --
------------------------------------------------------------------------------
------------------------------------------------------------------------------
                   ___                                                        
                  /   \      - P O W E R E D   B Y -                         
                 /     \                                                     
                 |  |  |   _    _      __       _____    __    __             
                 |  |  |  | |  | |    /  \     |  _  \  |  |  /  |          
                  \  \/   | |  | |   /    \    | | | |  |  | /  /          
                 / \  \   | |__| |  /  /\  \   | |_| |  |  |/  /          
                |  |  |   |  __  | /  /__\  \  |    /   |      \           
                |  |  |   | |  | | |   __   |  |    \   |  |\   \          
                \     /   | |  | | |  |  |  |  | |\  \  |  | \   \       
                 \___/    |_|  |_| |__|  |__|  |_| \__\ |__|  \__/        
                                                                              
                      - O R C A' S   B I G   F R I E N D -                    
                                      &                                       
                       - I N T E G R A L  F E E D E R -                       
                                                                              
 v1 FN, 2020, v2 2021                                                         
------------------------------------------------------------------------------


Reading SHARK input file opt.SHARKINP.tmp ... ok
----------------------
SHARK INTEGRAL PACKAGE
----------------------

Number of atoms                             ...     13
Number of basis functions                   ...    137
Number of shells                            ...     63
Maximum angular momentum                    ...      2
Integral batch strategy                     ... SHARK/LIBINT Hybrid
RI-J (if used) integral strategy            ... SPLIT-RIJ (Revised 2003 algorithm where possible)
Printlevel                                  ...      1
Contraction scheme used                     ... SEGMENTED contraction
Coulomb Range Separation                    ... NOT USED
Exchange Range Separation                   ... NOT USED
Finite Nucleus Model                        ... NOT USED
Auxiliary Coulomb fitting basis             ... AVAILABLE
   # of basis functions in Aux-J            ...    447
   # of shells in Aux-J                     ...    145
   Maximum angular momentum in Aux-J        ...      4
Auxiliary J/K fitting basis                 ... NOT available
Auxiliary Correlation fitting basis         ... NOT available
Auxiliary 'external' fitting basis          ... NOT available
Integral threshold                          ...     2.500000e-11
Primitive cut-off                           ...     2.500000e-12
Primitive pair pre-selection threshold      ...     2.500000e-12

Calculating pre-screening integrals         ... done (  0.0 sec) Dimension = 63
Organizing shell pair data                  ... done (  0.0 sec)
Shell pair information
Total number of shell pairs                 ...      2016
Shell pairs after pre-screening             ...      1912
Total number of primitive shell pairs       ...      7500
Primitive shell pairs kept                  ...      5316
          la=0 lb=0:    560 shell pairs
          la=1 lb=0:    684 shell pairs
          la=1 lb=1:    224 shell pairs
          la=2 lb=0:    251 shell pairs
          la=2 lb=1:    160 shell pairs
          la=2 lb=2:     33 shell pairs

Calculating one electron integrals          ... done (  0.0 sec)
Calculating RI/J V-Matrix + Cholesky decomp.... done (  0.0 sec)
Calculating Nuclear repulsion               ... done (  0.0 sec) ENN=    299.474498533079 Eh

SHARK setup successfully completed in   0.3 seconds

Maximum memory used throughout the entire GTOINT-calculation: 17.8 MB
-------------------------------------------------------------------------------
                                 ORCA SCF
-------------------------------------------------------------------------------

------------
SCF SETTINGS
------------
Hamiltonian:
 Density Functional     Method          .... DFT(GTOs)
 Exchange Functional    Exchange        .... B88
   X-Alpha parameter    XAlpha          ....  0.666667
   Becke's b parameter  XBeta           ....  0.004200
 Correlation Functional Correlation     .... LYP
 LDA part of GGA corr.  LDAOpt          .... VWN-5
 Gradients option       PostSCFGGA      .... off
 Hybrid DFT is turned on
   Fraction HF Exchange ScalHFX         ....  0.200000
   Scaling of DF-GGA-X  ScalDFX         ....  0.720000
   Scaling of DF-GGA-C  ScalDFC         ....  0.810000
   Scaling of DF-LDA-C  ScalLDAC        ....  1.000000
   Perturbative correction              ....  0.000000
   Density functional embedding theory  .... OFF
   NL short-range parameter             ....  4.800000
 RI-approximation to the Coulomb term is turned on
   Number of AuxJ basis functions       .... 447
   RIJ-COSX (HFX calculated with COS-X)).... on


General Settings:
 Integral files         IntName         .... opt
 Hartree-Fock type      HFTyp           .... RHF
 Total Charge           Charge          ....    0
 Multiplicity           Mult            ....    1
 Number of Electrons    NEL             ....   54
 Basis Dimension        Dim             ....  137
 Nuclear Repulsion      ENuc            ....    299.4744985331 Eh

Convergence Acceleration:
 DIIS                   CNVDIIS         .... on
   Start iteration      DIISMaxIt       ....    12
   Startup error        DIISStart       ....  0.200000
   # of expansion vecs  DIISMaxEq       ....     5
   Bias factor          DIISBfac        ....   1.050
   Max. coefficient     DIISMaxC        ....  10.000
 Trust-Rad. Augm. Hess. CNVTRAH         .... auto
   Auto Start mean grad. ratio tolernc. ....  1.125000
   Auto Start start iteration           ....    20
   Auto Start num. interpolation iter.  ....    10
   Max. Number of Micro iterations      ....    16
   Max. Number of Macro iterations      .... Maxiter - #DIIS iter
   Number of Davidson start vectors     ....     2
   Converg. threshold I  (grad. norm)   ....   1.000e-05
   Converg. threshold II (energy diff.) ....   1.000e-08
   Grad. Scal. Fac. for Micro threshold ....   0.100
   Minimum threshold for Micro iter.    ....   0.010
   NR start threshold (gradient norm)   ....   0.001
   Initial trust radius                 ....   0.400
   Minimum AH scaling param. (alpha)    ....   1.000
   Maximum AH scaling param. (alpha)    .... 1000.000
   Orbital update algorithm             .... Taylor
   White noise on init. David. guess    .... on
   Maximum white noise                  ....   0.010
   Quad. conv. algorithm                .... NR
 SOSCF                  CNVSOSCF        .... on
   Start iteration      SOSCFMaxIt      ....   150
   Startup grad/error   SOSCFStart      ....  0.003300
 Level Shifting         CNVShift        .... on
   Level shift para.    LevelShift      ....    0.2500
   Turn off err/grad.   ShiftErr        ....    0.0010
 Zerner damping         CNVZerner       .... off
 Static damping         CNVDamp         .... on
   Fraction old density DampFac         ....    0.7000
   Max. Damping (<1)    DampMax         ....    0.9800
   Min. Damping (>=0)   DampMin         ....    0.0000
   Turn off err/grad.   DampErr         ....    0.1000
 Fernandez-Rico         CNVRico         .... off

SCF Procedure:
 Maximum # iterations   MaxIter         ....   125
 SCF integral mode      SCFMode         .... Direct
   Integral package                     .... SHARK and LIBINT hybrid scheme
 Reset frequency        DirectResetFreq ....    20
 Integral Threshold     Thresh          ....  2.500e-11 Eh
 Primitive CutOff       TCut            ....  2.500e-12 Eh

Convergence Tolerance:
 Convergence Check Mode ConvCheckMode   .... Total+1el-Energy
 Convergence forced     ConvForced      .... 0
 Energy Change          TolE            ....  1.000e-08 Eh
 1-El. energy change                    ....  1.000e-05 Eh
 Orbital Gradient       TolG            ....  1.000e-05
 Orbital Rotation angle TolX            ....  1.000e-05
 DIIS Error             TolErr          ....  5.000e-07


Diagonalization of the overlap matrix:
Smallest eigenvalue                        ... 3.021e-04
Time for diagonalization                   ...    0.008 sec
Threshold for overlap eigenvalues          ... 1.000e-08
Number of eigenvalues below threshold      ... 0
Time for construction of square roots      ...    0.004 sec
Total time needed                          ...    0.012 sec

Time for model grid setup =    0.264 sec

------------------------------
INITIAL GUESS: MODEL POTENTIAL
------------------------------
Loading Hartree-Fock densities                     ... done
Calculating cut-offs                               ... done
Initializing the effective Hamiltonian             ... done
Setting up the integral package (SHARK)            ... done
Starting the Coulomb interaction                   ... done (   0.3 sec)
Reading the grid                                   ... done
Mapping shells                                     ... done
Starting the XC term evaluation                    ... done (   0.5 sec)
  promolecular density results
     # of electrons  =     53.999455983
     EX              =    -43.967064528
     EC              =     -1.805144537
     EX+EC           =    -45.772209065
Transforming the Hamiltonian                       ... done (   0.0 sec)
Diagonalizing the Hamiltonian                      ... done (   0.0 sec)
Back transforming the eigenvectors                 ... done (   0.0 sec)
Now organizing SCF variables                       ... done
                      ------------------
                      INITIAL GUESS DONE (   1.0 sec)
                      ------------------
-------------------
DFT GRID GENERATION
-------------------

General Integration Accuracy     IntAcc      ... 4.388
Radial Grid Type                 RadialGrid  ... OptM3 with GC (2021)
Angular Grid (max. ang.)         AngularGrid ... 4 (Lebedev-302)
Angular grid pruning method      GridPruning ... 4 (adaptive)
Weight generation scheme         WeightScheme... Becke
Basis function cutoff            BFCut       ... 1.0000e-11
Integration weight cutoff        WCut        ... 1.0000e-14
Angular grids for H and He will be reduced by one unit
Partially contracted basis set               ... off
Rotationally invariant grid construction     ... off

Total number of grid points                  ...    64384
Total number of batches                      ...     1011
Average number of points per batch           ...       63
Average number of grid points per atom       ...     4953
Time for grid setup =    1.997 sec

--------------------
COSX GRID GENERATION
--------------------

GRIDX 1
-------
General Integration Accuracy     IntAcc      ... 3.816
Radial Grid Type                 RadialGrid  ... OptM3 with GC (2021)
Angular Grid (max. ang.)         AngularGrid ... 1 (Lebedev-50)
Angular grid pruning method      GridPruning ... 4 (adaptive)
Weight generation scheme         WeightScheme... Becke
Basis function cutoff            BFCut       ... 1.0000e-11
Integration weight cutoff        WCut        ... 1.0000e-14
Angular grids for H and He will be reduced by one unit
Partially contracted basis set               ... on
Rotationally invariant grid construction     ... off

Total number of grid points                  ...     8212
Total number of batches                      ...      134
Average number of points per batch           ...       61
Average number of grid points per atom       ...      632
UseSFitting                                  ... on

GRIDX 2
-------
General Integration Accuracy     IntAcc      ... 4.020
Radial Grid Type                 RadialGrid  ... OptM3 with GC (2021)
Angular Grid (max. ang.)         AngularGrid ... 2 (Lebedev-110)
Angular grid pruning method      GridPruning ... 4 (adaptive)
Weight generation scheme         WeightScheme... Becke
Basis function cutoff            BFCut       ... 1.0000e-11
Integration weight cutoff        WCut        ... 1.0000e-14
Angular grids for H and He will be reduced by one unit
Partially contracted basis set               ... on
Rotationally invariant grid construction     ... off

Total number of grid points                  ...    18348
Total number of batches                      ...      292
Average number of points per batch           ...       62
Average number of grid points per atom       ...     1411
UseSFitting                                  ... on

GRIDX 3
-------
General Integration Accuracy     IntAcc      ... 4.338
Radial Grid Type                 RadialGrid  ... OptM3 with GC (2021)
Angular Grid (max. ang.)         AngularGrid ... 3 (Lebedev-194)
Angular grid pruning method      GridPruning ... 4 (adaptive)
Weight generation scheme         WeightScheme... Becke
Basis function cutoff            BFCut       ... 1.0000e-11
Integration weight cutoff        WCut        ... 1.0000e-14
Angular grids for H and He will be reduced by one unit
Partially contracted basis set               ... on
Rotationally invariant grid construction     ... off

Total number of grid points                  ...    40427
Total number of batches                      ...      636
Average number of points per batch           ...       63
Average number of grid points per atom       ...     3110
UseSFitting                                  ... on

Time for X-Grid setup             =    2.687 sec

--------------
SCF ITERATIONS
--------------
ITER       Energy         Delta-E        Max-DP      RMS-DP      [F,P]     Damp
               ***  Starting incremental Fock matrix formation  ***
  0   -323.8767504764   0.000000000000 0.08861820  0.00305530  0.2393700 0.7000
  1   -323.9613740659  -0.084623589518 0.04926941  0.00209685  0.0914914 0.7000
                               ***Turning on DIIS***
  2   -323.9923146908  -0.030940624916 0.07774139  0.00377610  0.0347453 0.0000
  3   -324.0469045007  -0.054589809847 0.03564390  0.00127538  0.0444931 0.0000
  4   -324.0551252913  -0.008220790651 0.01922109  0.00046488  0.0329737 0.0000
                      *** Initiating the SOSCF procedure ***
                           *** Shutting down DIIS ***
                      *** Re-Reading the Fockian *** 
                      *** Removing any level shift *** 
ITER      Energy       Delta-E        Grad      Rot      Max-DP    RMS-DP
  5   -324.05675124  -0.0016259502  0.001019  0.001019  0.002862  0.000139
               *** Restarting incremental Fock matrix formation ***
  6   -324.05688153  -0.0001302918  0.000691  0.001853  0.002485  0.000073
  7   -324.05686849   0.0000130433  0.001828  0.001410  0.001772  0.000040
  8   -324.05688551  -0.0000170172  0.000106  0.000343  0.000386  0.000017
  9   -324.05688517   0.0000003420  0.000153  0.000289  0.000262  0.000011
 10   -324.05688580  -0.0000006332  0.000029  0.000094  0.000114  0.000004
 11   -324.05688579   0.0000000097  0.000038  0.000053  0.000062  0.000002
                  ***Gradient check signals convergence***
              ***Rediagonalizing the Fockian in SOSCF/NRSCF***

               *****************************************************
               *                     SUCCESS                       *
               *           SCF CONVERGED AFTER  12 CYCLES          *
               *****************************************************

Old exchange energy                            =     -8.907381534 Eh
New exchange energy                            =     -8.907403347 Eh
Exchange energy change after final integration =     -0.000021813 Eh
Total energy after final integration           =   -324.056907627 Eh
Final COS-X integration done in                =    14.176 sec

----------------
TOTAL SCF ENERGY
----------------

Total Energy       :         -324.05690763 Eh           -8818.03676 eV

Components:
Nuclear Repulsion  :          299.47449853 Eh            8149.11540 eV
Electronic Energy  :         -623.53140616 Eh          -16967.15215 eV
One Electron Energy:        -1028.73764643 Eh          -27993.37452 eV
Two Electron Energy:          405.20624027 Eh           11026.22236 eV
Max COSX asymmetry :            0.00000308 Eh               0.00008 eV

Virial components:
Potential Energy   :         -644.87378172 Eh          -17547.90772 eV
Kinetic Energy     :          320.81687409 Eh            8729.87096 eV
Virial Ratio       :            2.01009932


DFT components:
N(Alpha)           :       27.000013910157 electrons
N(Beta)            :       27.000013910157 electrons
N(Total)           :       54.000027820314 electrons
E(X)               :      -35.392338793257 Eh       
E(C)               :       -2.136765813522 Eh       
E(XC)              :      -37.529104606779 Eh       
DFET-embed. en.    :        0.000000000000 Eh       

---------------
SCF CONVERGENCE
---------------

  Last Energy change         ...   -2.4996e-08  Tolerance :   1.0000e-08
  Last MAX-Density change    ...    4.8850e-15  Tolerance :   1.0000e-07
  Last RMS-Density change    ...    5.0758e-17  Tolerance :   5.0000e-09
  Last Orbital Gradient      ...    1.4850e-06  Tolerance :   1.0000e-05
  Last Orbital Rotation      ...    5.2043e-06  Tolerance :   1.0000e-05

             **** THE GBW FILE WAS UPDATED (opt.gbw) ****
             **** DENSITY opt.scfp WAS UPDATED ****
             **** ENERGY FILE WAS UPDATED (opt.en.tmp) ****
             **** THE GBW FILE WAS UPDATED (opt.gbw) ****
             **** DENSITY opt.scfp WAS UPDATED ****
----------------
ORBITAL ENERGIES
----------------

  NO   OCC          E(Eh)            E(eV) 
   0   2.0000     -14.324462      -389.7884 
   1   2.0000     -10.238268      -278.5974 
   2   2.0000     -10.224058      -278.2108 
   3   2.0000     -10.218311      -278.0544 
   4   2.0000     -10.218285      -278.0537 
   5   2.0000     -10.214101      -277.9398 
   6   2.0000     -10.212677      -277.9011 
   7   2.0000     -10.212635      -277.8999 
   8   2.0000      -0.900919       -24.5153 
   9   2.0000      -0.872550       -23.7433 
  10   2.0000      -0.780169       -21.2295 
  11   2.0000      -0.764173       -20.7942 
  12   2.0000      -0.650409       -17.6985 
  13   2.0000      -0.627934       -17.0869 
  14   2.0000      -0.566831       -15.4242 
  15   2.0000      -0.504995       -13.7416 
  16   2.0000      -0.484337       -13.1795 
  17   2.0000      -0.460959       -12.5433 
  18   2.0000      -0.446826       -12.1588 
  19   2.0000      -0.409840       -11.1523 
  20   2.0000      -0.385606       -10.4929 
  21   2.0000      -0.377220       -10.2647 
  22   2.0000      -0.355911        -9.6848 
  23   2.0000      -0.352545        -9.5932 
  24   2.0000      -0.335737        -9.1359 
  25   2.0000      -0.279973        -7.6185 
  26   2.0000      -0.272442        -7.4135 
  27   0.0000      -0.055816        -1.5188 
  28   0.0000      -0.032511        -0.8847 
  29   0.0000       0.037361         1.0166 
  30   0.0000       0.048016         1.3066 
  31   0.0000       0.073476         1.9994 
  32   0.0000       0.087251         2.3742 
  33   0.0000       0.094440         2.5698 
  34   0.0000       0.133116         3.6223 
  35   0.0000       0.137335         3.7371 
  36   0.0000       0.157297         4.2803 
  37   0.0000       0.179313         4.8794 
  38   0.0000       0.239729         6.5234 
  39   0.0000       0.267960         7.2916 
  40   0.0000       0.271068         7.3761 
  41   0.0000       0.280306         7.6275 
  42   0.0000       0.298594         8.1251 
  43   0.0000       0.359096         9.7715 
  44   0.0000       0.393622        10.7110 
  45   0.0000       0.407818        11.0973 
  46   0.0000       0.414844        11.2885 
  47   0.0000       0.436370        11.8742 
  48   0.0000       0.441687        12.0189 
  49   0.0000       0.459947        12.5158 
  50   0.0000       0.474209        12.9039 
  51   0.0000       0.484472        13.1831 
  52   0.0000       0.516957        14.0671 
  53   0.0000       0.557920        15.1818 
  54   0.0000       0.567955        15.4548 
  55   0.0000       0.574212        15.6251 
  56   0.0000       0.579635        15.7727 
  57   0.0000       0.619617        16.8606 
  58   0.0000       0.632376        17.2078 
  59   0.0000       0.638533        17.3754 
  60   0.0000       0.641108        17.4454 
  61   0.0000       0.655492        17.8368 
  62   0.0000       0.665164        18.1000 
  63   0.0000       0.678521        18.4635 
  64   0.0000       0.681612        18.5476 
  65   0.0000       0.694718        18.9042 
  66   0.0000       0.710285        19.3278 
  67   0.0000       0.733487        19.9592 
  68   0.0000       0.741598        20.1799 
  69   0.0000       0.810393        22.0519 
  70   0.0000       0.821830        22.3631 
  71   0.0000       0.869462        23.6593 
  72   0.0000       0.890510        24.2320 
  73   0.0000       0.910999        24.7896 
  74   0.0000       0.928925        25.2773 
  75   0.0000       1.016887        27.6709 
  76   0.0000       1.064028        28.9537 
  77   0.0000       1.065821        29.0025 
  78   0.0000       1.133146        30.8345 
  79   0.0000       1.170800        31.8591 
  80   0.0000       1.216834        33.1117 
  81   0.0000       1.223674        33.2979 
  82   0.0000       1.251995        34.0685 
  83   0.0000       1.257588        34.2207 
  84   0.0000       1.259920        34.2842 
  85   0.0000       1.277530        34.7634 
  86   0.0000       1.339389        36.4466 
  87   0.0000       1.493635        40.6439 
  88   0.0000       1.579711        42.9861 
  89   0.0000       1.616409        43.9847 
  90   0.0000       1.636763        44.5386 
  91   0.0000       1.649886        44.8957 
  92   0.0000       1.700210        46.2651 
  93   0.0000       1.722262        46.8651 
  94   0.0000       1.734504        47.1983 
  95   0.0000       1.740579        47.3636 
  96   0.0000       1.746067        47.5129 
  97   0.0000       1.753804        47.7234 
  98   0.0000       1.773416        48.2571 
  99   0.0000       1.793333        48.7991 
 100   0.0000       1.817776        49.4642 
 101   0.0000       1.892210        51.4897 
 102   0.0000       1.920648        52.2635 
 103   0.0000       1.935378        52.6643 
 104   0.0000       1.964403        53.4541 
 105   0.0000       1.965376        53.4806 
 106   0.0000       1.973102        53.6908 
 107   0.0000       2.027485        55.1707 
 108   0.0000       2.070203        56.3331 
 109   0.0000       2.116093        57.5818 
 110   0.0000       2.124494        57.8104 
 111   0.0000       2.203901        59.9712 
 112   0.0000       2.238898        60.9235 
 113   0.0000       2.271688        61.8158 
 114   0.0000       2.283454        62.1359 
 115   0.0000       2.291684        62.3599 
 116   0.0000       2.292501        62.3821 
 117   0.0000       2.305921        62.7473 
 118   0.0000       2.326450        63.3059 
 119   0.0000       2.333791        63.5057 
 120   0.0000       2.511606        68.3443 
 121   0.0000       2.583485        70.3002 
 122   0.0000       2.586609        70.3852 
 123   0.0000       2.623954        71.4014 
 124   0.0000       2.693800        73.3020 
 125   0.0000       2.716407        73.9172 
 126   0.0000       2.720604        74.0314 
 127   0.0000       2.837466        77.2114 
 128   0.0000       2.857657        77.7608 
 129   0.0000       2.896356        78.8139 
 130   0.0000       3.013093        81.9904 
 131   0.0000       3.018604        82.1404 
 132   0.0000       3.072866        83.6169 
 133   0.0000       3.130340        85.1809 
 134   0.0000       3.312287        90.1319 
 135   0.0000       3.442938        93.6871 
 136   0.0000       3.676459       100.0415 

                    ********************************
                    * MULLIKEN POPULATION ANALYSIS *
                    ********************************

-----------------------
MULLIKEN ATOMIC CHARGES
-----------------------
   0 C :   -0.085643
   1 C :    0.046996
   2 C :    0.026493
   3 C :    0.037186
   4 C :    0.025028
   5 C :    0.047794
   6 C :   -0.118777
   7 H :   -0.008279
   8 H :   -0.008004
   9 H :   -0.007343
  10 H :   -0.007519
  11 H :   -0.008303
  12 N :    0.060371
Sum of atomic charges:   -0.0000000

--------------------------------
MULLIKEN REDUCED ORBITAL CHARGES
--------------------------------
  0 C s       :     3.044826  s :     3.044826
      pz      :     1.043540  p :     2.996571
      px      :     0.974822
      py      :     0.978209
      dz2     :     0.003285  d :     0.044246
      dxz     :     0.006841
      dyz     :     0.005147
      dx2y2   :     0.015361
      dxy     :     0.013613
  1 C s       :     3.212780  s :     3.212780
      pz      :     0.960378  p :     2.705553
      px      :     0.879655
      py      :     0.865520
      dz2     :     0.002611  d :     0.034671
      dxz     :     0.004400
      dyz     :     0.004557
      dx2y2   :     0.010663
      dxy     :     0.012439
  2 C s       :     3.160292  s :     3.160292
      pz      :     0.977819  p :     2.778543
      px      :     0.854027
      py      :     0.946697
      dz2     :     0.002502  d :     0.034672
      dxz     :     0.002684
      dyz     :     0.005727
      dx2y2   :     0.012423
      dxy     :     0.011337
  3 C s       :     3.159801  s :     3.159801
      pz      :     0.959829  p :     2.767944
      px      :     0.957275
      py      :     0.850840
      dz2     :     0.002494  d :     0.035070
      dxz     :     0.006018
      dyz     :     0.002590
      dx2y2   :     0.012739
      dxy     :     0.011229
  4 C s       :     3.160603  s :     3.160603
      pz      :     0.977834  p :     2.779686
      px      :     0.899397
      py      :     0.902454
      dz2     :     0.002503  d :     0.034684
      dxz     :     0.004091
      dyz     :     0.004322
      dx2y2   :     0.010743
      dxy     :     0.013025
  5 C s       :     3.212891  s :     3.212891
      pz      :     0.960221  p :     2.704654
      px      :     0.819665
      py      :     0.924769
      dz2     :     0.002611  d :     0.034661
      dxz     :     0.002741
      dyz     :     0.006213
      dx2y2   :     0.011306
      dxy     :     0.011790
  6 C s       :     3.111342  s :     3.111342
      pz      :     0.959918  p :     2.962023
      px      :     0.969711
      py      :     1.032395
      dz2     :     0.003391  d :     0.045412
      dxz     :     0.001028
      dyz     :     0.016316
      dx2y2   :     0.010783
      dxy     :     0.013895
  7 H s       :     0.985038  s :     0.985038
      pz      :     0.004625  p :     0.023240
      px      :     0.009663
      py      :     0.008951
  8 H s       :     0.984757  s :     0.984757
      pz      :     0.004675  p :     0.023247
      px      :     0.014230
      py      :     0.004341
  9 H s       :     0.984201  s :     0.984201
      pz      :     0.004578  p :     0.023142
      px      :     0.004020
      py      :     0.014544
 10 H s       :     0.984280  s :     0.984280
      pz      :     0.004675  p :     0.023239
      px      :     0.009626
      py      :     0.008938
 11 H s       :     0.985072  s :     0.985072
      pz      :     0.004621  p :     0.023231
      px      :     0.014344
      py      :     0.004266
 12 N s       :     3.535008  s :     3.535008
      pz      :     1.054680  p :     3.372511
      px      :     1.047604
      py      :     1.270226
      dz2     :     0.003010  d :     0.032109
      dxz     :     0.000568
      dyz     :     0.009366
      dx2y2   :     0.009245
      dxy     :     0.009920


                     *******************************
                     * LOEWDIN POPULATION ANALYSIS *
                     *******************************

----------------------
LOEWDIN ATOMIC CHARGES
----------------------
   0 C :   -0.065549
   1 C :    0.010261
   2 C :   -0.014261
   3 C :   -0.004387
   4 C :   -0.014413
   5 C :    0.010539
   6 C :   -0.025893
   7 H :    0.036723
   8 H :    0.031609
   9 H :    0.030614
  10 H :    0.031679
  11 H :    0.036811
  12 N :   -0.063733

-------------------------------
LOEWDIN REDUCED ORBITAL CHARGES
-------------------------------
  0 C s       :     2.839392  s :     2.839392
      pz      :     1.008306  p :     3.110463
      px      :     1.083412
      py      :     1.018745
      dz2     :     0.008191  d :     0.115694
      dxz     :     0.014174
      dyz     :     0.010780
      dx2y2   :     0.043959
      dxy     :     0.038590
  1 C s       :     2.858913  s :     2.858913
      pz      :     0.948798  p :     3.041021
      px      :     1.037223
      py      :     1.054999
      dz2     :     0.006289  d :     0.089806
      dxz     :     0.008896
      dyz     :     0.009071
      dx2y2   :     0.030561
      dxy     :     0.034988
  2 C s       :     2.859683  s :     2.859683
      pz      :     0.959595  p :     3.064795
      px      :     1.043784
      py      :     1.061416
      dz2     :     0.006190  d :     0.089783
      dxz     :     0.004693
      dyz     :     0.012165
      dx2y2   :     0.034633
      dxy     :     0.032101
  3 C s       :     2.861634  s :     2.861634
      pz      :     0.942328  p :     3.052396
      px      :     1.066269
      py      :     1.043799
      dz2     :     0.006166  d :     0.090357
      dxz     :     0.012749
      dyz     :     0.004477
      dx2y2   :     0.035131
      dxy     :     0.031833
  4 C s       :     2.859690  s :     2.859690
      pz      :     0.959588  p :     3.064934
      px      :     1.053490
      py      :     1.051857
      dz2     :     0.006191  d :     0.089789
      dxz     :     0.008132
      dyz     :     0.008729
      dx2y2   :     0.030871
      dxy     :     0.035867
  5 C s       :     2.859013  s :     2.859013
      pz      :     0.948688  p :     3.040671
      px      :     1.038202
      py      :     1.053781
      dz2     :     0.006288  d :     0.089777
      dxz     :     0.004943
      dyz     :     0.013014
      dx2y2   :     0.032385
      dxy     :     0.033148
  6 C s       :     2.907503  s :     2.907503
      pz      :     0.936947  p :     3.009571
      px      :     0.931301
      py      :     1.141323
      dz2     :     0.010327  d :     0.108819
      dxz     :     0.002060
      dyz     :     0.033589
      dx2y2   :     0.030998
      dxy     :     0.031846
  7 H s       :     0.894223  s :     0.894223
      pz      :     0.014112  p :     0.069054
      px      :     0.028659
      py      :     0.026283
  8 H s       :     0.899882  s :     0.899882
      pz      :     0.014295  p :     0.068509
      px      :     0.040409
      py      :     0.013805
  9 H s       :     0.900950  s :     0.900950
      pz      :     0.013977  p :     0.068436
      px      :     0.013092
      py      :     0.041366
 10 H s       :     0.899813  s :     0.899813
      pz      :     0.014293  p :     0.068509
      px      :     0.028059
      py      :     0.026156
 11 H s       :     0.894162  s :     0.894162
      pz      :     0.014098  p :     0.069027
      px      :     0.041508
      py      :     0.013421
 12 N s       :     3.423089  s :     3.423089
      pz      :     1.063564  p :     3.586618
      px      :     1.071118
      py      :     1.451937
      dz2     :     0.006464  d :     0.054025
      dxz     :     0.000797
      dyz     :     0.013143
      dx2y2   :     0.018248
      dxy     :     0.015373


                      *****************************
                      * MAYER POPULATION ANALYSIS *
                      *****************************

  NA   - Mulliken gross atomic population
  ZA   - Total nuclear charge
  QA   - Mulliken gross atomic charge
  VA   - Mayer's total valence
  BVA  - Mayer's bonded valence
  FA   - Mayer's free valence

  ATOM       NA         ZA         QA         VA         BVA        FA
  0 C      6.0856     6.0000    -0.0856     3.9396     3.9396     0.0000
  1 C      5.9530     6.0000     0.0470     3.8665     3.8665     0.0000
  2 C      5.9735     6.0000     0.0265     3.8479     3.8479     0.0000
  3 C      5.9628     6.0000     0.0372     3.8389     3.8389    -0.0000
  4 C      5.9750     6.0000     0.0250     3.8481     3.8481    -0.0000
  5 C      5.9522     6.0000     0.0478     3.8673     3.8673    -0.0000
  6 C      6.1188     6.0000    -0.1188     4.0506     4.0506    -0.0000
  7 H      1.0083     1.0000    -0.0083     0.9863     0.9863     0.0000
  8 H      1.0080     1.0000    -0.0080     0.9790     0.9790    -0.0000
  9 H      1.0073     1.0000    -0.0073     0.9786     0.9786     0.0000
 10 H      1.0075     1.0000    -0.0075     0.9790     0.9790    -0.0000
 11 H      1.0083     1.0000    -0.0083     0.9863     0.9863    -0.0000
 12 N      6.9396     7.0000     0.0604     3.1430     3.1430    -0.0000

  Mayer bond orders larger than 0.100000
B(  0-C ,  1-C ) :   1.3747 B(  0-C ,  5-C ) :   1.3756 B(  0-C ,  6-C ) :   1.0655 
B(  1-C ,  2-C ) :   1.3807 B(  1-C ,  7-H ) :   0.9911 B(  2-C ,  3-C ) :   1.3800 
B(  2-C ,  8-H ) :   0.9856 B(  3-C ,  4-C ) :   1.3798 B(  3-C ,  9-H ) :   0.9883 
B(  4-C ,  5-C ) :   1.3811 B(  4-C , 10-H ) :   0.9855 B(  5-C , 11-H ) :   0.9912 
B(  6-C , 12-N ) :   3.0183 

-------
TIMINGS
-------

Total SCF time: 0 days 0 hours 2 min 13 sec 

Total time                  ....     133.261 sec
Sum of individual times     ....     132.660 sec  ( 99.5%)

Fock matrix formation       ....     126.550 sec  ( 95.0%)
  Split-RI-J                ....      10.045 sec  (  7.9% of F)
  Chain of spheres X        ....      94.868 sec  ( 75.0% of F)
  XC integration            ....      21.343 sec  ( 16.9% of F)
    Basis function eval.    ....       7.873 sec  ( 36.9% of XC)
    Density eval.           ....       5.511 sec  ( 25.8% of XC)
    XC-Functional eval.     ....       1.962 sec  (  9.2% of XC)
    XC-Potential eval.      ....       4.784 sec  ( 22.4% of XC)
Diagonalization             ....       0.078 sec  (  0.1%)
Density matrix formation    ....       0.005 sec  (  0.0%)
Population analysis         ....       0.064 sec  (  0.0%)
Initial guess               ....       0.783 sec  (  0.6%)
Orbital Transformation      ....       0.000 sec  (  0.0%)
Orbital Orthonormalization  ....       0.000 sec  (  0.0%)
DIIS solution               ....       0.172 sec  (  0.1%)
SOSCF solution              ....       0.060 sec  (  0.0%)
Grid generation             ....       4.948 sec  (  3.7%)

Maximum memory used throughout the entire SCF-calculation: 64.1 MB


-------------------------------------------------------------------------------
                          DFT DISPERSION CORRECTION                            
                                                                               
                                 DFTD4 V2.5                                    
-------------------------------------------------------------------------------
The B3LYP functional is recognized
Active option DFTDOPT                   ...         5   

Starting D4
-------------------------   ----------------
Dispersion correction           -0.021341204
-------------------------   ----------------


-------------------------   --------------------
FINAL SINGLE POINT ENERGY      -324.078248831414
-------------------------   --------------------

------------------------------------------------------------------------------
                         ORCA SCF GRADIENT CALCULATION
------------------------------------------------------------------------------

 ... reading COSX grid (gridx3)
Gradient of the Kohn-Sham DFT energy:
Kohn-Sham wavefunction type      ... RKS
Hartree-Fock exchange scaling    ...    0.200
Number of operators              ...    1
Number of atoms                  ...   13
Basis set dimensions             ...  137
Integral neglect threshold       ... 2.5e-11
Integral primitive cutoff        ... 2.5e-12
SHARK Integral package           ... ON

Nuc. rep. gradient       (SHARK) ... done (  0.0 sec)
HCore & Overlap gradient (SHARK) ... done (  0.4 sec)
RI-J gradient            (SHARK) ... done (  3.0 sec)
COSX-gradient                    ... done ( 34.7 sec)
Exchange-correlation gradient    ... done
Dispersion correction            ... Starting D4


------------------- 
Dispersion Gradient 
------------------- 
   1  :    0.000058725    0.000248884   -0.000000002
   2  :   -0.000439918    0.000055143    0.000000003
   3  :   -0.000473999   -0.000253084    0.000000006
   4  :   -0.000114195   -0.000479729    0.000000006
   5  :    0.000308941   -0.000440053    0.000000004
   6  :    0.000416177   -0.000149382    0.000000002
   7  :    0.000152081    0.000637093   -0.000000011
   8  :   -0.000194752    0.000083863    0.000000001
   9  :   -0.000177018   -0.000060801    0.000000002
  10  :   -0.000041354   -0.000173797    0.000000002
  11  :    0.000130656   -0.000134093    0.000000001
  12  :    0.000211472   -0.000013241   -0.000000000
  13  :    0.000163184    0.000679196   -0.000000013

  |G| =    0.001545082

done

------------------
CARTESIAN GRADIENT
------------------

   1   C   :   -0.001201478   -0.004861217    0.000000716
   2   C   :    0.005383246    0.009153623   -0.000000866
   3   C   :   -0.007694656   -0.003883408    0.000000860
   4   C   :   -0.001440503   -0.006276416   -0.000000869
   5   C   :    0.005164042   -0.006958087   -0.000000895
   6   C   :   -0.000752727    0.010559406    0.000001016
   7   C   :    0.002063384    0.009683386   -0.000001016
   8   H   :    0.003313005   -0.005177359    0.000000341
   9   H   :    0.006896051    0.001471455   -0.000000181
  10   H   :    0.001698555    0.007054149    0.000000331
  11   H   :   -0.005535247    0.004398474    0.000000258
  12   H   :   -0.005111860   -0.003121602   -0.000000148
  13   N   :   -0.002709866   -0.012010468    0.000000434

Difference to translation invariance:
           :    0.0000719468    0.0000319351   -0.0000000189

Difference to rotation invariance:
           :   -0.0000001068   -0.0000002197   -0.0004790622

Norm of the cartesian gradient     ...    0.0302717567
RMS gradient                       ...    0.0048473605
MAX gradient                       ...    0.0120104682

-------
TIMINGS
-------

Total SCF gradient time            ...       53.616 sec

One electron gradient       ....       0.398 sec  (  0.7%)
RI-J Coulomb gradient       ....       3.008 sec  (  5.6%)
COSX gradient               ....      34.654 sec  ( 64.6%)
XC gradient                 ....      13.642 sec  ( 25.4%)

Maximum memory used throughout the entire SCFGRAD-calculation: 51.1 MB
------------------------------------------------------------------------------
                         ORCA GEOMETRY RELAXATION STEP
------------------------------------------------------------------------------

Reading the OPT-File                    .... done
Getting information on internals        .... done
Copying old internal coords+grads       .... done
Making the new internal coordinates     .... (new redundants).... done
Validating the new internal coordinates .... (new redundants).... done
Calculating the B-matrix                .... done
Calculating the G,G- and P matrices     .... done
Transforming gradient to internals      .... done
Projecting the internal gradient        .... done
Number of atoms                         ....  13
Number of internal coordinates          ....  57
Current Energy                          ....  -324.078248831 Eh
Current gradient norm                   ....     0.030271757 Eh/bohr
Maximum allowed component of the step   ....  0.300
Current trust radius                    ....  0.300
Evaluating the initial hessian          ....  (Almloef) done
Projecting the Hessian                  .... done
Forming the augmented Hessian           .... done
Diagonalizing the augmented Hessian     .... done
Last element of RFO vector              ....  0.998938535
Lowest eigenvalues of augmented Hessian:
 -0.000943843  0.025267728  0.025315280  0.025371677  0.025399973
Length of the computed step             ....  0.046111975
The final length of the internal step   ....  0.046111975
Converting the step to cartesian space:
 Initial RMS(Int)=    0.0061076802
Transforming coordinates:
 Iter   0:  RMS(Cart)=    0.0085956683 RMS(Int)=    1.8609273828
 Iter   1:  RMS(Cart)=    0.0000106590 RMS(Int)=    0.0000067407
 Iter   2:  RMS(Cart)=    0.0000000844 RMS(Int)=    0.0000000522
done
Storing new coordinates                 .... done

                                .--------------------.
          ----------------------|Geometry convergence|-------------------------
          Item                value                   Tolerance       Converged
          ---------------------------------------------------------------------
          RMS gradient        0.0029698569            0.0001000000      NO
          MAX gradient        0.0123137564            0.0003000000      NO
          RMS step            0.0061076802            0.0020000000      NO
          MAX step            0.0195456430            0.0040000000      NO
          ........................................................
          Max(Bonds)      0.0103      Max(Angles)    0.32
          Max(Dihed)        0.00      Max(Improp)    0.00
          ---------------------------------------------------------------------

The optimization has not yet converged - more geometry cycles are needed


    ---------------------------------------------------------------------------
                         Redundant Internal Coordinates
                            (Angstroem and degrees)

        Definition                    Value    dE/dq     Step     New-Value
    ----------------------------------------------------------------------------
     1. B(C   1,C   0)                1.3986 -0.006842  0.0061    1.4047   
     2. B(C   2,C   1)                1.3975  0.002161 -0.0019    1.3956   
     3. B(C   3,C   2)                1.3976 -0.001527  0.0012    1.3988   
     4. B(C   4,C   3)                1.3976 -0.001609  0.0013    1.3988   
     5. B(C   5,C   4)                1.3975  0.002150 -0.0019    1.3956   
     6. B(C   5,C   0)                1.3988 -0.006715  0.0060    1.4048   
     7. B(C   6,C   0)                1.4342 -0.002421  0.0024    1.4366   
     8. B(H   7,C   1)                1.0833 -0.005953  0.0085    1.0918   
     9. B(H   8,C   2)                1.0824 -0.007023  0.0100    1.0924   
    10. B(H   9,C   3)                1.0826 -0.007252  0.0103    1.0929   
    11. B(H  10,C   4)                1.0824 -0.007046  0.0100    1.0925   
    12. B(H  11,C   5)                1.0835 -0.005788  0.0083    1.0918   
    13. B(N  12,C   6)                1.1559 -0.012314  0.0049    1.1608   
    14. A(C   1,C   0,C   5)          120.01  0.000596   -0.04    119.97   
    15. A(C   1,C   0,C   6)          120.07 -0.000181    0.00    120.07   
    16. A(C   5,C   0,C   6)          119.92 -0.000416    0.03    119.96   
    17. A(C   0,C   1,C   2)          119.95  0.000974   -0.11    119.84   
    18. A(C   0,C   1,H   7)          120.34  0.001078   -0.20    120.14   
    19. A(C   2,C   1,H   7)          119.71 -0.002052    0.31    120.02   
    20. A(C   3,C   2,H   8)          120.00 -0.000219    0.05    120.05   
    21. A(C   1,C   2,H   8)          119.96  0.000937   -0.13    119.83   
    22. A(C   1,C   2,C   3)          120.04 -0.000718    0.08    120.12   
    23. A(C   4,C   3,H   9)          120.00  0.000535   -0.05    119.95   
    24. A(C   2,C   3,H   9)          120.00  0.000568   -0.06    119.94   
    25. A(C   2,C   3,C   4)          120.00 -0.001103    0.11    120.11   
    26. A(C   3,C   4,H  10)          120.00 -0.000250    0.06    120.06   
    27. A(C   3,C   4,C   5)          120.04 -0.000747    0.08    120.12   
    28. A(C   5,C   4,H  10)          119.97  0.000998   -0.14    119.83   
    29. A(C   0,C   5,C   4)          119.96  0.000999   -0.12    119.84   
    30. A(C   4,C   5,H  11)          119.69 -0.002100    0.32    120.01   
    31. A(C   0,C   5,H  11)          120.35  0.001101   -0.20    120.15   
    32. L(C   0,C   6,N  12,C   5, 2) 180.00  0.000000   -0.00    180.00   
    33. L(C   0,C   6,N  12,C   5, 1) 179.63 -0.000509    0.06    179.69   
    34. D(H   7,C   1,C   0,C   5)    180.00 -0.000000    0.00    180.00   
    35. D(H   7,C   1,C   0,C   6)     -0.00 -0.000000    0.00     -0.00   
    36. D(C   2,C   1,C   0,C   6)    180.00 -0.000000    0.00    180.00   
    37. D(C   2,C   1,C   0,C   5)      0.00  0.000000   -0.00     -0.00   
    38. D(H   8,C   2,C   1,C   0)    180.00 -0.000000    0.00    180.00   
    39. D(C   3,C   2,C   1,C   0)     -0.00 -0.000000    0.00      0.00   
    40. D(C   3,C   2,C   1,H   7)    180.00 -0.000000    0.00    180.00   
    41. D(H   8,C   2,C   1,H   7)      0.00  0.000000   -0.00      0.00   
    42. D(H   9,C   3,C   2,H   8)     -0.00 -0.000000    0.00     -0.00   
    43. D(H   9,C   3,C   2,C   1)    180.00 -0.000000    0.00    180.00   
    44. D(C   4,C   3,C   2,H   8)   -180.00  0.000000   -0.00   -180.00   
    45. D(C   4,C   3,C   2,C   1)      0.00  0.000000   -0.00     -0.00   
    46. D(H  10,C   4,C   3,C   2)    180.00 -0.000000    0.00    180.00   
    47. D(C   5,C   4,C   3,H   9)   -180.00  0.000000   -0.00   -180.00   
    48. D(C   5,C   4,C   3,C   2)      0.00  0.000000   -0.00     -0.00   
    49. D(H  10,C   4,C   3,H   9)      0.00  0.000000   -0.00     -0.00   
    50. D(H  11,C   5,C   4,H  10)      0.00  0.000000   -0.00      0.00   
    51. D(C   0,C   5,C   4,H  10)   -180.00  0.000000   -0.00   -180.00   
    52. D(C   0,C   5,C   4,C   3)     -0.00 -0.000000    0.00      0.00   
    53. D(H  11,C   5,C   0,C   6)      0.00  0.000000   -0.00      0.00   
    54. D(H  11,C   5,C   0,C   1)    180.00 -0.000000    0.00    180.00   
    55. D(H  11,C   5,C   4,C   3)   -180.00  0.000000   -0.00   -180.00   
    56. D(C   4,C   5,C   0,C   6)   -180.00  0.000000   -0.00   -180.00   
    57. D(C   4,C   5,C   0,C   1)      0.00  0.000000   -0.00     -0.00   
    ----------------------------------------------------------------------------

         *************************************************************
         *                GEOMETRY OPTIMIZATION CYCLE   2            *
         *************************************************************
---------------------------------
CARTESIAN COORDINATES (ANGSTROEM)
---------------------------------
  C     -6.356128    0.983198   -0.000015
  C     -7.702081    0.581329   -0.000001
  C     -8.021130   -0.777361    0.000019
  C     -7.003757   -1.737322    0.000027
  C     -5.662890   -1.338841    0.000014
  C     -5.335519    0.017824   -0.000007
  C     -6.021971    2.380393   -0.000037
  H     -8.497551    1.329173   -0.000005
  H     -9.067935   -1.089692    0.000028
  H     -7.256955   -2.800483    0.000043
  H     -4.869045   -2.089356    0.000021
  H     -4.288425    0.326916   -0.000017
  N     -5.745803    3.507850   -0.000051

----------------------------
CARTESIAN COORDINATES (A.U.)
----------------------------
  NO LB      ZA    FRAG     MASS         X           Y           Z
   0 C     6.0000    0    12.011  -12.011341    1.857975   -0.000028
   1 C     6.0000    0    12.011  -14.554824    1.098553   -0.000001
   2 C     6.0000    0    12.011  -15.157738   -1.468999    0.000036
   3 C     6.0000    0    12.011  -13.235182   -3.283063    0.000051
   4 C     6.0000    0    12.011  -10.701312   -2.530043    0.000027
   5 C     6.0000    0    12.011  -10.082670    0.033683   -0.000014
   6 C     6.0000    0    12.011  -11.379875    4.498291   -0.000070
   7 H     1.0000    0     1.008  -16.058045    2.511773   -0.000009
   8 H     1.0000    0     1.008  -17.135914   -2.059220    0.000054
   9 H     1.0000    0     1.008  -13.713658   -5.292145    0.000081
  10 H     1.0000    0     1.008   -9.201161   -3.948310    0.000040
  11 H     1.0000    0     1.008   -8.103949    0.617782   -0.000033
  12 N     7.0000    0    14.007  -10.857994    6.628876   -0.000096

--------------------------------
INTERNAL COORDINATES (ANGSTROEM)
--------------------------------
 C      0   0   0     0.000000000000     0.00000000     0.00000000
 C      1   0   0     1.404666398346     0.00000000     0.00000000
 C      2   1   0     1.395646831593   119.83916626     0.00000000
 C      3   2   1     1.398775604465   120.12207708     0.00000000
 C      4   3   2     1.398824229618   120.11212003     0.00000000
 C      5   4   3     1.395604552498   120.11745322     0.00000000
 C      1   2   3     1.436598279171   120.07473429   179.99989795
 H      2   1   3     1.091807379508   120.14322659   179.99997214
 H      3   2   1     1.092407210256   119.82815105   180.00007118
 H      4   3   2     1.092895304724   119.94108341   179.99994981
 H      5   4   3     1.092457532861   120.05617892   179.99996641
 H      6   5   4     1.091761672462   120.01256404   180.00002720
 N      7   1   2     1.160787461355   179.68692184   179.96312945

---------------------------
INTERNAL COORDINATES (A.U.)
---------------------------
 C      0   0   0     0.000000000000     0.00000000     0.00000000
 C      1   0   0     2.654434802396     0.00000000     0.00000000
 C      2   1   0     2.637390291385   119.83916626     0.00000000
 C      3   2   1     2.643302815249   120.12207708     0.00000000
 C      4   3   2     2.643394703471   120.11212003     0.00000000
 C      5   4   3     2.637310395476   120.11745322     0.00000000
 C      1   2   3     2.714777312095   120.07473429   179.99989795
 H      2   1   3     2.063216938265   120.14322659   179.99997214
 H      3   2   1     2.064350454104   119.82815105   180.00007118
 H      4   3   2     2.065272818977   119.94108341   179.99994981
 H      5   4   3     2.064445550047   120.05617892   179.99996641
 H      6   5   4     2.063130564466   120.01256404   180.00002720
 N      7   1   2     2.193570401651   179.68692184   179.96312945

------------------------------------------------------------------------------
                   ___                                                        
                  /   \      - P O W E R E D   B Y -                         
                 /     \                                                     
                 |  |  |   _    _      __       _____    __    __             
                 |  |  |  | |  | |    /  \     |  _  \  |  |  /  |          
                  \  \/   | |  | |   /    \    | | | |  |  | /  /          
                 / \  \   | |__| |  /  /\  \   | |_| |  |  |/  /          
                |  |  |   |  __  | /  /__\  \  |    /   |      \           
                |  |  |   | |  | | |   __   |  |    \   |  |\   \          
                \     /   | |  | | |  |  |  |  | |\  \  |  | \   \       
                 \___/    |_|  |_| |__|  |__|  |_| \__\ |__|  \__/        
                                                                              
                      - O R C A' S   B I G   F R I E N D -                    
                                      &                                       
                       - I N T E G R A L  F E E D E R -                       
                                                                              
 v1 FN, 2020, v2 2021                                                         
------------------------------------------------------------------------------


Reading SHARK input file opt.SHARKINP.tmp ... ok
----------------------
SHARK INTEGRAL PACKAGE
----------------------

Number of atoms                             ...     13
Number of basis functions                   ...    137
Number of shells                            ...     63
Maximum angular momentum                    ...      2
Integral batch strategy                     ... SHARK/LIBINT Hybrid
RI-J (if used) integral strategy            ... SPLIT-RIJ (Revised 2003 algorithm where possible)
Printlevel                                  ...      1
Contraction scheme used                     ... SEGMENTED contraction
Coulomb Range Separation                    ... NOT USED
Exchange Range Separation                   ... NOT USED
Finite Nucleus Model                        ... NOT USED
Auxiliary Coulomb fitting basis             ... AVAILABLE
   # of basis functions in Aux-J            ...    447
   # of shells in Aux-J                     ...    145
   Maximum angular momentum in Aux-J        ...      4
Auxiliary J/K fitting basis                 ... NOT available
Auxiliary Correlation fitting basis         ... NOT available
Auxiliary 'external' fitting basis          ... NOT available
Integral threshold                          ...     2.500000e-11
Primitive cut-off                           ...     2.500000e-12
Primitive pair pre-selection threshold      ...     2.500000e-12

Calculating pre-screening integrals         ... done (  0.1 sec) Dimension = 63
Organizing shell pair data                  ... done (  0.1 sec)
Shell pair information
Total number of shell pairs                 ...      2016
Shell pairs after pre-screening             ...      1912
Total number of primitive shell pairs       ...      7500
Primitive shell pairs kept                  ...      5315
          la=0 lb=0:    560 shell pairs
          la=1 lb=0:    684 shell pairs
          la=1 lb=1:    224 shell pairs
          la=2 lb=0:    251 shell pairs
          la=2 lb=1:    160 shell pairs
          la=2 lb=2:     33 shell pairs

Calculating one electron integrals          ... done (  0.0 sec)
Calculating RI/J V-Matrix + Cholesky decomp.... done (  0.1 sec)
Calculating Nuclear repulsion               ... done (  0.0 sec) ENN=    298.762388565856 Eh

SHARK setup successfully completed in   0.6 seconds

Maximum memory used throughout the entire GTOINT-calculation: 17.8 MB

Diagonalization of the overlap matrix:
Smallest eigenvalue                        ... 3.055e-04
Time for diagonalization                   ...    0.010 sec
Threshold for overlap eigenvalues          ... 1.000e-08
Number of eigenvalues below threshold      ... 0
Time for construction of square roots      ...    0.005 sec
Total time needed                          ...    0.015 sec

-------------------
DFT GRID GENERATION
-------------------

General Integration Accuracy     IntAcc      ... 4.388
Radial Grid Type                 RadialGrid  ... OptM3 with GC (2021)
Angular Grid (max. ang.)         AngularGrid ... 4 (Lebedev-302)
Angular grid pruning method      GridPruning ... 4 (adaptive)
Weight generation scheme         WeightScheme... Becke
Basis function cutoff            BFCut       ... 1.0000e-11
Integration weight cutoff        WCut        ... 1.0000e-14
Angular grids for H and He will be reduced by one unit
Partially contracted basis set               ... off
Rotationally invariant grid construction     ... off

Total number of grid points                  ...    64384
Total number of batches                      ...     1012
Average number of points per batch           ...       63
Average number of grid points per atom       ...     4953
Time for grid setup =    2.670 sec

--------------------
COSX GRID GENERATION
--------------------

GRIDX 1
-------
General Integration Accuracy     IntAcc      ... 3.816
Radial Grid Type                 RadialGrid  ... OptM3 with GC (2021)
Angular Grid (max. ang.)         AngularGrid ... 1 (Lebedev-50)
Angular grid pruning method      GridPruning ... 4 (adaptive)
Weight generation scheme         WeightScheme... Becke
Basis function cutoff            BFCut       ... 1.0000e-11
Integration weight cutoff        WCut        ... 1.0000e-14
Angular grids for H and He will be reduced by one unit
Partially contracted basis set               ... on
Rotationally invariant grid construction     ... off

Total number of grid points                  ...     8213
Total number of batches                      ...      134
Average number of points per batch           ...       61
Average number of grid points per atom       ...      632
[...]
     21       0.000003   0.000002   0.369119  -0.000003   0.312120   0.267854
     22       0.000008   0.000006  -0.223203  -0.000004   0.299655   0.418226
     23       0.562366   0.471793   0.000005  -0.252843  -0.000005  -0.000007
     24       0.000001  -0.000003  -0.068631   0.000004  -0.307159   0.001984
     25       0.000000  -0.000007   0.055541   0.000006   0.393412  -0.293607
     26      -0.042696  -0.509364  -0.000001   0.498329  -0.000001   0.000004
     27      -0.000003  -0.000001   0.089450  -0.000003  -0.038664   0.524956
     28      -0.000009  -0.000000   0.372805  -0.000008  -0.160829  -0.125217
     29      -0.571922  -0.000211  -0.000008  -0.587963   0.000001  -0.000001
     30      -0.000001   0.000003   0.086514   0.000002   0.452539   0.133430
     31       0.000000   0.000007   0.018885   0.000007   0.213603   0.260640
     32      -0.042188   0.510448   0.000005   0.497213  -0.000002  -0.000004
     33       0.000003  -0.000002  -0.430111  -0.000001  -0.143068   0.050316
     34       0.000008  -0.000006  -0.033049  -0.000005   0.407218  -0.493926
     35       0.561399  -0.472924   0.000001  -0.252141  -0.000004   0.000007
     36      -0.000000  -0.000000  -0.000429  -0.000000  -0.003283   0.003935
     37      -0.000000   0.000000  -0.001801  -0.000000  -0.013669  -0.000937
     38       0.005552  -0.000009   0.000000  -0.001046   0.000000  -0.000000
                 24         25         26         27         28         29    
      0       0.004332   0.010038   0.094092  -0.178657  -0.193579   0.150819
      1      -0.001125   0.041904   0.395250   0.042573   0.046052  -0.036285
      2      -0.000000  -0.000000  -0.000005   0.000000   0.000000  -0.000000
      3       0.006385  -0.033943   0.033843   0.018876   0.185556  -0.034187
      4      -0.003689  -0.030518   0.071605  -0.026288   0.191453   0.116830
      5       0.000000   0.000001  -0.000002   0.000000  -0.000004  -0.000002
      6       0.012942  -0.027533  -0.109484   0.041573   0.047372  -0.034947
      7      -0.037077   0.037627  -0.082849  -0.063149  -0.167577  -0.161807
      8       0.000000  -0.000000   0.000002   0.000001   0.000002   0.000003
      9      -0.058389   0.002410   0.001832   0.000699  -0.255045   0.111676
     10       0.014036   0.009671   0.008066  -0.000153   0.060887  -0.026829
     11       0.000000  -0.000000   0.000000   0.000000   0.000001  -0.000000
     12       0.028197   0.041397   0.060432   0.065602   0.117796   0.042369
     13       0.027446   0.021116  -0.123151   0.037712   0.128248   0.160446
     14      -0.000001  -0.000001   0.000001  -0.000001  -0.000003  -0.000003
     15       0.007434   0.016472   0.002258   0.028699   0.079105  -0.083567
     16       0.000163  -0.042664   0.078996   0.014754  -0.254719  -0.088420
     17      -0.000000   0.000000  -0.000002  -0.000000   0.000003   0.000002
     18       0.002089  -0.001706  -0.013809   0.022309   0.007836  -0.023250
     19      -0.000485  -0.007168  -0.059017  -0.005339  -0.001863   0.005584
     20      -0.000000   0.000000   0.000001  -0.000000  -0.000000   0.000000
     21       0.115628  -0.379208  -0.222836   0.406408  -0.306209  -0.229068
     22       0.110245  -0.389512  -0.174000   0.371236  -0.322220  -0.054141
     23      -0.000002   0.000008   0.000006  -0.000008   0.000006   0.000002
     24       0.139640  -0.142978   0.015754  -0.087281   0.039028  -0.214721
     25      -0.460109   0.423352  -0.547480   0.382722  -0.137492   0.377837
     26       0.000006  -0.000005   0.000009  -0.000005   0.000002  -0.000004
     27      -0.672577   0.003353  -0.000571  -0.190883   0.488395  -0.606200
     28       0.160592   0.008315   0.000391   0.045562  -0.116503   0.144427
     29       0.000002  -0.000000   0.000000   0.000000  -0.000001   0.000002
     30       0.332759   0.317936  -0.260508  -0.250207   0.096845  -0.363090
     31       0.348521   0.312726  -0.480851  -0.301669   0.105268  -0.241719
     32      -0.000007  -0.000006   0.000010   0.000006  -0.000002   0.000006
     33       0.053918   0.162369   0.120648   0.195007  -0.128064  -0.179643
     34      -0.152292  -0.518424  -0.256680  -0.514748   0.426277   0.149848
     35       0.000002   0.000007   0.000004   0.000006  -0.000005  -0.000000
     36      -0.000360  -0.003346  -0.034300  -0.004486  -0.004277   0.004076
     37       0.000126  -0.013928  -0.142764   0.001121   0.001087  -0.000939
     38       0.000000   0.000000   0.000002   0.000000   0.000000  -0.000000
                 30         31         32         33         34         35    
      0       0.038304  -0.280669   0.050083  -0.027366  -0.000152   0.001085
      1       0.159436   0.067100   0.207343  -0.114532  -0.000607  -0.000222
      2      -0.000003   0.000001  -0.000003   0.000001   0.000000  -0.000000
      3      -0.120571   0.208677  -0.154565  -0.005716   0.010984  -0.020273
      4      -0.048887   0.061899  -0.276465  -0.008568  -0.008797   0.016983
      5       0.000002  -0.000002   0.000005   0.000001   0.000000  -0.000000
      6       0.082318  -0.196999  -0.007310   0.000468  -0.038739   0.053392
      7      -0.138280   0.117460   0.301764   0.007456  -0.012900   0.015221
      8       0.000002  -0.000001  -0.000004   0.000000   0.000000  -0.000001
      9       0.025996   0.384053  -0.034402  -0.000432   0.013169  -0.004021
     10       0.107474  -0.091943  -0.141683  -0.001830   0.055514  -0.000604
     11      -0.000002  -0.000001   0.000002  -0.000000  -0.000001   0.000000
     12      -0.135877  -0.228179   0.143367   0.002934   0.030270   0.040651
     13      -0.085661  -0.014904   0.266048   0.006873  -0.030438  -0.037466
     14       0.000002   0.000002  -0.000005   0.000000   0.000000   0.000000
     15       0.085292   0.158118   0.012566   0.001261  -0.013971  -0.024502
     16      -0.098440  -0.150285  -0.315997  -0.010221  -0.002878  -0.005621
     17       0.000001   0.000001   0.000004   0.000001   0.000000   0.000000
     18      -0.001390   0.019238  -0.001209   0.187637  -0.000011  -0.000180
     19      -0.005868  -0.004620  -0.005029   0.781586  -0.000046   0.000047
     20       0.000000  -0.000000   0.000000  -0.000009   0.000000   0.000000
     21       0.257119  -0.094634   0.325597   0.004738  -0.123013   0.227025
     22       0.367860  -0.277428   0.208061  -0.001728   0.116196  -0.214817
     23      -0.000008   0.000005  -0.000005  -0.000001  -0.000001   0.000002
     24      -0.087442  -0.125789   0.179746   0.003585   0.461029  -0.610402
     25       0.467958  -0.215457  -0.281086   0.001564   0.138396  -0.181141
     26      -0.000007   0.000004   0.000003  -0.000001  -0.000005   0.000006
     27       0.030006  -0.500035  -0.038465  -0.000669  -0.155221   0.007615
     28       0.131736   0.119029  -0.164897  -0.002830  -0.650874   0.015967
     29      -0.000003   0.000001   0.000004  -0.000001   0.000010  -0.000000
     30       0.287820  -0.016361  -0.287000  -0.002443  -0.366334  -0.460248
     31       0.377539   0.248208  -0.170328   0.002963   0.347912   0.434349
     32      -0.000008  -0.000004   0.000004  -0.000001  -0.000003  -0.000004
     33      -0.064112   0.040050  -0.196953  -0.004994   0.164738   0.285339
     34       0.445208   0.290944   0.332095   0.000619   0.048843   0.084878
     35      -0.000007  -0.000005  -0.000003  -0.000001  -0.000002  -0.000003
     36      -0.008235  -0.004942  -0.006085  -0.136174   0.000024   0.000054
     37      -0.034319   0.001219  -0.025374  -0.566647   0.000096  -0.000020
     38       0.000000   0.000000   0.000000   0.000006  -0.000000  -0.000000
                 36         37         38    
      0      -0.000469   0.004241  -0.000439
      1      -0.001537  -0.000942  -0.002625
      2       0.000000  -0.000000   0.000000
      3       0.028450  -0.040578   0.032559
      4      -0.025100   0.041003  -0.032795
      5       0.000000  -0.000000   0.000000
      6      -0.027344  -0.028323   0.034557
      7      -0.004121  -0.010918   0.010900
      8       0.000000   0.000000  -0.000000
      9      -0.013993   0.002147   0.006783
     10      -0.058432  -0.002730   0.028130
     11       0.000001   0.000000  -0.000000
     12       0.023029  -0.016925  -0.026433
     13      -0.016627   0.019415   0.026087
     14       0.000000  -0.000000  -0.000000
     15      -0.034125  -0.052762  -0.048743
     16      -0.008709  -0.017490  -0.016138
     17       0.000000   0.000001   0.000001
     18       0.000031  -0.000477   0.000006
     19       0.000080   0.000110   0.000119
     20      -0.000000   0.000000  -0.000000
     21      -0.316128   0.465482  -0.368204
     22       0.300032  -0.447583   0.353934
     23      -0.000003   0.000004  -0.000003
     24       0.293393   0.314757  -0.374393
     25       0.083250   0.095916  -0.111672
     26      -0.000003  -0.000003   0.000004
     27       0.155233   0.002572  -0.071663
     28       0.650332   0.023304  -0.299993
     29      -0.000010  -0.000000   0.000005
     30      -0.230065   0.200645   0.290090
     31       0.212290  -0.192813  -0.274827
     32      -0.000002   0.000002   0.000002
     33       0.388171   0.596118   0.543743
     34       0.116050   0.182614   0.166546
     35      -0.000004  -0.000006  -0.000006
     36       0.000028   0.000098   0.000057
     37       0.000127  -0.000029   0.000218
     38      -0.000000   0.000000  -0.000000


-----------
IR SPECTRUM
-----------

 Mode   freq       eps      Int      T**2         TX        TY        TZ
       cm**-1   L/(mol*cm) km/mol    a.u.
----------------------------------------------------------------------------
  6:    146.82   0.000352    1.78  0.000748  (-0.000000  0.000002 -0.027351)
  7:    164.89   0.000761    3.85  0.001441  (-0.036894  0.008918 -0.000000)
  8:    393.58   0.000147    0.74  0.000116  (-0.000000 -0.000002 -0.010779)
  9:    413.80   0.000000    0.00  0.000000  (-0.000006  0.000001  0.000007)
 10:    465.79   0.000002    0.01  0.000001  ( 0.000273  0.001012 -0.000000)
 11:    563.39   0.000028    0.14  0.000016  (-0.003812  0.001031  0.000000)
 12:    578.41   0.002887   14.59  0.001557  ( 0.000001  0.000004  0.039465)
 13:    636.99   0.000029    0.15  0.000014  ( 0.003675 -0.000940 -0.000000)
 14:    715.21   0.006187   31.27  0.002700  ( 0.000002  0.000005  0.051957)
 15:    775.64   0.000429    2.17  0.000173  (-0.003048 -0.012781  0.000003)
 16:    788.26   0.004637   23.43  0.001836  (-0.000001  0.000000 -0.042843)
 17:    866.52   0.000000    0.00  0.000000  (-0.000001 -0.000000 -0.000025)
 18:    958.62   0.000435    2.20  0.000142  (-0.000000 -0.000001  0.011905)
 19:   1009.44   0.000000    0.00  0.000000  ( 0.000001 -0.000000  0.000025)
 20:   1014.51   0.000082    0.41  0.000025  ( 0.001175  0.004877 -0.000000)
 21:   1036.92   0.000004    0.02  0.000001  (-0.000000  0.000000 -0.001035)
 22:   1048.61   0.000638    3.22  0.000190  ( 0.003227  0.013394 -0.000000)
 23:   1099.82   0.000784    3.96  0.000223  ( 0.014513 -0.003458 -0.000000)
 24:   1173.86   0.000017    0.09  0.000005  (-0.002075  0.000488  0.000000)
 25:   1188.22   0.000150    0.76  0.000039  (-0.001469 -0.006099  0.000000)
 26:   1228.75   0.000121    0.61  0.000031  (-0.001298 -0.005380  0.000000)
 27:   1326.22   0.000013    0.07  0.000003  (-0.001738  0.000390  0.000000)
 28:   1365.06   0.000391    1.98  0.000089  (-0.009203  0.002160  0.000000)
 29:   1475.73   0.001484    7.50  0.000314  (-0.017230  0.004116  0.000000)
 30:   1523.58   0.001805    9.12  0.000370  ( 0.004462  0.018704 -0.000000)
 31:   1631.77   0.000174    0.88  0.000033  (-0.005620  0.001301  0.000000)
 32:   1660.96   0.000167    0.84  0.000031  (-0.001287 -0.005445  0.000000)
 33:   2360.92   0.005665   28.63  0.000749  ( 0.006342  0.026620 -0.000000)
 34:   3180.35   0.000001    0.01  0.000000  ( 0.000236  0.000237 -0.000000)
 35:   3189.89   0.000700    3.54  0.000068  ( 0.008023 -0.002030 -0.000000)
 36:   3197.93   0.001491    7.53  0.000145  (-0.002586 -0.011781  0.000000)
 37:   3206.45   0.001034    5.23  0.000101  (-0.009860  0.001860  0.000000)
 38:   3208.99   0.000354    1.79  0.000034  ( 0.001098  0.005763 -0.000000)

* The epsilon (eps) is given for a Dirac delta lineshape.
** The dipole moment derivative (T) already includes vibrational overlap.

The first frequency considered to be a vibration is 6
The total number of vibrations considered is 33


--------------------------
THERMOCHEMISTRY AT 298.15K
--------------------------

Temperature         ... 298.15 K
Pressure            ... 1.00 atm
Total Mass          ... 103.12 AMU

Throughout the following assumptions are being made:
  (1) The electronic state is orbitally nondegenerate
  (2) There are no thermally accessible electronically excited states
  (3) Hindered rotations indicated by low frequency modes are not
      treated as such but are treated as vibrations and this may
      cause some error
  (4) All equations used are the standard statistical mechanics
      equations for an ideal gas
  (5) All vibrations are strictly harmonic

freq.     146.82  E(vib)   ...       0.41 
freq.     164.89  E(vib)   ...       0.39 
freq.     393.58  E(vib)   ...       0.20 
freq.     413.80  E(vib)   ...       0.19 
freq.     465.79  E(vib)   ...       0.16 
freq.     563.39  E(vib)   ...       0.11 
freq.     578.41  E(vib)   ...       0.11 
freq.     636.99  E(vib)   ...       0.09 
freq.     715.21  E(vib)   ...       0.07 
freq.     775.64  E(vib)   ...       0.05 
freq.     788.26  E(vib)   ...       0.05 
freq.     866.52  E(vib)   ...       0.04 
freq.     958.62  E(vib)   ...       0.03 
freq.    1009.44  E(vib)   ...       0.02 
freq.    1014.51  E(vib)   ...       0.02 
freq.    1036.92  E(vib)   ...       0.02 
freq.    1048.61  E(vib)   ...       0.02 
freq.    1099.82  E(vib)   ...       0.02 
freq.    1173.86  E(vib)   ...       0.01 
freq.    1188.22  E(vib)   ...       0.01 
freq.    1228.75  E(vib)   ...       0.01 
freq.    1326.22  E(vib)   ...       0.01 
freq.    1365.06  E(vib)   ...       0.01 
freq.    1475.73  E(vib)   ...       0.00 
freq.    1523.58  E(vib)   ...       0.00 
freq.    1631.77  E(vib)   ...       0.00 
freq.    1660.96  E(vib)   ...       0.00 
freq.    2360.92  E(vib)   ...       0.00 
freq.    3180.35  E(vib)   ...       0.00 
freq.    3189.89  E(vib)   ...       0.00 
freq.    3197.93  E(vib)   ...       0.00 
freq.    3206.45  E(vib)   ...       0.00 
freq.    3208.99  E(vib)   ...       0.00 

------------
INNER ENERGY
------------

The inner energy is: U= E(el) + E(ZPE) + E(vib) + E(rot) + E(trans)
    E(el)   - is the total energy from the electronic structure calculation
              = E(kin-el) + E(nuc-el) + E(el-el) + E(nuc-nuc)
    E(ZPE)  - the the zero temperature vibrational energy from the frequency calculation
    E(vib)  - the the finite temperature correction to E(ZPE) due to population
              of excited vibrational states
    E(rot)  - is the rotational thermal energy
    E(trans)- is the translational thermal energy

Summary of contributions to the inner energy U:
Electronic energy                ...   -324.07879911 Eh
Zero point energy                ...      0.09931874 Eh      62.32 kcal/mol
Thermal vibrational correction   ...      0.00324520 Eh       2.04 kcal/mol
Thermal rotational correction    ...      0.00141627 Eh       0.89 kcal/mol
Thermal translational correction ...      0.00141627 Eh       0.89 kcal/mol
-----------------------------------------------------------------------
Total thermal energy                   -323.97340263 Eh


Summary of corrections to the electronic energy:
(perhaps to be used in another calculation)
Total thermal correction                  0.00607774 Eh       3.81 kcal/mol
Non-thermal (ZPE) correction              0.09931874 Eh      62.32 kcal/mol
-----------------------------------------------------------------------
Total correction                          0.10539648 Eh      66.14 kcal/mol


--------
ENTHALPY
--------

The enthalpy is H = U + kB*T
                kB is Boltzmann's constant
Total free energy                 ...   -323.97340263 Eh 
Thermal Enthalpy correction       ...      0.00094421 Eh       0.59 kcal/mol
-----------------------------------------------------------------------
Total Enthalpy                    ...   -323.97245842 Eh


Note: Rotational entropy computed according to Herzberg 
Infrared and Raman Spectra, Chapter V,1, Van Nostrand Reinhold, 1945 
Point Group:  Cs, Symmetry Number:   1  
Rotational constants in cm-1:     0.187863     0.051251     0.040266 

Vibrational entropy computed according to the QRRHO of S. Grimme
Chem.Eur.J. 2012 18 9955


-------
ENTROPY
-------

The entropy contributions are T*S = T*(S(el)+S(vib)+S(rot)+S(trans))
     S(el)   - electronic entropy
     S(vib)  - vibrational entropy
     S(rot)  - rotational entropy
     S(trans)- translational entropy
The entropies will be listed as multiplied by the temperature to get
units of energy

Electronic entropy                ...      0.00000000 Eh      0.00 kcal/mol
Vibrational entropy               ...      0.00513636 Eh      3.22 kcal/mol
Rotational entropy                ...      0.01321923 Eh      8.30 kcal/mol
Translational entropy             ...      0.01891481 Eh     11.87 kcal/mol
-----------------------------------------------------------------------
Final entropy term                ...      0.03727040 Eh     23.39 kcal/mol

In case the symmetry of your molecule has not been determined correctly
or in case you have a reason to use a different symmetry number we print 
out the resulting rotational entropy values for sn=1,12 :
 --------------------------------------------------------
|  sn= 1 | S(rot)=       0.01321923 Eh      8.30 kcal/mol|
|  sn= 2 | S(rot)=       0.01256477 Eh      7.88 kcal/mol|
|  sn= 3 | S(rot)=       0.01218194 Eh      7.64 kcal/mol|
|  sn= 4 | S(rot)=       0.01191032 Eh      7.47 kcal/mol|
|  sn= 5 | S(rot)=       0.01169963 Eh      7.34 kcal/mol|
|  sn= 6 | S(rot)=       0.01152748 Eh      7.23 kcal/mol|
|  sn= 7 | S(rot)=       0.01138194 Eh      7.14 kcal/mol|
|  sn= 8 | S(rot)=       0.01125586 Eh      7.06 kcal/mol|
|  sn= 9 | S(rot)=       0.01114465 Eh      6.99 kcal/mol|
|  sn=10 | S(rot)=       0.01104517 Eh      6.93 kcal/mol|
|  sn=11 | S(rot)=       0.01095518 Eh      6.87 kcal/mol|
|  sn=12 | S(rot)=       0.01087303 Eh      6.82 kcal/mol|
 --------------------------------------------------------


-------------------
GIBBS FREE ENERGY
-------------------

The Gibbs free energy is G = H - T*S

Total enthalpy                    ...   -323.97245842 Eh 
Total entropy correction          ...     -0.03727040 Eh    -23.39 kcal/mol
-----------------------------------------------------------------------
Final Gibbs free energy         ...   -324.00972882 Eh

For completeness - the Gibbs free energy minus the electronic energy
G-E(el)                           ...      0.06907028 Eh     43.34 kcal/mol


Timings for individual modules:

Sum of individual times         ...     1823.385 sec (=  30.390 min)
GTO integral calculation        ...        5.156 sec (=   0.086 min)   0.3 %
SCF iterations                  ...      742.949 sec (=  12.382 min)  40.7 %
SCF Gradient evaluation         ...      266.515 sec (=   4.442 min)  14.6 %
Geometry relaxation             ...        1.664 sec (=   0.028 min)   0.1 %
Analytical frequency calculation...      807.101 sec (=  13.452 min)  44.3 %
                             ****ORCA TERMINATED NORMALLY****
TOTAL RUN TIME: 0 days 0 hours 30 minutes 28 seconds 613 msec
