
                                 *****************
                                 * O   R   C   A *
                                 *****************

                                            #,                                       
                                            ###                                      
                                            ####                                     
                                            #####                                    
                                            ######                                   
                                           ########,                                 
                                     ,,################,,,,,                         
                               ,,#################################,,                 
                          ,,##########################################,,             
                       ,#########################################, ''#####,          
                    ,#############################################,,   '####,        
                  ,##################################################,,,,####,       
                ,###########''''           ''''###############################       
              ,#####''   ,,,,##########,,,,          '''####'''          '####       
            ,##' ,,,,###########################,,,                        '##       
           ' ,,###''''                  '''############,,,                           
         ,,##''                                '''############,,,,        ,,,,,,###''
      ,#''                                            '''#######################'''  
     '                                                          ''''####''''         
             ,#######,   #######,   ,#######,      ##                                
            ,#'     '#,  ##    ##  ,#'     '#,    #''#        ######   ,####,        
            ##       ##  ##   ,#'  ##            #'  '#       #        #'  '#        
            ##       ##  #######   ##           ,######,      #####,   #    #        
            '#,     ,#'  ##    ##  '#,     ,#' ,#      #,         ##   #,  ,#        
             '#######'   ##     ##  '#######'  #'      '#     #####' # '####'        



                  #######################################################
                  #                        -***-                        #
                  #          Department of theory and spectroscopy      #
                  #    Directorship and core code : Frank Neese         #
                  #        Max Planck Institute fuer Kohlenforschung    #
                  #                Kaiser Wilhelm Platz 1               #
                  #                 D-45470 Muelheim/Ruhr               #
                  #                      Germany                        #
                  #                                                     #
                  #                  All rights reserved                #
                  #                        -***-                        #
                  #######################################################



                         Program Version 5.0.4 -  RELEASE  -

 With contributions from (in alphabetic order):
   Daniel Aravena         : Magnetic Suceptibility
   Michael Atanasov       : Ab Initio Ligand Field Theory (pilot matlab implementation)
   Alexander A. Auer      : GIAO ZORA, VPT2 properties, NMR spectrum
   Ute Becker             : Parallelization
   Giovanni Bistoni       : ED, misc. LED, open-shell LED, HFLD
   Martin Brehm           : Molecular dynamics
   Dmytro Bykov           : SCF Hessian
   Vijay G. Chilkuri      : MRCI spin determinant printing, contributions to CSF-ICE
   Dipayan Datta          : RHF DLPNO-CCSD density
   Achintya Kumar Dutta   : EOM-CC, STEOM-CC
   Dmitry Ganyushin       : Spin-Orbit,Spin-Spin,Magnetic field MRCI
   Miquel Garcia          : C-PCM and meta-GGA Hessian, CC/C-PCM, Gaussian charge scheme
   Yang Guo               : DLPNO-NEVPT2, F12-NEVPT2, CIM, IAO-localization
   Andreas Hansen         : Spin unrestricted coupled pair/coupled cluster methods
   Benjamin Helmich-Paris : MC-RPA, TRAH-SCF, COSX integrals
   Lee Huntington         : MR-EOM, pCC
   Robert Izsak           : Overlap fitted RIJCOSX, COSX-SCS-MP3, EOM
   Marcus Kettner         : VPT2
   Christian Kollmar      : KDIIS, OOCD, Brueckner-CCSD(T), CCSD density, CASPT2, CASPT2-K
   Simone Kossmann        : Meta GGA functionals, TD-DFT gradient, OOMP2, MP2 Hessian
   Martin Krupicka        : Initial AUTO-CI
   Lucas Lang             : DCDCAS
   Marvin Lechner         : AUTO-CI (C++ implementation), FIC-MRCC
   Dagmar Lenk            : GEPOL surface, SMD
   Dimitrios Liakos       : Extrapolation schemes; Compound Job, initial MDCI parallelization
   Dimitrios Manganas     : Further ROCIS development; embedding schemes
   Dimitrios Pantazis     : SARC Basis sets
   Anastasios Papadopoulos: AUTO-CI, single reference methods and gradients
   Taras Petrenko         : DFT Hessian,TD-DFT gradient, ASA, ECA, R-Raman, ABS, FL, XAS/XES, NRVS
   Peter Pinski           : DLPNO-MP2, DLPNO-MP2 Gradient
   Christoph Reimann      : Effective Core Potentials
   Marius Retegan         : Local ZFS, SOC
   Christoph Riplinger    : Optimizer, TS searches, QM/MM, DLPNO-CCSD(T), (RO)-DLPNO pert. Triples
   Tobias Risthaus        : Range-separated hybrids, TD-DFT gradient, RPA, STAB
   Michael Roemelt        : Original ROCIS implementation
   Masaaki Saitow         : Open-shell DLPNO-CCSD energy and density
   Barbara Sandhoefer     : DKH picture change effects
   Avijit Sen             : IP-ROCIS
   Kantharuban Sivalingam : CASSCF convergence, NEVPT2, FIC-MRCI
   Bernardo de Souza      : ESD, SOC TD-DFT
   Georgi Stoychev        : AutoAux, RI-MP2 NMR, DLPNO-MP2 response
   Willem Van den Heuvel  : Paramagnetic NMR
   Boris Wezisla          : Elementary symmetry handling
   Frank Wennmohs         : Technical directorship


 We gratefully acknowledge several colleagues who have allowed us to
 interface, adapt or use parts of their codes:
   Stefan Grimme, W. Hujo, H. Kruse, P. Pracht,  : VdW corrections, initial TS optimization,
                  C. Bannwarth, S. Ehlert          DFT functionals, gCP, sTDA/sTD-DF
   Ed Valeev, F. Pavosevic, A. Kumar             : LibInt (2-el integral package), F12 methods
   Garnet Chan, S. Sharma, J. Yang, R. Olivares  : DMRG
   Ulf Ekstrom                                   : XCFun DFT Library
   Mihaly Kallay                                 : mrcc  (arbitrary order and MRCC methods)
   Jiri Pittner, Ondrej Demel                    : Mk-CCSD
   Frank Weinhold                                : gennbo (NPA and NBO analysis)
   Christopher J. Cramer and Donald G. Truhlar   : smd solvation model
   Lars Goerigk                                  : TD-DFT with DH, B97 family of functionals
   V. Asgeirsson, H. Jonsson                     : NEB implementation
   FAccTs GmbH                                   : IRC, NEB, NEB-TS, DLPNO-Multilevel, CI-OPT
                                                   MM, QMMM, 2- and 3-layer-ONIOM, Crystal-QMMM,
                                                   LR-CPCM, SF, NACMEs, symmetry and pop. for TD-DFT,
                                                   nearIR, NL-DFT gradient (VV10), updates on ESD,
                                                   ML-optimized integration grids
   S Lehtola, MJT Oliveira, MAL Marques          : LibXC Library
   Liviu Ungur et al                             : ANISO software


 Your calculation uses the libint2 library for the computation of 2-el integrals
 For citations please refer to: http://libint.valeyev.net

 Your ORCA version has been built with support for libXC version: 5.1.0
 For citations please refer to: https://tddft.org/programs/libxc/

 This ORCA versions uses:
   CBLAS   interface :  Fast vector & matrix operations
   LAPACKE interface :  Fast linear algebra routines
   Shared memory     :  Shared parallel matrices


Your calculation utilizes the atom-pairwise dispersion correction
based on tight binding partial charges (D4)
Cite in your paper:
E.Caldeweyher, C.Bannwarth, S.Grimme, J.Chem.Phys., (2017), 147, 034112.
E.Caldeweyher, S.Ehlert, A.Hansen, H.Neugebauer, S.Grimme, J.Chem.Phys., (2018), in progress.
   

================================================================================

----- Orbital basis set information -----
Your calculation utilizes the basis: def2-QZVPP
   F. Weigend and R. Ahlrichs, Phys. Chem. Chem. Phys. 7, 3297 (2005).

----- AuxJ basis set information -----
Your calculation utilizes the auxiliary basis: def2/J
   F. Weigend, Phys. Chem. Chem. Phys. 8, 1057 (2006).

================================================================================
                                        WARNINGS
                       Please study these warnings very carefully!
================================================================================


WARNING: your system is open-shell and RHF/RKS was chosen
  ===> : WILL SWITCH to UHF/UKS


INFO   : the flag for use of the SHARK integral package has been found!

================================================================================
                                       INPUT FILE
================================================================================
NAME = fukui_kation.inp
|  1> !B3LYP DEF2-QZVPP D4 KEEPDENS
|  2> 
|  3> %scf
|  4> convergence tight
|  5> end
|  6> 
|  7> * xyz 1 2
|  8>   C   -6.19125178160671      1.04578685059177     -0.00000001686577
|  9>   C   -7.37580530487043      0.28825949786031     -0.00000001284834
| 10>   C   -7.33908756893839     -1.10768545106982     -0.00000002576604
| 11>   C   -6.11117938173447     -1.77931819998824      0.00000000290657
| 12>   C   -4.92566072561635     -1.04047352586861      0.00000000533049
| 13>   C   -4.96819058552413      0.35823228576941     -0.00000003398085
| 14>   C   -6.24553993017456      2.55508248967342      0.00000000413099
| 15>   H   -5.23843039862032      2.99755933811265     -0.00000003012539
| 16>   H   -6.78052773252599      2.93791704488256      0.88605739423795
| 17>   H   -6.78052780177066      2.93791706461754     -0.88605733399821
| 18>   H   -8.34213499717683      0.80297272229397      0.00000000580428
| 19>   H   -8.27370961744022     -1.67571619441028     -0.00000001783878
| 20>   H   -6.08022998864363     -2.87249607540980      0.00000001903164
| 21>   H   -3.95993407210113     -1.55389094986220      0.00000004701981
| 22>   H   -4.03307011325617      0.92683310280730     -0.00000000703837
| 23> **                         ****END OF INPUT****
================================================================================

                       ****************************
                       * Single Point Calculation *
                       ****************************

---------------------------------
CARTESIAN COORDINATES (ANGSTROEM)
---------------------------------
  C     -6.191252    1.045787   -0.000000
  C     -7.375805    0.288259   -0.000000
  C     -7.339088   -1.107685   -0.000000
  C     -6.111179   -1.779318    0.000000
  C     -4.925661   -1.040474    0.000000
  C     -4.968191    0.358232   -0.000000
  C     -6.245540    2.555082    0.000000
  H     -5.238430    2.997559   -0.000000
  H     -6.780528    2.937917    0.886057
  H     -6.780528    2.937917   -0.886057
  H     -8.342135    0.802973    0.000000
  H     -8.273710   -1.675716   -0.000000
  H     -6.080230   -2.872496    0.000000
  H     -3.959934   -1.553891    0.000000
  H     -4.033070    0.926833   -0.000000

----------------------------
CARTESIAN COORDINATES (A.U.)
----------------------------
  NO LB      ZA    FRAG     MASS         X           Y           Z
   0 C     6.0000    0    12.011  -11.699770    1.976251   -0.000000
   1 C     6.0000    0    12.011  -13.938252    0.544732   -0.000000
   2 C     6.0000    0    12.011  -13.868866   -2.093222   -0.000000
   3 C     6.0000    0    12.011  -11.548455   -3.362424    0.000000
   4 C     6.0000    0    12.011   -9.308150   -1.966210    0.000000
   5 C     6.0000    0    12.011   -9.388520    0.676961   -0.000000
   6 C     6.0000    0    12.011  -11.802360    4.828406    0.000000
   7 H     1.0000    0     1.008   -9.899199    5.664566   -0.000000
   8 H     1.0000    0     1.008  -12.813340    5.551859    1.674406
   9 H     1.0000    0     1.008  -12.813341    5.551859   -1.674406
  10 H     1.0000    0     1.008  -15.764351    1.517399    0.000000
  11 H     1.0000    0     1.008  -15.635045   -3.166645   -0.000000
  12 H     1.0000    0     1.008  -11.489970   -5.428231    0.000000
  13 H     1.0000    0     1.008   -7.483191   -2.936428    0.000000
  14 H     1.0000    0     1.008   -7.621398    1.751461   -0.000000

--------------------------------
INTERNAL COORDINATES (ANGSTROEM)
--------------------------------
 C      0   0   0     0.000000000000     0.00000000     0.00000000
 C      1   0   0     1.406063561726     0.00000000     0.00000000
 C      2   1   0     1.396427761317   121.09238803     0.00000000
 C      3   2   1     1.399588891647   120.18418459     0.00000000
 C      4   3   2     1.396905843813   119.39034129     0.00000000
 C      5   4   3     1.399352256043   120.19055357     0.00000000
 C      1   2   3     1.510271673980   120.53910459   180.00000085
 H      7   1   2     1.100025167872   111.65844665   180.00000171
 H      7   1   2     1.103572355530   111.35260172    59.55028730
 H      7   1   2     1.103572354212   111.35260161   300.44971583
 H      2   1   3     1.094861990225   119.35900951   179.99999915
 H      3   2   1     1.093698906887   119.78306606   180.00000000
 H      4   3   2     1.093615897948   120.29916346   179.99999852
 H      5   4   3     1.093720906159   120.07098490   179.99999915
 H      6   5   4     1.094420936747   119.56009722   179.99999852

---------------------------
INTERNAL COORDINATES (A.U.)
---------------------------
 C      0   0   0     0.000000000000     0.00000000     0.00000000
 C      1   0   0     2.657075058547     0.00000000     0.00000000
 C      2   1   0     2.638866034693   121.09238803     0.00000000
 C      3   2   1     2.644839705292   120.18418459     0.00000000
 C      4   3   2     2.639769479681   119.39034129     0.00000000
 C      5   4   3     2.644392528807   120.19055357     0.00000000
 C      1   2   3     2.853999851641   120.53910459   180.00000085
 H      7   1   2     2.078746307699   111.65844665   180.00000171
 H      7   1   2     2.085449520918   111.35260172    59.55028730
 H      7   1   2     2.085449518427   111.35260161   300.44971583
 H      2   1   3     2.068989315966   119.35900951   179.99999915
 H      3   2   1     2.066791406985   119.78306606   180.00000000
 H      4   3   2     2.066634542823   120.29916346   179.99999852
 H      5   4   3     2.066832979585   120.07098490   179.99999915
 H      6   5   4     2.068155845682   119.56009722   179.99999852

---------------------
BASIS SET INFORMATION
---------------------
There are 2 groups of distinct atoms

 Group   1 Type C   : 15s8p3d2f1g contracted to 7s4p3d2f1g pattern {8211111/5111/111/11/1}
 Group   2 Type H   : 7s3p2d1f contracted to 4s3p2d1f pattern {4111/111/11/1}

Atom   0C    basis set group =>   1
Atom   1C    basis set group =>   1
Atom   2C    basis set group =>   1
Atom   3C    basis set group =>   1
Atom   4C    basis set group =>   1
Atom   5C    basis set group =>   1
Atom   6C    basis set group =>   1
Atom   7H    basis set group =>   2
Atom   8H    basis set group =>   2
Atom   9H    basis set group =>   2
Atom  10H    basis set group =>   2
Atom  11H    basis set group =>   2
Atom  12H    basis set group =>   2
Atom  13H    basis set group =>   2
Atom  14H    basis set group =>   2
---------------------------------
AUXILIARY/J BASIS SET INFORMATION
---------------------------------
There are 2 groups of distinct atoms

 Group   1 Type C   : 12s5p4d2f1g contracted to 6s4p3d1f1g pattern {711111/2111/211/2/1}
 Group   2 Type H   : 5s2p1d contracted to 3s1p1d pattern {311/2/1}

Atom   0C    basis set group =>   1
Atom   1C    basis set group =>   1
Atom   2C    basis set group =>   1
Atom   3C    basis set group =>   1
Atom   4C    basis set group =>   1
Atom   5C    basis set group =>   1
Atom   6C    basis set group =>   1
Atom   7H    basis set group =>   2
Atom   8H    basis set group =>   2
Atom   9H    basis set group =>   2
Atom  10H    basis set group =>   2
Atom  11H    basis set group =>   2
Atom  12H    basis set group =>   2
Atom  13H    basis set group =>   2
Atom  14H    basis set group =>   2
------------------------------------------------------------------------------
                           ORCA GTO INTEGRAL CALCULATION
                           -- RI-GTO INTEGRALS CHOSEN --
------------------------------------------------------------------------------
------------------------------------------------------------------------------
                   ___                                                        
                  /   \      - P O W E R E D   B Y -                         
                 /     \                                                     
                 |  |  |   _    _      __       _____    __    __             
                 |  |  |  | |  | |    /  \     |  _  \  |  |  /  |          
                  \  \/   | |  | |   /    \    | | | |  |  | /  /          
                 / \  \   | |__| |  /  /\  \   | |_| |  |  |/  /          
                |  |  |   |  __  | /  /__\  \  |    /   |      \           
                |  |  |   | |  | | |   __   |  |    \   |  |\   \          
                \     /   | |  | | |  |  |  |  | |\  \  |  | \   \       
                 \___/    |_|  |_| |__|  |__|  |_| \__\ |__|  \__/        
                                                                              
                      - O R C A' S   B I G   F R I E N D -                    
                                      &                                       
                       - I N T E G R A L  F E E D E R -                       
                                                                              
 v1 FN, 2020, v2 2021                                                         
------------------------------------------------------------------------------


Reading SHARK input file fukui_kation.SHARKINP.tmp ... ok
----------------------
SHARK INTEGRAL PACKAGE
----------------------

Number of atoms                             ...     15
Number of basis functions                   ...    639
Number of shells                            ...    199
Maximum angular momentum                    ...      4
Integral batch strategy                     ... SHARK/LIBINT Hybrid
RI-J (if used) integral strategy            ... SPLIT-RIJ (Revised 2003 algorithm where possible)
Printlevel                                  ...      1
Contraction scheme used                     ... SEGMENTED contraction
Coulomb Range Separation                    ... NOT USED
Exchange Range Separation                   ... NOT USED
Finite Nucleus Model                        ... NOT USED
Auxiliary Coulomb fitting basis             ... AVAILABLE
   # of basis functions in Aux-J            ...    431
   # of shells in Aux-J                     ...    145
   Maximum angular momentum in Aux-J        ...      4
Auxiliary J/K fitting basis                 ... NOT available
Auxiliary Correlation fitting basis         ... NOT available
Auxiliary 'external' fitting basis          ... NOT available
Integral threshold                          ...     2.500000e-11
Primitive cut-off                           ...     2.500000e-12
Primitive pair pre-selection threshold      ...     2.500000e-12

Calculating pre-screening integrals         ... done (  1.8 sec) Dimension = 199
Organizing shell pair data                  ... done (  1.9 sec)
Shell pair information
Total number of shell pairs                 ...     19900
Shell pairs after pre-screening             ...     17252
Total number of primitive shell pairs       ...     47599
Primitive shell pairs kept                  ...     32350
          la=0 lb=0:   2734 shell pairs
          la=1 lb=0:   3708 shell pairs
          la=1 lb=1:   1264 shell pairs
          la=2 lb=0:   2527 shell pairs
          la=2 lb=1:   1716 shell pairs
          la=2 lb=2:    599 shell pairs
          la=3 lb=0:   1502 shell pairs
          la=3 lb=1:   1015 shell pairs
          la=3 lb=2:    698 shell pairs
          la=3 lb=3:    217 shell pairs
          la=4 lb=0:    524 shell pairs
          la=4 lb=1:    338 shell pairs
          la=4 lb=2:    239 shell pairs
          la=4 lb=3:    143 shell pairs
          la=4 lb=4:     28 shell pairs

Calculating one electron integrals          ... done (  0.6 sec)
Calculating RI/J V-Matrix + Cholesky decomp.... done (  0.0 sec)
Calculating Nuclear repulsion               ... done (  0.0 sec) ENN=    268.040360244222 Eh

SHARK setup successfully completed in   9.0 seconds

Maximum memory used throughout the entire GTOINT-calculation: 555.6 MB
-------------------------------------------------------------------------------
                                 ORCA SCF
-------------------------------------------------------------------------------

------------
SCF SETTINGS
------------
Hamiltonian:
 Density Functional     Method          .... DFT(GTOs)
 Exchange Functional    Exchange        .... B88
   X-Alpha parameter    XAlpha          ....  0.666667
   Becke's b parameter  XBeta           ....  0.004200
 Correlation Functional Correlation     .... LYP
 LDA part of GGA corr.  LDAOpt          .... VWN-5
 Gradients option       PostSCFGGA      .... off
 Hybrid DFT is turned on
   Fraction HF Exchange ScalHFX         ....  0.200000
   Scaling of DF-GGA-X  ScalDFX         ....  0.720000
   Scaling of DF-GGA-C  ScalDFC         ....  0.810000
   Scaling of DF-LDA-C  ScalLDAC        ....  1.000000
   Perturbative correction              ....  0.000000
   Density functional embedding theory  .... OFF
   NL short-range parameter             ....  4.800000
 RI-approximation to the Coulomb term is turned on
   Number of AuxJ basis functions       .... 431
   RIJ-COSX (HFX calculated with COS-X)).... on


General Settings:
 Integral files         IntName         .... fukui_kation
 Hartree-Fock type      HFTyp           .... UHF
 Total Charge           Charge          ....    1
 Multiplicity           Mult            ....    2
 Number of Electrons    NEL             ....   49
 Basis Dimension        Dim             ....  639
 Nuclear Repulsion      ENuc            ....    268.0403602442 Eh

Convergence Acceleration:
 DIIS                   CNVDIIS         .... on
   Start iteration      DIISMaxIt       ....    12
   Startup error        DIISStart       ....  0.200000
   # of expansion vecs  DIISMaxEq       ....     5
   Bias factor          DIISBfac        ....   1.050
   Max. coefficient     DIISMaxC        ....  10.000
 Trust-Rad. Augm. Hess. CNVTRAH         .... auto
   Auto Start mean grad. ratio tolernc. ....  1.125000
   Auto Start start iteration           ....    20
   Auto Start num. interpolation iter.  ....    10
   Max. Number of Micro iterations      ....    16
   Max. Number of Macro iterations      .... Maxiter - #DIIS iter
   Number of Davidson start vectors     ....     2
   Converg. threshold I  (grad. norm)   ....   1.000e-05
   Converg. threshold II (energy diff.) ....   1.000e-08
   Grad. Scal. Fac. for Micro threshold ....   0.100
   Minimum threshold for Micro iter.    ....   0.010
   NR start threshold (gradient norm)   ....   0.001
   Initial trust radius                 ....   0.400
   Minimum AH scaling param. (alpha)    ....   1.000
   Maximum AH scaling param. (alpha)    .... 1000.000
   Orbital update algorithm             .... Taylor
   White noise on init. David. guess    .... on
   Maximum white noise                  ....   0.010
   Quad. conv. algorithm                .... NR
 SOSCF                  CNVSOSCF        .... off
 Level Shifting         CNVShift        .... on
   Level shift para.    LevelShift      ....    0.2500
   Turn off err/grad.   ShiftErr        ....    0.0010
 Zerner damping         CNVZerner       .... off
 Static damping         CNVDamp         .... on
   Fraction old density DampFac         ....    0.7000
   Max. Damping (<1)    DampMax         ....    0.9800
   Min. Damping (>=0)   DampMin         ....    0.0000
   Turn off err/grad.   DampErr         ....    0.1000
 Fernandez-Rico         CNVRico         .... off

SCF Procedure:
 Maximum # iterations   MaxIter         ....   125
 SCF integral mode      SCFMode         .... Direct
   Integral package                     .... SHARK and LIBINT hybrid scheme
 Reset frequency        DirectResetFreq ....    20
 Integral Threshold     Thresh          ....  2.500e-11 Eh
 Primitive CutOff       TCut            ....  2.500e-12 Eh

Convergence Tolerance:
 Convergence Check Mode ConvCheckMode   .... Total+1el-Energy
 Convergence forced     ConvForced      .... 0
 Energy Change          TolE            ....  1.000e-08 Eh
 1-El. energy change                    ....  1.000e-05 Eh
 DIIS Error             TolErr          ....  5.000e-07


Diagonalization of the overlap matrix:
Smallest eigenvalue                        ... 6.900e-06
Time for diagonalization                   ...    0.365 sec
Threshold for overlap eigenvalues          ... 1.000e-08
Number of eigenvalues below threshold      ... 0
Time for construction of square roots      ...    0.126 sec
Total time needed                          ...    0.492 sec

Time for model grid setup =    1.504 sec

------------------------------
INITIAL GUESS: MODEL POTENTIAL
------------------------------
Loading Hartree-Fock densities                     ... done
Calculating cut-offs                               ... done
Initializing the effective Hamiltonian             ... done
Setting up the integral package (SHARK)            ... done
Starting the Coulomb interaction                   ... done (   5.2 sec)
Reading the grid                                   ... done
Mapping shells                                     ... done
Starting the XC term evaluation                    ... done (   5.7 sec)
  promolecular density results
     # of electrons  =     49.996646362
     EX              =    -38.330213214
     EC              =     -1.632952127
     EX+EC           =    -39.963165341
Transforming the Hamiltonian                       ... done (   0.1 sec)
Diagonalizing the Hamiltonian                      ... done (   0.2 sec)
Back transforming the eigenvectors                 ... done (   0.0 sec)
Now organizing SCF variables                       ... done
                      ------------------
                      INITIAL GUESS DONE (  12.8 sec)
                      ------------------
-------------------
DFT GRID GENERATION
-------------------

General Integration Accuracy     IntAcc      ... 4.388
Radial Grid Type                 RadialGrid  ... OptM3 with GC (2021)
Angular Grid (max. ang.)         AngularGrid ... 4 (Lebedev-302)
Angular grid pruning method      GridPruning ... 4 (adaptive)
Weight generation scheme         WeightScheme... Becke
Basis function cutoff            BFCut       ... 1.0000e-11
Integration weight cutoff        WCut        ... 1.0000e-14
Angular grids for H and He will be reduced by one unit
Partially contracted basis set               ... off
Rotationally invariant grid construction     ... off

Total number of grid points                  ...    69702
Total number of batches                      ...     1095
Average number of points per batch           ...       63
Average number of grid points per atom       ...     4647
Time for grid setup =    4.545 sec

--------------------
COSX GRID GENERATION
--------------------

GRIDX 1
-------
General Integration Accuracy     IntAcc      ... 3.816
Radial Grid Type                 RadialGrid  ... OptM3 with GC (2021)
Angular Grid (max. ang.)         AngularGrid ... 1 (Lebedev-50)
Angular grid pruning method      GridPruning ... 4 (adaptive)
Weight generation scheme         WeightScheme... Becke
Basis function cutoff            BFCut       ... 1.0000e-11
Integration weight cutoff        WCut        ... 1.0000e-14
Angular grids for H and He will be reduced by one unit
Partially contracted basis set               ... on
Rotationally invariant grid construction     ... off

Total number of grid points                  ...     8954
Total number of batches                      ...      149
Average number of points per batch           ...       60
Average number of grid points per atom       ...      597
UseSFitting                                  ... on

GRIDX 2
-------
General Integration Accuracy     IntAcc      ... 4.020
Radial Grid Type                 RadialGrid  ... OptM3 with GC (2021)
Angular Grid (max. ang.)         AngularGrid ... 2 (Lebedev-110)
Angular grid pruning method      GridPruning ... 4 (adaptive)
Weight generation scheme         WeightScheme... Becke
Basis function cutoff            BFCut       ... 1.0000e-11
Integration weight cutoff        WCut        ... 1.0000e-14
Angular grids for H and He will be reduced by one unit
Partially contracted basis set               ... on
Rotationally invariant grid construction     ... off

Total number of grid points                  ...    20811
Total number of batches                      ...      332
Average number of points per batch           ...       62
Average number of grid points per atom       ...     1387
UseSFitting                                  ... on

GRIDX 3
-------
General Integration Accuracy     IntAcc      ... 4.338
Radial Grid Type                 RadialGrid  ... OptM3 with GC (2021)
Angular Grid (max. ang.)         AngularGrid ... 3 (Lebedev-194)
Angular grid pruning method      GridPruning ... 4 (adaptive)
Weight generation scheme         WeightScheme... Becke
Basis function cutoff            BFCut       ... 1.0000e-11
Integration weight cutoff        WCut        ... 1.0000e-14
Angular grids for H and He will be reduced by one unit
Partially contracted basis set               ... on
Rotationally invariant grid construction     ... off

Total number of grid points                  ...    45080
Total number of batches                      ...      713
Average number of points per batch           ...       63
Average number of grid points per atom       ...     3005
UseSFitting                                  ... on

Time for X-Grid setup             =    9.975 sec

--------------
SCF ITERATIONS
--------------
ITER       Energy         Delta-E        Max-DP      RMS-DP      [F,P]     Damp
               ***  Starting incremental Fock matrix formation  ***
  0   -271.0737071494   0.000000000000 0.01070610  0.00009712  0.0922371 0.7000
  1   -271.1217362801  -0.048029130692 0.00685520  0.00007319  0.0483345 0.7000
                               ***Turning on DIIS***
  2   -271.1439858675  -0.022249587421 0.01462613  0.00013784  0.0194777 0.0000
  3   -271.1776241110  -0.033638243507 0.00682013  0.00005013  0.0243574 0.0000
  4   -271.1850289594  -0.007404848350 0.00119566  0.00001228  0.0027637 0.0000
  5   -271.1852706993  -0.000241739923 0.00053550  0.00000515  0.0013364 0.0000
  6   -271.1853140168  -0.000043317465 0.00047256  0.00000497  0.0007301 0.0000
               *** Restarting incremental Fock matrix formation ***
                                   *** Resetting DIIS ***
  7   -271.1853409306  -0.000026913814 0.00038063  0.00000404  0.0006867 0.0000
  8   -271.1853332723   0.000007658331 0.00016792  0.00000190  0.0009713 0.0000
  9   -271.1853475920  -0.000014319741 0.00014043  0.00000099  0.0001984 0.0000
 10   -271.1853486589  -0.000001066932 0.00007775  0.00000064  0.0001217 0.0000
 11   -271.1853491123  -0.000000453338 0.00007932  0.00000057  0.0000843 0.0000
 12   -271.1853493436  -0.000000231329 0.00002424  0.00000021  0.0000583 0.0000
 13   -271.1853494269  -0.000000083253 0.00006350  0.00000055  0.0000338 0.0000
 14   -271.1853495687  -0.000000141823 0.00001896  0.00000020  0.0000372 0.0000
 15   -271.1853496177  -0.000000049026 0.00005631  0.00000057  0.0000282 0.0000
 16   -271.1853497125  -0.000000094805 0.00003291  0.00000035  0.0000213 0.0000
 17   -271.1853497593  -0.000000046837 0.00003341  0.00000032  0.0000260 0.0000
 18   -271.1853497885  -0.000000029203 0.00003239  0.00000033  0.0000160 0.0000
 19   -271.1853498015  -0.000000012994 0.00001399  0.00000016  0.0000096 0.0000
 20   -271.1853498005   0.000000001005 0.00002172  0.00000018  0.0000037 0.0000
                 **** Energy Check signals convergence ****

               *****************************************************
               *                     SUCCESS                       *
               *           SCF CONVERGED AFTER  21 CYCLES          *
               *****************************************************

Old exchange energy                            =     -7.763924197 Eh
New exchange energy                            =     -7.763921552 Eh
Exchange energy change after final integration =      0.000002645 Eh
Total energy after final integration           =   -271.185347159 Eh
Final COS-X integration done in                =   233.054 sec

----------------
TOTAL SCF ENERGY
----------------

Total Energy       :         -271.18534716 Eh           -7379.32845 eV

Components:
Nuclear Repulsion  :          268.04036024 Eh            7293.74901 eV
Electronic Energy  :         -539.22570740 Eh          -14673.07746 eV
One Electron Energy:         -884.71349261 Eh          -24074.27805 eV
Two Electron Energy:          345.48778521 Eh            9401.20058 eV
Max COSX asymmetry :            0.00000023 Eh               0.00001 eV

Virial components:
Potential Energy   :         -541.01669681 Eh          -14721.81276 eV
Kinetic Energy     :          269.83134965 Eh            7342.48431 eV
Virial Ratio       :            2.00501794


DFT components:
N(Alpha)           :       25.000005227448 electrons
N(Beta)            :       24.000011803572 electrons
N(Total)           :       49.000017031020 electrons
E(X)               :      -30.828551291482 Eh       
E(C)               :       -1.901512902549 Eh       
E(XC)              :      -32.730064194032 Eh       
DFET-embed. en.    :        0.000000000000 Eh       

---------------
SCF CONVERGENCE
---------------

  Last Energy change         ...   -3.5932e-09  Tolerance :   1.0000e-08
  Last MAX-Density change    ...    0.0000e+00  Tolerance :   1.0000e-07
  Last RMS-Density change    ...    0.0000e+00  Tolerance :   5.0000e-09
  Last DIIS Error            ...    2.5921e-06  Tolerance :   5.0000e-07

             **** THE GBW FILE WAS UPDATED (fukui_kation.gbw) ****
             **** DENSITY fukui_kation.scfp WAS UPDATED ****
             **** ENERGY FILE WAS UPDATED (fukui_kation.en.tmp) ****
----------------------
UHF SPIN CONTAMINATION
----------------------

Warning: in a DFT calculation there is little theoretical justification to 
         calculate <S**2> as in Hartree-Fock theory. We will do it anyways
         but you should keep in mind that the values have only limited relevance

Expectation value of <S**2>     :     0.761355
Ideal value S*(S+1) for S=0.5   :     0.750000
Deviation                       :     0.011355

             **** THE GBW FILE WAS UPDATED (fukui_kation.gbw) ****
             **** DENSITY fukui_kation.scfp WAS UPDATED ****
----------------
ORBITAL ENERGIES
----------------
                 SPIN UP ORBITALS
  NO   OCC          E(Eh)            E(eV) 
   0   1.0000     -10.435287      -283.9586 
   1   1.0000     -10.420422      -283.5541 
   2   1.0000     -10.397314      -282.9253 
   3   1.0000     -10.394775      -282.8562 
   4   1.0000     -10.392531      -282.7951 
   5   1.0000     -10.389760      -282.7197 
   6   1.0000     -10.358438      -281.8674 
   7   1.0000      -1.082172       -29.4474 
   8   1.0000      -0.993688       -27.0396 
   9   1.0000      -0.955926       -26.0121 
  10   1.0000      -0.888444       -24.1758 
  11   1.0000      -0.820136       -22.3170 
  12   1.0000      -0.793273       -21.5861 
  13   1.0000      -0.717857       -19.5339 
  14   1.0000      -0.676498       -18.4084 
  15   1.0000      -0.652912       -17.7666 
  16   1.0000      -0.623107       -16.9556 
  17   1.0000      -0.623028       -16.9534 
  18   1.0000      -0.621146       -16.9023 
  19   1.0000      -0.572228       -15.5711 
  20   1.0000      -0.571777       -15.5588 
  21   1.0000      -0.551206       -14.9991 
  22   1.0000      -0.546810       -14.8794 
  23   1.0000      -0.480625       -13.0785 
  24   1.0000      -0.465534       -12.6678 
  25   0.0000      -0.238017        -6.4768 
  26   0.0000      -0.222333        -6.0500 
  27   0.0000      -0.129204        -3.5158 
  28   0.0000      -0.109728        -2.9859 
  29   0.0000      -0.097589        -2.6555 
  30   0.0000      -0.085587        -2.3289 
  31   0.0000      -0.082370        -2.2414 
  32   0.0000      -0.072696        -1.9782 
  33   0.0000      -0.065034        -1.7697 
  34   0.0000      -0.051348        -1.3973 
  35   0.0000      -0.046150        -1.2558 
  36   0.0000      -0.036482        -0.9927 
  37   0.0000      -0.035726        -0.9722 
  38   0.0000      -0.018694        -0.5087 
  39   0.0000      -0.010248        -0.2789 
  40   0.0000      -0.006074        -0.1653 
  41   0.0000       0.013331         0.3628 
  42   0.0000       0.013857         0.3771 
  43   0.0000       0.024313         0.6616 
  44   0.0000       0.039841         1.0841 
  45   0.0000       0.040457         1.1009 
  46   0.0000       0.056359         1.5336 
  47   0.0000       0.071548         1.9469 
  48   0.0000       0.081219         2.2101 
  49   0.0000       0.087544         2.3822 
  50   0.0000       0.090574         2.4646 
  51   0.0000       0.095532         2.5995 
  52   0.0000       0.108976         2.9654 
  53   0.0000       0.115251         3.1361 
  54   0.0000       0.120059         3.2670 
  55   0.0000       0.133252         3.6260 
  56   0.0000       0.148049         4.0286 
  57   0.0000       0.155823         4.2402 
  58   0.0000       0.161026         4.3817 
  59   0.0000       0.165379         4.5002 
  60   0.0000       0.176176         4.7940 
  61   0.0000       0.177546         4.8313 
  62   0.0000       0.182487         4.9657 
  63   0.0000       0.187565         5.1039 
  64   0.0000       0.202836         5.5194 
  65   0.0000       0.218445         5.9442 
  66   0.0000       0.232807         6.3350 
  67   0.0000       0.251433         6.8418 
  68   0.0000       0.261955         7.1282 
  69   0.0000       0.265092         7.2135 
  70   0.0000       0.285893         7.7795 
  71   0.0000       0.297421         8.0932 
  72   0.0000       0.307160         8.3583 
  73   0.0000       0.325068         8.8455 
  74   0.0000       0.326445         8.8830 
  75   0.0000       0.345383         9.3984 
  76   0.0000       0.347197         9.4477 
  77   0.0000       0.352540         9.5931 
  78   0.0000       0.352914         9.6033 
  79   0.0000       0.359968         9.7952 
  80   0.0000       0.382140        10.3986 
  81   0.0000       0.393696        10.7130 
  82   0.0000       0.404837        11.0162 
  83   0.0000       0.416293        11.3279 
  84   0.0000       0.437433        11.9031 
  85   0.0000       0.449920        12.2429 
  86   0.0000       0.454103        12.3568 
  87   0.0000       0.468170        12.7396 
  88   0.0000       0.486130        13.2283 
  89   0.0000       0.492626        13.4050 
  90   0.0000       0.494250        13.4492 
  91   0.0000       0.515059        14.0155 
  92   0.0000       0.528929        14.3929 
  93   0.0000       0.530881        14.4460 
  94   0.0000       0.546848        14.8805 
  95   0.0000       0.554014        15.0755 
  96   0.0000       0.562691        15.3116 
  97   0.0000       0.569428        15.4949 
  98   0.0000       0.576412        15.6850 
  99   0.0000       0.578362        15.7380 
 100   0.0000       0.585049        15.9200 
 101   0.0000       0.589573        16.0431 
 102   0.0000       0.627443        17.0736 
 103   0.0000       0.636634        17.3237 
 104   0.0000       0.649931        17.6855 
 105   0.0000       0.654661        17.8142 
 106   0.0000       0.663798        18.0629 
 107   0.0000       0.664221        18.0744 
 108   0.0000       0.681721        18.5506 
 109   0.0000       0.697489        18.9796 
 110   0.0000       0.701265        19.0824 
 111   0.0000       0.716989        19.5103 
 112   0.0000       0.718160        19.5421 
 113   0.0000       0.721366        19.6294 
 114   0.0000       0.724490        19.7144 
 115   0.0000       0.735716        20.0198 
 116   0.0000       0.744205        20.2509 
 117   0.0000       0.748415        20.3654 
 118   0.0000       0.781631        21.2693 
 119   0.0000       0.803599        21.8670 
 120   0.0000       0.806300        21.9405 
 121   0.0000       0.815572        22.1928 
 122   0.0000       0.828565        22.5464 
 123   0.0000       0.834652        22.7120 
 124   0.0000       0.835746        22.7418 
 125   0.0000       0.844969        22.9928 
 126   0.0000       0.857205        23.3257 
 127   0.0000       0.876946        23.8629 
 128   0.0000       0.881596        23.9895 
 129   0.0000       0.886257        24.1163 
 130   0.0000       0.890903        24.2427 
 131   0.0000       0.906884        24.6776 
 132   0.0000       0.919663        25.0253 
 133   0.0000       0.945300        25.7229 
 134   0.0000       0.946783        25.7633 
 135   0.0000       0.948738        25.8165 
 136   0.0000       0.963891        26.2288 
 137   0.0000       0.982099        26.7243 
 138   0.0000       0.994652        27.0659 
 139   0.0000       1.043690        28.4003 
 140   0.0000       1.052604        28.6428 
 141   0.0000       1.066834        29.0300 
 142   0.0000       1.068297        29.0698 
 143   0.0000       1.072201        29.1761 
 144   0.0000       1.098271        29.8855 
 145   0.0000       1.111793        30.2534 
 146   0.0000       1.128543        30.7092 
 147   0.0000       1.150162        31.2975 
 148   0.0000       1.179704        32.1014 
 149   0.0000       1.180449        32.1217 
 150   0.0000       1.221914        33.2500 
 151   0.0000       1.249134        33.9907 
 152   0.0000       1.258177        34.2367 
 153   0.0000       1.272515        34.6269 
 154   0.0000       1.295331        35.2478 
 155   0.0000       1.316393        35.8209 
 156   0.0000       1.344026        36.5728 
 157   0.0000       1.364419        37.1277 
 158   0.0000       1.376584        37.4587 
 159   0.0000       1.383270        37.6407 
 160   0.0000       1.413706        38.4689 
 161   0.0000       1.423091        38.7243 
 162   0.0000       1.440195        39.1897 
 163   0.0000       1.462358        39.7928 
 164   0.0000       1.481086        40.3024 
 165   0.0000       1.505776        40.9742 
 166   0.0000       1.510161        41.0936 
 167   0.0000       1.522548        41.4306 
 168   0.0000       1.549162        42.1548 
 169   0.0000       1.551821        42.2272 
 170   0.0000       1.557386        42.3786 
 171   0.0000       1.586319        43.1659 
 172   0.0000       1.598899        43.5083 
 173   0.0000       1.605871        43.6980 
 174   0.0000       1.606039        43.7026 
 175   0.0000       1.617462        44.0134 
 176   0.0000       1.625737        44.2385 
 177   0.0000       1.664614        45.2964 
 178   0.0000       1.667108        45.3643 
 179   0.0000       1.693181        46.0738 
 180   0.0000       1.695248        46.1300 
 181   0.0000       1.714311        46.6488 
 182   0.0000       1.717346        46.7314 
 183   0.0000       1.732865        47.1537 
 184   0.0000       1.740171        47.3525 
 185   0.0000       1.757380        47.8207 
 186   0.0000       1.763068        47.9755 
 187   0.0000       1.765102        48.0309 
 188   0.0000       1.785238        48.5788 
 189   0.0000       1.796716        48.8911 
 190   0.0000       1.803162        49.0665 
 191   0.0000       1.814473        49.3743 
 192   0.0000       1.834487        49.9189 
 193   0.0000       1.835911        49.9577 
 194   0.0000       1.860625        50.6302 
 195   0.0000       1.871038        50.9135 
 196   0.0000       1.879042        51.1313 
 197   0.0000       1.887508        51.3617 
 198   0.0000       1.888777        51.3962 
 199   0.0000       1.913853        52.0786 
 200   0.0000       1.915979        52.1364 
 201   0.0000       1.925860        52.4053 
 202   0.0000       1.933865        52.6232 
 203   0.0000       1.944001        52.8990 
 204   0.0000       1.953305        53.1521 
 205   0.0000       1.974564        53.7306 
 206   0.0000       1.993400        54.2432 
 207   0.0000       1.998326        54.3772 
 208   0.0000       1.999575        54.4112 
 209   0.0000       2.015646        54.8485 
 210   0.0000       2.028787        55.2061 
 211   0.0000       2.054240        55.8987 
 212   0.0000       2.067423        56.2574 
 213   0.0000       2.076847        56.5139 
 214   0.0000       2.077019        56.5186 
 215   0.0000       2.093254        56.9604 
 216   0.0000       2.094490        56.9940 
 217   0.0000       2.099863        57.1402 
 218   0.0000       2.111242        57.4498 
 219   0.0000       2.139895        58.2295 
 220   0.0000       2.141318        58.2682 
 221   0.0000       2.169726        59.0412 
 222   0.0000       2.192413        59.6586 
 223   0.0000       2.195431        59.7407 
 224   0.0000       2.201093        59.8948 
 225   0.0000       2.219669        60.4003 
 226   0.0000       2.237769        60.8928 
 227   0.0000       2.253571        61.3228 
 228   0.0000       2.258323        61.4521 
 229   0.0000       2.265233        61.6401 
 230   0.0000       2.268467        61.7281 
 231   0.0000       2.298516        62.5458 
 232   0.0000       2.299493        62.5724 
 233   0.0000       2.314358        62.9769 
 234   0.0000       2.319453        63.1155 
 235   0.0000       2.330360        63.4123 
 236   0.0000       2.356102        64.1128 
 237   0.0000       2.360247        64.2256 
 238   0.0000       2.368052        64.4380 
 239   0.0000       2.391018        65.0629 
 240   0.0000       2.391251        65.0692 
 241   0.0000       2.409446        65.5644 
 242   0.0000       2.419461        65.8369 
 243   0.0000       2.422173        65.9107 
 244   0.0000       2.427268        66.0493 
 245   0.0000       2.429603        66.1129 
 246   0.0000       2.445566        66.5472 
 247   0.0000       2.447378        66.5965 
 248   0.0000       2.461930        66.9925 
 249   0.0000       2.490952        67.7823 
 250   0.0000       2.507381        68.2293 
 251   0.0000       2.516198        68.4692 
 252   0.0000       2.528420        68.8018 
 253   0.0000       2.542276        69.1789 
 254   0.0000       2.557284        69.5872 
 255   0.0000       2.562254        69.7225 
 256   0.0000       2.568227        69.8850 
 257   0.0000       2.591379        70.5150 
 258   0.0000       2.605217        70.8915 
 259   0.0000       2.617317        71.2208 
 260   0.0000       2.626681        71.4756 
 261   0.0000       2.633722        71.6672 
 262   0.0000       2.650906        72.1348 
 263   0.0000       2.654457        72.2315 
 264   0.0000       2.666877        72.5694 
 265   0.0000       2.694192        73.3127 
 266   0.0000       2.706386        73.6445 
 267   0.0000       2.742538        74.6282 
 268   0.0000       2.745860        74.7186 
 269   0.0000       2.755341        74.9766 
 270   0.0000       2.773310        75.4656 
 271   0.0000       2.796434        76.0948 
 272   0.0000       2.818346        76.6911 
 273   0.0000       2.841514        77.3215 
 274   0.0000       2.854106        77.6642 
 275   0.0000       2.894229        78.7560 
 276   0.0000       2.898631        78.8757 
 277   0.0000       2.906875        79.1001 
 278   0.0000       2.932908        79.8085 
 279   0.0000       2.954256        80.3894 
 280   0.0000       2.961289        80.5808 
 281   0.0000       2.977417        81.0196 
 282   0.0000       2.999866        81.6305 
 283   0.0000       3.011862        81.9569 
 284   0.0000       3.033528        82.5465 
 285   0.0000       3.062917        83.3462 
 286   0.0000       3.095365        84.2292 
 287   0.0000       3.105103        84.4941 
 288   0.0000       3.112597        84.6981 
 289   0.0000       3.144335        85.5617 
 290   0.0000       3.162625        86.0594 
 291   0.0000       3.165183        86.1290 
 292   0.0000       3.166716        86.1707 
 293   0.0000       3.217206        87.5446 
 294   0.0000       3.227570        87.8266 
 295   0.0000       3.240241        88.1714 
 296   0.0000       3.240767        88.1858 
 297   0.0000       3.261311        88.7448 
 298   0.0000       3.267858        88.9229 
 299   0.0000       3.286123        89.4200 
 300   0.0000       3.294698        89.6533 
 301   0.0000       3.308608        90.0318 
 302   0.0000       3.329396        90.5975 
 303   0.0000       3.350720        91.1777 
 304   0.0000       3.375083        91.8407 
 305   0.0000       3.383291        92.0640 
 306   0.0000       3.412003        92.8453 
 307   0.0000       3.427742        93.2736 
 308   0.0000       3.477474        94.6269 
 309   0.0000       3.481263        94.7300 
 310   0.0000       3.578325        97.3712 
 311   0.0000       3.582868        97.4948 
 312   0.0000       3.594393        97.8084 
 313   0.0000       3.594419        97.8091 
 314   0.0000       3.642437        99.1157 
 315   0.0000       3.654002        99.4304 
 316   0.0000       3.687870       100.3520 
 317   0.0000       3.691423       100.4487 
 318   0.0000       3.735812       101.6566 
 319   0.0000       3.759951       102.3135 
 320   0.0000       3.853693       104.8643 
 321   0.0000       3.865395       105.1827 
 322   0.0000       3.873658       105.4076 
 323   0.0000       3.917465       106.5997 
 324   0.0000       3.920509       106.6825 
 325   0.0000       3.938252       107.1653 
 326   0.0000       3.972262       108.0907 
 327   0.0000       4.002157       108.9042 
 328   0.0000       4.063442       110.5719 
 329   0.0000       4.113704       111.9396 
 330   0.0000       4.141491       112.6957 
 331   0.0000       4.202132       114.3458 
 332   0.0000       4.276184       116.3609 
 333   0.0000       4.303044       117.0918 
 334   0.0000       4.359045       118.6157 
 335   0.0000       4.364593       118.7666 
 336   0.0000       4.456880       121.2779 
 337   0.0000       4.496166       122.3469 
 338   0.0000       4.528666       123.2313 
 339   0.0000       4.562355       124.1480 
 340   0.0000       4.577278       124.5541 
 341   0.0000       4.630711       126.0081 
 342   0.0000       4.652867       126.6110 
 343   0.0000       4.673625       127.1758 
 344   0.0000       4.719118       128.4137 
 345   0.0000       4.777594       130.0049 
 346   0.0000       4.808522       130.8465 
 347   0.0000       4.814882       131.0196 
 348   0.0000       4.841399       131.7412 
 349   0.0000       4.867911       132.4626 
 350   0.0000       4.883522       132.8874 
 351   0.0000       4.889292       133.0444 
 352   0.0000       4.916238       133.7776 
 353   0.0000       4.926131       134.0468 
 354   0.0000       4.970541       135.2553 
 355   0.0000       4.994617       135.9104 
 356   0.0000       5.009717       136.3213 
 357   0.0000       5.022567       136.6710 
 358   0.0000       5.032620       136.9446 
 359   0.0000       5.039648       137.1358 
 360   0.0000       5.084725       138.3624 
 361   0.0000       5.136029       139.7585 
 362   0.0000       5.150441       140.1506 
 363   0.0000       5.169368       140.6657 
 364   0.0000       5.171014       140.7104 
 365   0.0000       5.185855       141.1143 
 366   0.0000       5.198755       141.4653 
 367   0.0000       5.241017       142.6153 
 368   0.0000       5.246680       142.7694 
 369   0.0000       5.271041       143.4323 
 370   0.0000       5.289632       143.9382 
 371   0.0000       5.302432       144.2865 
 372   0.0000       5.310259       144.4995 
 373   0.0000       5.336352       145.2095 
 374   0.0000       5.340781       145.3300 
 375   0.0000       5.365982       146.0158 
 376   0.0000       5.404883       147.0743 
 377   0.0000       5.426369       147.6590 
 378   0.0000       5.456700       148.4844 
 379   0.0000       5.484297       149.2353 
 380   0.0000       5.505096       149.8013 
 381   0.0000       5.529364       150.4617 
 382   0.0000       5.554144       151.1359 
 383   0.0000       5.585523       151.9898 
 384   0.0000       5.590190       152.1168 
 385   0.0000       5.610925       152.6810 
 386   0.0000       5.613047       152.7388 
 387   0.0000       5.615108       152.7948 
 388   0.0000       5.651532       153.7860 
 389   0.0000       5.665745       154.1727 
 390   0.0000       5.676055       154.4533 
 391   0.0000       5.687701       154.7702 
 392   0.0000       5.694399       154.9525 
 393   0.0000       5.712928       155.4567 
 394   0.0000       5.719286       155.6297 
 395   0.0000       5.745978       156.3560 
 396   0.0000       5.760630       156.7547 
 397   0.0000       5.762897       156.8164 
 398   0.0000       5.771616       157.0537 
 399   0.0000       5.784192       157.3959 
 400   0.0000       5.790943       157.5796 
 401   0.0000       5.806816       158.0115 
 402   0.0000       5.816677       158.2798 
 403   0.0000       5.830365       158.6523 
 404   0.0000       5.836632       158.8228 
 405   0.0000       5.848171       159.1368 
 406   0.0000       5.856970       159.3763 
 407   0.0000       5.881628       160.0472 
 408   0.0000       5.891044       160.3035 
 409   0.0000       5.898670       160.5110 
 410   0.0000       5.915532       160.9698 
 411   0.0000       5.922646       161.1634 
 412   0.0000       5.933967       161.4715 
 413   0.0000       5.939578       161.6241 
 414   0.0000       5.949098       161.8832 
 415   0.0000       5.954330       162.0256 
 416   0.0000       5.981403       162.7622 
 417   0.0000       6.000815       163.2905 
 418   0.0000       6.012991       163.6218 
 419   0.0000       6.016708       163.7230 
 420   0.0000       6.024392       163.9320 
 421   0.0000       6.040961       164.3829 
 422   0.0000       6.058153       164.8507 
 423   0.0000       6.064393       165.0205 
 424   0.0000       6.070228       165.1793 
 425   0.0000       6.085690       165.6001 
 426   0.0000       6.088331       165.6719 
 427   0.0000       6.101786       166.0380 
 428   0.0000       6.110402       166.2725 
 429   0.0000       6.134357       166.9243 
 430   0.0000       6.142631       167.1495 
 431   0.0000       6.158668       167.5859 
 432   0.0000       6.188515       168.3981 
 433   0.0000       6.213306       169.0727 
 434   0.0000       6.214068       169.0934 
 435   0.0000       6.220433       169.2666 
 436   0.0000       6.230136       169.5306 
 437   0.0000       6.239756       169.7924 
 438   0.0000       6.252188       170.1307 
 439   0.0000       6.270660       170.6333 
 440   0.0000       6.307436       171.6340 
 441   0.0000       6.309057       171.6782 
 442   0.0000       6.319212       171.9545 
 443   0.0000       6.358811       173.0320 
 444   0.0000       6.365289       173.2083 
 445   0.0000       6.382187       173.6681 
 446   0.0000       6.388255       173.8332 
 447   0.0000       6.401837       174.2028 
 448   0.0000       6.408681       174.3891 
 449   0.0000       6.428630       174.9319 
 450   0.0000       6.435614       175.1220 
 451   0.0000       6.450716       175.5329 
 452   0.0000       6.463966       175.8935 
 453   0.0000       6.471646       176.1024 
 454   0.0000       6.477203       176.2536 
 455   0.0000       6.508292       177.0996 
 456   0.0000       6.515161       177.2865 
 457   0.0000       6.517598       177.3529 
 458   0.0000       6.520210       177.4239 
 459   0.0000       6.539715       177.9547 
 460   0.0000       6.557127       178.4285 
 461   0.0000       6.621286       180.1744 
 462   0.0000       6.624051       180.2496 
 463   0.0000       6.633674       180.5114 
 464   0.0000       6.690221       182.0502 
 465   0.0000       6.702558       182.3859 
 466   0.0000       6.718263       182.8132 
 467   0.0000       6.738849       183.3734 
 468   0.0000       6.739141       183.3814 
 469   0.0000       6.797642       184.9732 
 470   0.0000       6.804855       185.1695 
 471   0.0000       6.826061       185.7466 
 472   0.0000       6.827313       185.7806 
 473   0.0000       6.852734       186.4724 
 474   0.0000       6.860317       186.6787 
 475   0.0000       6.901805       187.8077 
 476   0.0000       6.945216       188.9889 
 477   0.0000       6.964733       189.5200 
 478   0.0000       6.967989       189.6086 
 479   0.0000       6.969048       189.6374 
 480   0.0000       7.029620       191.2857 
 481   0.0000       7.094893       193.0619 
 482   0.0000       7.111098       193.5028 
 483   0.0000       7.140483       194.3024 
 484   0.0000       7.153396       194.6538 
 485   0.0000       7.182572       195.4477 
 486   0.0000       7.188669       195.6136 
 487   0.0000       7.201143       195.9531 
 488   0.0000       7.210719       196.2136 
 489   0.0000       7.235447       196.8865 
 490   0.0000       7.246424       197.1852 
 491   0.0000       7.260751       197.5751 
 492   0.0000       7.264087       197.6659 
 493   0.0000       7.280485       198.1121 
 494   0.0000       7.308194       198.8661 
 495   0.0000       7.324502       199.3098 
 496   0.0000       7.334094       199.5708 
 497   0.0000       7.343107       199.8161 
 498   0.0000       7.363836       200.3802 
 499   0.0000       7.409827       201.6317 
 500   0.0000       7.426758       202.0924 
 501   0.0000       7.433401       202.2731 
 502   0.0000       7.445045       202.5900 
 503   0.0000       7.470078       203.2712 
 504   0.0000       7.482375       203.6058 
 505   0.0000       7.515959       204.5196 
 506   0.0000       7.533169       204.9879 
 507   0.0000       7.542071       205.2302 
 508   0.0000       7.547121       205.3676 
 509   0.0000       7.559675       205.7092 
 510   0.0000       7.581803       206.3114 
 511   0.0000       7.618588       207.3123 
 512   0.0000       7.647038       208.0865 
 513   0.0000       7.683612       209.0817 
 514   0.0000       7.701713       209.5743 
 515   0.0000       7.701736       209.5749 
 516   0.0000       7.715471       209.9486 
 517   0.0000       7.740160       210.6205 
 518   0.0000       7.746136       210.7831 
 519   0.0000       7.770235       211.4389 
 520   0.0000       7.784006       211.8136 
 521   0.0000       7.794502       212.0992 
 522   0.0000       7.844518       213.4602 
 523   0.0000       7.873536       214.2498 
 524   0.0000       7.886210       214.5947 
 525   0.0000       7.910877       215.2659 
 526   0.0000       7.929655       215.7769 
 527   0.0000       7.936762       215.9703 
 528   0.0000       7.956268       216.5010 
 529   0.0000       7.962154       216.6612 
 530   0.0000       8.003198       217.7781 
 531   0.0000       8.015664       218.1173 
 532   0.0000       8.034469       218.6290 
 533   0.0000       8.037937       218.7234 
 534   0.0000       8.049670       219.0426 
 535   0.0000       8.054259       219.1675 
 536   0.0000       8.060571       219.3393 
 537   0.0000       8.095491       220.2895 
 538   0.0000       8.101313       220.4479 
 539   0.0000       8.124667       221.0834 
 540   0.0000       8.127674       221.1653 
 541   0.0000       8.145062       221.6384 
 542   0.0000       8.162264       222.1065 
 543   0.0000       8.170535       222.3316 
 544   0.0000       8.176697       222.4992 
 545   0.0000       8.179853       222.5851 
 546   0.0000       8.197209       223.0574 
 547   0.0000       8.199722       223.1258 
 548   0.0000       8.205904       223.2940 
 549   0.0000       8.217978       223.6226 
 550   0.0000       8.219267       223.6576 
 551   0.0000       8.271197       225.0707 
 552   0.0000       8.294920       225.7163 
 553   0.0000       8.310371       226.1367 
 554   0.0000       8.325101       226.5375 
 555   0.0000       8.326232       226.5683 
 556   0.0000       8.348046       227.1619 
 557   0.0000       8.384038       228.1413 
 558   0.0000       8.407199       228.7715 
 559   0.0000       8.415404       228.9948 
 560   0.0000       8.436722       229.5749 
 561   0.0000       8.447144       229.8585 
 562   0.0000       8.458975       230.1804 
 563   0.0000       8.477909       230.6956 
 564   0.0000       8.518403       231.7975 
 565   0.0000       8.563942       233.0367 
 566   0.0000       8.575437       233.3495 
 567   0.0000       8.614090       234.4013 
 568   0.0000       8.616370       234.4634 
 569   0.0000       8.625885       234.7223 
 570   0.0000       8.671938       235.9754 
 571   0.0000       8.700285       236.7468 
 572   0.0000       8.730458       237.5678 
 573   0.0000       8.749273       238.0798 
 574   0.0000       8.762574       238.4418 
 575   0.0000       8.774412       238.7639 
 576   0.0000       8.831631       240.3209 
 577   0.0000       8.861416       241.1314 
 578   0.0000       8.870276       241.3725 
 579   0.0000       8.939140       243.2464 
 580   0.0000       9.142248       248.7732 
 581   0.0000       9.223767       250.9915 
 582   0.0000       9.247723       251.6433 
 583   0.0000       9.259761       251.9709 
 584   0.0000       9.333509       253.9777 
 585   0.0000       9.426320       256.5032 
 586   0.0000       9.444291       256.9922 
 587   0.0000       9.460970       257.4461 
 588   0.0000       9.470993       257.7188 
 589   0.0000       9.507811       258.7207 
 590   0.0000       9.534531       259.4478 
 591   0.0000       9.571775       260.4612 
 592   0.0000       9.579171       260.6625 
 593   0.0000       9.607180       261.4247 
 594   0.0000       9.627636       261.9813 
 595   0.0000       9.664358       262.9805 
 596   0.0000       9.679744       263.3992 
 597   0.0000       9.708859       264.1915 
 598   0.0000       9.754383       265.4302 
 599   0.0000       9.790211       266.4052 
 600   0.0000       9.804049       266.7817 
 601   0.0000       9.844930       267.8942 
 602   0.0000       9.859592       268.2931 
 603   0.0000       9.889462       269.1059 
 604   0.0000       9.997466       272.0449 
 605   0.0000      10.019941       272.6565 
 606   0.0000      10.023794       272.7613 
 607   0.0000      10.041334       273.2386 
 608   0.0000      10.086411       274.4652 
 609   0.0000      10.181587       277.0551 
 610   0.0000      10.247785       278.8564 
 611   0.0000      10.305362       280.4232 
 612   0.0000      10.435216       283.9567 
 613   0.0000      10.457643       284.5669 
 614   0.0000      10.533659       286.6354 
 615   0.0000      10.694006       290.9987 
 616   0.0000      11.396077       310.1030 
 617   0.0000      11.668649       317.5201 
 618   0.0000      11.863943       322.8343 
 619   0.0000      12.032003       327.4075 
 620   0.0000      12.372177       336.6641 
 621   0.0000      12.467076       339.2464 
 622   0.0000      12.642842       344.0292 
 623   0.0000      12.906588       351.2061 
 624   0.0000      13.029669       354.5553 
 625   0.0000      27.683782       753.3140 
 626   0.0000      28.165042       766.4097 
 627   0.0000      28.279163       769.5151 
 628   0.0000      28.583829       777.8055 
 629   0.0000      28.754479       782.4492 
 630   0.0000      28.874217       785.7074 
 631   0.0000      29.065938       790.9244 
 632   0.0000     146.762089      3993.5995 
 633   0.0000     147.220878      4006.0837 
 634   0.0000     147.322210      4008.8411 
 635   0.0000     147.593177      4016.2145 
 636   0.0000     147.758754      4020.7201 
 637   0.0000     147.929650      4025.3704 
 638   0.0000     148.097234      4029.9306 

                 SPIN DOWN ORBITALS
  NO   OCC          E(Eh)            E(eV) 
   0   1.0000     -10.429711      -283.8069 
   1   1.0000     -10.414333      -283.3884 
   2   1.0000     -10.395590      -282.8784 
   3   1.0000     -10.394453      -282.8474 
   4   1.0000     -10.391748      -282.7738 
   5   1.0000     -10.390289      -282.7341 
   6   1.0000     -10.358296      -281.8636 
   7   1.0000      -1.071485       -29.1566 
   8   1.0000      -0.979106       -26.6428 
   9   1.0000      -0.953328       -25.9414 
  10   1.0000      -0.881609       -23.9898 
  11   1.0000      -0.814477       -22.1631 
  12   1.0000      -0.786525       -21.4024 
  13   1.0000      -0.714943       -19.4546 
  14   1.0000      -0.672761       -18.3068 
  15   1.0000      -0.649426       -17.6718 
  16   1.0000      -0.622343       -16.9348 
  17   1.0000      -0.616861       -16.7856 
  18   1.0000      -0.602654       -16.3990 
  19   1.0000      -0.570475       -15.5234 
  20   1.0000      -0.549340       -14.9483 
  21   1.0000      -0.548336       -14.9210 
  22   1.0000      -0.543713       -14.7952 
  23   1.0000      -0.459664       -12.5081 
  24   0.0000      -0.394487       -10.7345 
  25   0.0000      -0.209892        -5.7114 
  26   0.0000      -0.202469        -5.5095 
  27   0.0000      -0.128517        -3.4971 
  28   0.0000      -0.108426        -2.9504 
  29   0.0000      -0.097556        -2.6546 
  30   0.0000      -0.080837        -2.1997 
  31   0.0000      -0.073583        -2.0023 
  32   0.0000      -0.070637        -1.9221 
  33   0.0000      -0.064542        -1.7563 
  34   0.0000      -0.049622        -1.3503 
  35   0.0000      -0.040153        -1.0926 
  36   0.0000      -0.034928        -0.9504 
  37   0.0000      -0.029651        -0.8068 
  38   0.0000      -0.017405        -0.4736 
  39   0.0000      -0.007855        -0.2137 
  40   0.0000      -0.004308        -0.1172 
  41   0.0000       0.014207         0.3866 
  42   0.0000       0.015725         0.4279 
  43   0.0000       0.026208         0.7131 
  44   0.0000       0.041184         1.1207 
  45   0.0000       0.043454         1.1825 
  46   0.0000       0.057443         1.5631 
  47   0.0000       0.076025         2.0687 
  48   0.0000       0.086556         2.3553 
  49   0.0000       0.089169         2.4264 
  50   0.0000       0.092734         2.5234 
  51   0.0000       0.098616         2.6835 
  52   0.0000       0.112019         3.0482 
  53   0.0000       0.116530         3.1710 
  54   0.0000       0.127453         3.4682 
  55   0.0000       0.136435         3.7126 
  56   0.0000       0.149115         4.0576 
  57   0.0000       0.157301         4.2804 
  58   0.0000       0.162588         4.4242 
  59   0.0000       0.171157         4.6574 
  60   0.0000       0.178592         4.8597 
  61   0.0000       0.181039         4.9263 
  62   0.0000       0.188190         5.1209 
  63   0.0000       0.188203         5.1213 
  64   0.0000       0.203448         5.5361 
  65   0.0000       0.219629         5.9764 
  66   0.0000       0.234026         6.3682 
  67   0.0000       0.252702         6.8764 
  68   0.0000       0.263541         7.1713 
  69   0.0000       0.266343         7.2475 
  70   0.0000       0.286607         7.7990 
  71   0.0000       0.300929         8.1887 
  72   0.0000       0.313516         8.5312 
  73   0.0000       0.326807         8.8929 
  74   0.0000       0.328960         8.9514 
  75   0.0000       0.348225         9.4757 
  76   0.0000       0.351511         9.5651 
  77   0.0000       0.353722         9.6253 
  78   0.0000       0.354030         9.6336 
  79   0.0000       0.362607         9.8671 
  80   0.0000       0.384138        10.4529 
  81   0.0000       0.397681        10.8215 
  82   0.0000       0.406663        11.0659 
  83   0.0000       0.420165        11.4333 
  84   0.0000       0.439158        11.9501 
  85   0.0000       0.452268        12.3068 
  86   0.0000       0.458096        12.4654 
  87   0.0000       0.472009        12.8440 
  88   0.0000       0.489739        13.3265 
  89   0.0000       0.494164        13.4469 
  90   0.0000       0.496067        13.4987 
  91   0.0000       0.517272        14.0757 
  92   0.0000       0.532360        14.4863 
  93   0.0000       0.533703        14.5228 
  94   0.0000       0.548558        14.9270 
  95   0.0000       0.558832        15.2066 
  96   0.0000       0.564370        15.3573 
  97   0.0000       0.578727        15.7480 
  98   0.0000       0.580128        15.7861 
  99   0.0000       0.583935        15.8897 
 100   0.0000       0.587990        16.0000 
 101   0.0000       0.593000        16.1363 
 102   0.0000       0.637818        17.3559 
 103   0.0000       0.638732        17.3808 
 104   0.0000       0.652117        17.7450 
 105   0.0000       0.657290        17.8858 
 106   0.0000       0.665922        18.1207 
 107   0.0000       0.666763        18.1436 
 108   0.0000       0.683130        18.5889 
 109   0.0000       0.702037        19.1034 
 110   0.0000       0.702764        19.1232 
 111   0.0000       0.718521        19.5519 
 112   0.0000       0.721081        19.6216 
 113   0.0000       0.722960        19.6727 
 114   0.0000       0.733076        19.9480 
 115   0.0000       0.737364        20.0647 
 116   0.0000       0.747278        20.3345 
 117   0.0000       0.750476        20.4215 
 118   0.0000       0.783222        21.3125 
 119   0.0000       0.808636        22.0041 
 120   0.0000       0.808740        22.0069 
 121   0.0000       0.816438        22.2164 
 122   0.0000       0.831325        22.6215 
 123   0.0000       0.838836        22.8259 
 124   0.0000       0.839949        22.8562 
 125   0.0000       0.848079        23.0774 
 126   0.0000       0.858781        23.3686 
 127   0.0000       0.878890        23.9158 
 128   0.0000       0.884672        24.0731 
 129   0.0000       0.891591        24.2614 
 130   0.0000       0.897510        24.4225 
 131   0.0000       0.909362        24.7450 
 132   0.0000       0.927871        25.2486 
 133   0.0000       0.946633        25.7592 
 134   0.0000       0.949184        25.8286 
 135   0.0000       0.950353        25.8604 
 136   0.0000       0.966086        26.2885 
 137   0.0000       0.984775        26.7971 
 138   0.0000       1.000094        27.2140 
 139   0.0000       1.045646        28.4535 
 140   0.0000       1.053811        28.6756 
 141   0.0000       1.070886        29.1403 
 142   0.0000       1.071933        29.1688 
 143   0.0000       1.073930        29.2231 
 144   0.0000       1.100454        29.9449 
 145   0.0000       1.117116        30.3983 
 146   0.0000       1.130808        30.7709 
 147   0.0000       1.151755        31.3408 
 148   0.0000       1.181015        32.1371 
 149   0.0000       1.182232        32.1702 
 150   0.0000       1.224227        33.3129 
 151   0.0000       1.252293        34.0766 
 152   0.0000       1.261157        34.3178 
 153   0.0000       1.274803        34.6891 
 154   0.0000       1.296633        35.2832 
 155   0.0000       1.322139        35.9772 
 156   0.0000       1.346765        36.6473 
 157   0.0000       1.365035        37.1445 
 158   0.0000       1.380702        37.5708 
 159   0.0000       1.389113        37.7997 
 160   0.0000       1.416682        38.5499 
 161   0.0000       1.431203        38.9450 
 162   0.0000       1.443434        39.2778 
 163   0.0000       1.465574        39.8803 
 164   0.0000       1.482789        40.3487 
 165   0.0000       1.508351        41.0443 
 166   0.0000       1.512601        41.1600 
 167   0.0000       1.529189        41.6114 
 168   0.0000       1.552130        42.2356 
 169   0.0000       1.553151        42.2634 
 170   0.0000       1.563191        42.5366 
 171   0.0000       1.593113        43.3508 
 172   0.0000       1.606605        43.7180 
 173   0.0000       1.607753        43.7492 
 174   0.0000       1.608053        43.7573 
 175   0.0000       1.627142        44.2768 
 176   0.0000       1.629537        44.3420 
 177   0.0000       1.666565        45.3495 
 178   0.0000       1.670519        45.4571 
 179   0.0000       1.700038        46.2604 
 180   0.0000       1.700547        46.2742 
 181   0.0000       1.720848        46.8267 
 182   0.0000       1.721576        46.8465 
 183   0.0000       1.738014        47.2938 
 184   0.0000       1.744171        47.4613 
 185   0.0000       1.758677        47.8560 
 186   0.0000       1.766525        48.0696 
 187   0.0000       1.769055        48.1384 
 188   0.0000       1.788980        48.6806 
 189   0.0000       1.798970        48.9525 
 190   0.0000       1.809458        49.2379 
 191   0.0000       1.820546        49.5396 
 192   0.0000       1.837922        50.0124 
 193   0.0000       1.844957        50.2038 
 194   0.0000       1.866825        50.7989 
 195   0.0000       1.873925        50.9921 
 196   0.0000       1.881451        51.1969 
 197   0.0000       1.891351        51.4663 
 198   0.0000       1.892248        51.4907 
 199   0.0000       1.919241        52.2252 
 200   0.0000       1.925173        52.3866 
 201   0.0000       1.929893        52.5151 
 202   0.0000       1.936870        52.7049 
 203   0.0000       1.946750        52.9738 
 204   0.0000       1.957384        53.2631 
 205   0.0000       1.979179        53.8562 
 206   0.0000       1.998475        54.3813 
 207   0.0000       2.001813        54.4721 
 208   0.0000       2.001883        54.4740 
 209   0.0000       2.019007        54.9400 
 210   0.0000       2.030219        55.2451 
 211   0.0000       2.057483        55.9870 
 212   0.0000       2.070594        56.3437 
 213   0.0000       2.080104        56.6025 
 214   0.0000       2.083265        56.6885 
 215   0.0000       2.094855        57.0039 
 216   0.0000       2.098174        57.0942 
 217   0.0000       2.106153        57.3113 
 218   0.0000       2.118512        57.6477 
 219   0.0000       2.143723        58.3337 
 220   0.0000       2.148032        58.4509 
 221   0.0000       2.174268        59.1648 
 222   0.0000       2.192981        59.6740 
 223   0.0000       2.200274        59.8725 
 224   0.0000       2.206131        60.0319 
 225   0.0000       2.232999        60.7630 
 226   0.0000       2.240807        60.9754 
 227   0.0000       2.257595        61.4323 
 228   0.0000       2.262692        61.5710 
 229   0.0000       2.269104        61.7455 
 230   0.0000       2.272670        61.8425 
 231   0.0000       2.303912        62.6926 
 232   0.0000       2.310703        62.8774 
 233   0.0000       2.320608        63.1469 
 234   0.0000       2.322192        63.1901 
 235   0.0000       2.339747        63.6678 
 236   0.0000       2.357869        64.1609 
 237   0.0000       2.365066        64.3567 
 238   0.0000       2.372201        64.5509 
 239   0.0000       2.392269        65.0969 
 240   0.0000       2.397138        65.2294 
 241   0.0000       2.412180        65.6387 
 242   0.0000       2.421964        65.9050 
 243   0.0000       2.425185        65.9926 
 244   0.0000       2.429859        66.1198 
 245   0.0000       2.435143        66.2636 
 246   0.0000       2.450606        66.6844 
 247   0.0000       2.452876        66.7461 
 248   0.0000       2.464255        67.0558 
 249   0.0000       2.494307        67.8736 
 250   0.0000       2.513353        68.3918 
 251   0.0000       2.519185        68.5505 
 252   0.0000       2.531496        68.8855 
 253   0.0000       2.545998        69.2801 
 254   0.0000       2.561343        69.6977 
 255   0.0000       2.564569        69.7855 
 256   0.0000       2.569950        69.9319 
 257   0.0000       2.594234        70.5927 
 258   0.0000       2.608163        70.9717 
 259   0.0000       2.620445        71.3059 
 260   0.0000       2.629018        71.5392 
 261   0.0000       2.635949        71.7278 
 262   0.0000       2.655805        72.2681 
 263   0.0000       2.656147        72.2774 
 264   0.0000       2.672615        72.7255 
 265   0.0000       2.696313        73.3704 
 266   0.0000       2.711300        73.7782 
 267   0.0000       2.744909        74.6928 
 268   0.0000       2.753012        74.9133 
 269   0.0000       2.760078        75.1056 
 270   0.0000       2.775969        75.5380 
 271   0.0000       2.802349        76.2558 
 272   0.0000       2.820432        76.7479 
 273   0.0000       2.848090        77.5005 
 274   0.0000       2.857407        77.7540 
 275   0.0000       2.897335        78.8405 
 276   0.0000       2.907626        79.1205 
 277   0.0000       2.908961        79.1569 
 278   0.0000       2.936278        79.9002 
 279   0.0000       2.959792        80.5400 
 280   0.0000       2.963455        80.6397 
 281   0.0000       2.984024        81.1994 
 282   0.0000       3.001915        81.6863 
 283   0.0000       3.015166        82.0469 
 284   0.0000       3.039750        82.7158 
 285   0.0000       3.071917        83.5911 
 286   0.0000       3.097212        84.2794 
 287   0.0000       3.109474        84.6131 
 288   0.0000       3.116613        84.8073 
 289   0.0000       3.149625        85.7056 
 290   0.0000       3.167741        86.1986 
 291   0.0000       3.169070        86.2348 
 292   0.0000       3.170411        86.2713 
 293   0.0000       3.222627        87.6921 
 294   0.0000       3.231682        87.9385 
 295   0.0000       3.242416        88.2306 
 296   0.0000       3.246638        88.3455 
 297   0.0000       3.262494        88.7770 
 298   0.0000       3.271652        89.0262 
 299   0.0000       3.291754        89.5732 
 300   0.0000       3.297682        89.7345 
 301   0.0000       3.311195        90.1022 
 302   0.0000       3.332031        90.6692 
[...]
      px      :     0.062121
      py      :     0.050105
      dz2     :     0.021614  d :     0.065069
      dxz     :     0.014053
      dyz     :     0.013129
      dx2y2   :     0.009975
      dxy     :     0.006297
      f0      :     0.002397  f :     0.008806
      f+1     :     0.001374
      f-1     :     0.001115
      f+2     :     0.001805
      f-2     :     0.001360
      f+3     :     0.000518
      f-3     :     0.000238
 10 H s       :     0.769100  s :     0.769100
      pz      :     0.043442  p :     0.178404
      px      :     0.083340
      py      :     0.051622
      dz2     :     0.004830  d :     0.061691
      dxz     :     0.013700
      dyz     :     0.004586
      dx2y2   :     0.021101
      dxy     :     0.017475
      f0      :     0.000910  f :     0.009003
      f+1     :     0.000816
      f-1     :     0.000391
      f+2     :     0.000453
      f-2     :     0.001111
      f+3     :     0.003325
      f-3     :     0.001998
 11 H s       :     0.774096  s :     0.774096
      pz      :     0.044788  p :     0.179913
      px      :     0.080916
      py      :     0.054208
      dz2     :     0.004830  d :     0.061574
      dxz     :     0.013234
      dyz     :     0.005447
      dx2y2   :     0.021486
      dxy     :     0.016577
      f0      :     0.000940  f :     0.009016
      f+1     :     0.000782
      f-1     :     0.000432
      f+2     :     0.000318
      f-2     :     0.001268
      f+3     :     0.003278
      f-3     :     0.001998
 12 H s       :     0.771331  s :     0.771331
      pz      :     0.034833  p :     0.174169
      px      :     0.040444
      py      :     0.098892
      dz2     :     0.004902  d :     0.059876
      dxz     :     0.000296
      dyz     :     0.015267
      dx2y2   :     0.015269
      dxy     :     0.024142
      f0      :     0.000786  f :     0.008877
      f+1     :     0.000244
      f-1     :     0.000992
      f+2     :     0.001315
      f-2     :     0.000044
      f+3     :     0.003455
      f-3     :     0.002041
 13 H s       :     0.773479  s :     0.773479
      pz      :     0.043241  p :     0.179057
      px      :     0.084145
      py      :     0.051671
      dz2     :     0.004843  d :     0.061289
      dxz     :     0.013716
      dyz     :     0.004432
      dx2y2   :     0.020774
      dxy     :     0.017524
      f0      :     0.000912  f :     0.008986
      f+1     :     0.000820
      f-1     :     0.000397
      f+2     :     0.000454
      f-2     :     0.001090
      f+3     :     0.003299
      f-3     :     0.002012
 14 H s       :     0.770704  s :     0.770704
      pz      :     0.045188  p :     0.179904
      px      :     0.080266
      py      :     0.054450
      dz2     :     0.004844  d :     0.062087
      dxz     :     0.013253
      dyz     :     0.005475
      dx2y2   :     0.021955
      dxy     :     0.016560
      f0      :     0.000937  f :     0.009039
      f+1     :     0.000780
      f-1     :     0.000428
      f+2     :     0.000320
      f-2     :     0.001276
      f+3     :     0.003303
      f-3     :     0.001994

SPIN
  0 C s       :     0.005392  s :     0.005392
      pz      :     0.236587  p :     0.242231
      px      :     0.002034
      py      :     0.003610
      dz2     :    -0.001009  d :     0.013084
      dxz     :     0.004757
      dyz     :     0.009033
      dx2y2   :     0.000075
      dxy     :     0.000228
      f0      :    -0.000903  f :     0.003321
      f+1     :    -0.000287
      f-1     :    -0.000250
      f+2     :     0.003609
      f-2     :     0.001160
      f+3     :     0.000085
      f-3     :    -0.000093
      g0      :    -0.000005  g :     0.000150
      g+1     :     0.000049
      g-1     :     0.000169
      g+2     :    -0.000010
      g-2     :    -0.000038
      g+3     :    -0.000002
      g-3     :     0.000000
      g+4     :    -0.000007
      g-4     :    -0.000006
  1 C s       :     0.001274  s :     0.001274
      pz      :     0.084544  p :     0.083971
      px      :    -0.001107
      py      :     0.000533
      dz2     :    -0.000411  d :     0.023629
      dxz     :     0.011762
      dyz     :     0.011793
      dx2y2   :    -0.000073
      dxy     :     0.000558
      f0      :     0.000252  f :     0.007536
      f+1     :    -0.000126
      f-1     :    -0.000099
      f+2     :     0.002640
      f-2     :     0.004763
      f+3     :    -0.000016
      f-3     :     0.000122
      g0      :    -0.000005  g :     0.000590
      g+1     :     0.000312
      g-1     :     0.000186
      g+2     :     0.000002
      g-2     :    -0.000027
      g+3     :     0.000011
      g-3     :     0.000092
      g+4     :     0.000015
      g-4     :     0.000004
  2 C s       :    -0.001012  s :    -0.001012
      pz      :    -0.004950  p :    -0.009710
      px      :    -0.002872
      py      :    -0.001889
      dz2     :     0.000103  d :     0.043646
      dxz     :     0.015483
      dyz     :     0.026401
      dx2y2   :     0.000763
      dxy     :     0.000896
      f0      :     0.001055  f :     0.011797
      f+1     :    -0.000007
      f-1     :    -0.000014
      f+2     :     0.006129
      f-2     :     0.004236
      f+3     :     0.000114
      f-3     :     0.000284
      g0      :    -0.000004  g :     0.001003
      g+1     :     0.000359
      g-1     :     0.000415
      g+2     :     0.000005
      g-2     :    -0.000014
      g+3     :     0.000015
      g-3     :     0.000176
      g+4     :     0.000033
      g-4     :     0.000019
  3 C s       :     0.005724  s :     0.005724
      pz      :     0.265633  p :     0.273005
      px      :     0.003562
      py      :     0.003809
      dz2     :    -0.001452  d :    -0.005726
      dxz     :    -0.001566
      dyz     :    -0.001767
      dx2y2   :    -0.000623
      dxy     :    -0.000318
      f0      :    -0.001049  f :    -0.001414
      f+1     :    -0.000279
      f-1     :    -0.000327
      f+2     :     0.000993
      f-2     :    -0.000465
      f+3     :    -0.000022
      f-3     :    -0.000265
      g0      :    -0.000004  g :    -0.000190
      g+1     :    -0.000071
      g-1     :     0.000028
      g+2     :    -0.000023
      g-2     :    -0.000024
      g+3     :    -0.000000
      g-3     :    -0.000063
      g+4     :    -0.000020
      g-4     :    -0.000014
  4 C s       :    -0.000149  s :    -0.000149
      pz      :     0.030631  p :     0.027367
      px      :    -0.002204
      py      :    -0.001060
      dz2     :    -0.000107  d :     0.037915
      dxz     :     0.012813
      dyz     :     0.023825
      dx2y2   :     0.000460
      dxy     :     0.000924
      f0      :     0.000771  f :     0.010184
      f+1     :    -0.000049
      f-1     :    -0.000051
      f+2     :     0.003795
      f-2     :     0.005392
      f+3     :     0.000099
      f-3     :     0.000228
      g0      :    -0.000004  g :     0.000865
      g+1     :     0.000325
      g-1     :     0.000360
      g+2     :     0.000007
      g-2     :    -0.000021
      g+3     :     0.000009
      g-3     :     0.000148
      g+4     :     0.000027
      g-4     :     0.000016
  5 C s       :     0.000327  s :     0.000327
      pz      :     0.046566  p :     0.044436
      px      :    -0.001890
      py      :    -0.000240
      dz2     :    -0.000204  d :     0.030816
      dxz     :     0.014200
      dyz     :     0.016056
      dx2y2   :     0.000201
      dxy     :     0.000564
      f0      :     0.000525  f :     0.009165
      f+1     :    -0.000080
      f-1     :    -0.000062
      f+2     :     0.004761
      f-2     :     0.003843
      f+3     :    -0.000000
      f-3     :     0.000178
      g0      :    -0.000005  g :     0.000733
      g+1     :     0.000348
      g-1     :     0.000250
      g+2     :     0.000002
      g-2     :    -0.000021
      g+3     :     0.000020
      g-3     :     0.000111
      g+4     :     0.000021
      g-4     :     0.000008
  6 C s       :    -0.000802  s :    -0.000802
      pz      :     0.017336  p :     0.011134
      px      :    -0.001383
      py      :    -0.004819
      dz2     :     0.000735  d :     0.038346
      dxz     :     0.005115
      dyz     :     0.031440
      dx2y2   :     0.000960
      dxy     :     0.000097
      f0      :     0.002556  f :     0.008167
      f+1     :     0.000156
      f-1     :     0.000136
      f+2     :     0.004532
      f-2     :     0.000521
      f+3     :     0.000033
      f-3     :     0.000233
      g0      :     0.000004  g :     0.000448
      g+1     :     0.000012
      g-1     :     0.000215
      g+2     :     0.000007
      g-2     :     0.000018
      g+3     :     0.000008
      g-3     :     0.000156
      g+4     :     0.000022
      g-4     :     0.000007
  7 H s       :    -0.000337  s :    -0.000337
      pz      :     0.001259  p :     0.000733
      px      :    -0.000041
      py      :    -0.000485
      dz2     :    -0.000006  d :     0.000680
      dxz     :     0.000962
      dyz     :    -0.000054
      dx2y2   :    -0.000093
      dxy     :    -0.000129
      f0      :     0.000040  f :     0.000101
      f+1     :    -0.000001
      f-1     :    -0.000002
      f+2     :     0.000091
      f-2     :     0.000005
      f+3     :    -0.000031
      f-3     :    -0.000001
  8 H s       :     0.021894  s :     0.021894
      pz      :     0.000124  p :     0.000123
      px      :     0.000308
      py      :    -0.000308
      dz2     :    -0.000073  d :     0.000003
      dxz     :     0.000106
      dyz     :    -0.000054
      dx2y2   :     0.000079
      dxy     :    -0.000054
      f0      :     0.000017  f :     0.000036
      f+1     :    -0.000003
      f-1     :     0.000007
      f+2     :    -0.000003
      f-2     :     0.000015
      f+3     :    -0.000003
      f-3     :     0.000005
  9 H s       :     0.021894  s :     0.021894
      pz      :     0.000124  p :     0.000123
      px      :     0.000308
      py      :    -0.000308
      dz2     :    -0.000073  d :     0.000003
      dxz     :     0.000106
      dyz     :    -0.000054
      dx2y2   :     0.000079
      dxy     :    -0.000054
      f0      :     0.000017  f :     0.000036
      f+1     :    -0.000003
      f-1     :     0.000007
      f+2     :    -0.000003
      f-2     :     0.000015
      f+3     :    -0.000003
      f-3     :     0.000005
 10 H s       :    -0.002209  s :    -0.002209
      pz      :     0.005865  p :     0.006225
      px      :     0.000346
      py      :     0.000014
      dz2     :    -0.000010  d :     0.002901
      dxz     :     0.002597
      dyz     :     0.000270
      dx2y2   :    -0.000023
      dxy     :     0.000067
      f0      :     0.000141  f :     0.000404
      f+1     :    -0.000003
      f-1     :    -0.000002
      f+2     :     0.000145
      f-2     :     0.000124
      f+3     :    -0.000010
      f-3     :     0.000009
 11 H s       :     0.000095  s :     0.000095
      pz      :    -0.000887  p :    -0.001495
      px      :    -0.000315
      py      :    -0.000293
      dz2     :    -0.000005  d :    -0.000450
      dxz     :     0.000147
      dyz     :    -0.000357
      dx2y2   :    -0.000171
      dxy     :    -0.000063
      f0      :    -0.000019  f :    -0.000075
      f+1     :    -0.000001
      f-1     :    -0.000001
      f+2     :     0.000042
      f-2     :    -0.000060
      f+3     :    -0.000034
      f-3     :    -0.000001
 12 H s       :    -0.006535  s :    -0.006535
      pz      :     0.020202  p :     0.022492
      px      :     0.000027
      py      :     0.002262
      dz2     :    -0.000023  d :     0.009395
      dxz     :     0.000004
      dyz     :     0.008804
      dx2y2   :     0.000443
      dxy     :     0.000168
      f0      :     0.000460  f :     0.001314
      f+1     :    -0.000001
      f-1     :    -0.000009
      f+2     :     0.000793
      f-2     :     0.000002
      f+3     :     0.000035
      f-3     :     0.000034
 13 H s       :    -0.000760  s :    -0.000760
      pz      :     0.001868  p :     0.001629
      px      :    -0.000051
      py      :    -0.000189
      dz2     :    -0.000008  d :     0.000836
      dxz     :     0.001117
      dyz     :    -0.000144
      dx2y2   :    -0.000101
      dxy     :    -0.000029
      f0      :     0.000044  f :     0.000106
      f+1     :    -0.000002
      f-1     :    -0.000002
      f+2     :     0.000085
      f-2     :     0.000004
      f+3     :    -0.000025
      f-3     :     0.000002
 14 H s       :    -0.001292  s :    -0.001292
      pz      :     0.003206  p :     0.003185
      px      :     0.000052
      py      :    -0.000073
      dz2     :    -0.000008  d :     0.001489
      dxz     :     0.001541
      dyz     :     0.000027
      dx2y2   :    -0.000098
      dxy     :     0.000027
      f0      :     0.000074  f :     0.000203
      f+1     :    -0.000002
      f-1     :    -0.000002
      f+2     :     0.000085
      f-2     :     0.000063
      f+3     :    -0.000021
      f-3     :     0.000006


                      *****************************
                      * MAYER POPULATION ANALYSIS *
                      *****************************

  NA   - Mulliken gross atomic population
  ZA   - Total nuclear charge
  QA   - Mulliken gross atomic charge
  VA   - Mayer's total valence
  BVA  - Mayer's bonded valence
  FA   - Mayer's free valence

  ATOM       NA         ZA         QA         VA         BVA        FA
  0 C      5.7942     6.0000     0.2058     3.5393     3.4271     0.1123
  1 C      6.0122     6.0000    -0.0122     3.6564     3.6411     0.0153
  2 C      6.0329     6.0000    -0.0329     3.7994     3.7971     0.0023
  3 C      5.9208     6.0000     0.0792     3.7130     3.5794     0.1336
  4 C      6.0181     6.0000    -0.0181     3.7945     3.7906     0.0039
  5 C      6.0332     6.0000    -0.0332     3.6766     3.6705     0.0060
  6 C      6.0475     6.0000    -0.0475     3.8173     3.8159     0.0014
  7 H      0.9264     1.0000     0.0736     1.0072     1.0072     0.0000
  8 H      0.9051     1.0000     0.0949     1.0013     0.9999     0.0013
  9 H      0.9051     1.0000     0.0949     1.0013     0.9999     0.0013
 10 H      0.8826     1.0000     0.1174     0.9886     0.9886     0.0000
 11 H      0.8824     1.0000     0.1176     0.9893     0.9893     0.0000
 12 H      0.8694     1.0000     0.1306     0.9776     0.9771     0.0004
 13 H      0.8816     1.0000     0.1184     0.9880     0.9879     0.0000
 14 H      0.8883     1.0000     0.1117     0.9941     0.9941     0.0000

  Mayer bond orders larger than 0.100000
B(  0-C ,  1-C ) :   1.0578 B(  0-C ,  5-C ) :   1.0951 B(  0-C ,  6-C ) :   0.9919 
B(  1-C ,  2-C ) :   1.4465 B(  1-C , 10-H ) :   0.9517 B(  2-C ,  3-C ) :   1.1924 
B(  2-C , 11-H ) :   0.9524 B(  3-C ,  4-C ) :   1.1716 B(  3-C , 12-H ) :   0.9449 
B(  4-C ,  5-C ) :   1.4458 B(  4-C , 13-H ) :   0.9512 B(  5-C , 14-H ) :   0.9553 
B(  6-C ,  7-H ) :   0.9573 B(  6-C ,  8-H ) :   0.9139 B(  6-C ,  9-H ) :   0.9139 


-------
TIMINGS
-------

Total SCF time: 0 days 0 hours 52 min 59 sec 

Total time                  ....    3179.834 sec
Sum of individual times     ....    3168.427 sec  ( 99.6%)

Fock matrix formation       ....    3119.811 sec  ( 98.1%)
  Split-RI-J                ....     138.694 sec  (  4.4% of F)
  Chain of spheres X        ....    2472.412 sec  ( 79.2% of F)
  XC integration            ....     498.699 sec  ( 16.0% of F)
    Basis function eval.    ....      53.135 sec  ( 10.7% of XC)
    Density eval.           ....     189.337 sec  ( 38.0% of XC)
    XC-Functional eval.     ....       5.159 sec  (  1.0% of XC)
    XC-Potential eval.      ....     215.617 sec  ( 43.2% of XC)
Diagonalization             ....      13.253 sec  (  0.4%)
Density matrix formation    ....       0.581 sec  (  0.0%)
Population analysis         ....       0.372 sec  (  0.0%)
Initial guess               ....      11.263 sec  (  0.4%)
Orbital Transformation      ....       0.000 sec  (  0.0%)
Orbital Orthonormalization  ....       0.000 sec  (  0.0%)
DIIS solution               ....       7.123 sec  (  0.2%)
Grid generation             ....      16.024 sec  (  0.5%)

Maximum memory used throughout the entire SCF-calculation: 682.6 MB


-------------------------------------------------------------------------------
                          DFT DISPERSION CORRECTION                            
                                                                               
                                 DFTD4 V2.5                                    
-------------------------------------------------------------------------------
The B3LYP functional is recognized
Active option DFTDOPT                   ...         5   

Starting D4
-------------------------   ----------------
Dispersion correction           -0.019930062
-------------------------   ----------------


-------------------------   --------------------
FINAL SINGLE POINT ENERGY      -271.205277220995
-------------------------   --------------------


                            ***************************************
                            *     ORCA property calculations      *
                            ***************************************

                                    ---------------------
                                    Active property flags
                                    ---------------------
   (+) Dipole Moment


------------------------------------------------------------------------------
                       ORCA ELECTRIC PROPERTIES CALCULATION
------------------------------------------------------------------------------

Dipole Moment Calculation                       ... on
Quadrupole Moment Calculation                   ... off
Polarizability Calculation                      ... off
GBWName                                         ... fukui_kation.gbw
Electron density                                ... fukui_kation.scfp
The origin for moment calculation is the CENTER OF MASS  = (-11.654069,  0.171850 -0.000000)

-------------
DIPOLE MOMENT
-------------
                                X             Y             Z
Electronic contribution:      0.10705      -3.58156       0.00000
Nuclear contribution   :     -0.14262       3.54029       0.00000
                        -----------------------------------------
Total Dipole Moment    :     -0.03557      -0.04128       0.00000
                        -----------------------------------------
Magnitude (a.u.)       :      0.05449
Magnitude (Debye)      :      0.13850



--------------------
Rotational spectrum 
--------------------
 
Rotational constants in cm-1:     0.183668     0.083310     0.057937 
Rotational constants in MHz :  5506.217857  2497.567370  1736.898663 

 Dipole components along the rotational axes: 
x,y,z [a.u.] :    -0.040095     0.036898     0.000001 
x,y,z [Debye]:    -0.101913     0.093787     0.000002 

 

Timings for individual modules:

Sum of individual times         ...     3246.275 sec (=  54.105 min)
GTO integral calculation        ...       65.194 sec (=   1.087 min)   2.0 %
SCF iterations                  ...     3181.081 sec (=  53.018 min)  98.0 %
                             ****ORCA TERMINATED NORMALLY****
TOTAL RUN TIME: 0 days 0 hours 54 minutes 9 seconds 276 msec
