
                                 *****************
                                 * O   R   C   A *
                                 *****************

                                            #,                                       
                                            ###                                      
                                            ####                                     
                                            #####                                    
                                            ######                                   
                                           ########,                                 
                                     ,,################,,,,,                         
                               ,,#################################,,                 
                          ,,##########################################,,             
                       ,#########################################, ''#####,          
                    ,#############################################,,   '####,        
                  ,##################################################,,,,####,       
                ,###########''''           ''''###############################       
              ,#####''   ,,,,##########,,,,          '''####'''          '####       
            ,##' ,,,,###########################,,,                        '##       
           ' ,,###''''                  '''############,,,                           
         ,,##''                                '''############,,,,        ,,,,,,###''
      ,#''                                            '''#######################'''  
     '                                                          ''''####''''         
             ,#######,   #######,   ,#######,      ##                                
            ,#'     '#,  ##    ##  ,#'     '#,    #''#        ######   ,####,        
            ##       ##  ##   ,#'  ##            #'  '#       #        #'  '#        
            ##       ##  #######   ##           ,######,      #####,   #    #        
            '#,     ,#'  ##    ##  '#,     ,#' ,#      #,         ##   #,  ,#        
             '#######'   ##     ##  '#######'  #'      '#     #####' # '####'        



                  #######################################################
                  #                        -***-                        #
                  #          Department of theory and spectroscopy      #
                  #    Directorship and core code : Frank Neese         #
                  #        Max Planck Institute fuer Kohlenforschung    #
                  #                Kaiser Wilhelm Platz 1               #
                  #                 D-45470 Muelheim/Ruhr               #
                  #                      Germany                        #
                  #                                                     #
                  #                  All rights reserved                #
                  #                        -***-                        #
                  #######################################################



                         Program Version 5.0.4 -  RELEASE  -

 With contributions from (in alphabetic order):
   Daniel Aravena         : Magnetic Suceptibility
   Michael Atanasov       : Ab Initio Ligand Field Theory (pilot matlab implementation)
   Alexander A. Auer      : GIAO ZORA, VPT2 properties, NMR spectrum
   Ute Becker             : Parallelization
   Giovanni Bistoni       : ED, misc. LED, open-shell LED, HFLD
   Martin Brehm           : Molecular dynamics
   Dmytro Bykov           : SCF Hessian
   Vijay G. Chilkuri      : MRCI spin determinant printing, contributions to CSF-ICE
   Dipayan Datta          : RHF DLPNO-CCSD density
   Achintya Kumar Dutta   : EOM-CC, STEOM-CC
   Dmitry Ganyushin       : Spin-Orbit,Spin-Spin,Magnetic field MRCI
   Miquel Garcia          : C-PCM and meta-GGA Hessian, CC/C-PCM, Gaussian charge scheme
   Yang Guo               : DLPNO-NEVPT2, F12-NEVPT2, CIM, IAO-localization
   Andreas Hansen         : Spin unrestricted coupled pair/coupled cluster methods
   Benjamin Helmich-Paris : MC-RPA, TRAH-SCF, COSX integrals
   Lee Huntington         : MR-EOM, pCC
   Robert Izsak           : Overlap fitted RIJCOSX, COSX-SCS-MP3, EOM
   Marcus Kettner         : VPT2
   Christian Kollmar      : KDIIS, OOCD, Brueckner-CCSD(T), CCSD density, CASPT2, CASPT2-K
   Simone Kossmann        : Meta GGA functionals, TD-DFT gradient, OOMP2, MP2 Hessian
   Martin Krupicka        : Initial AUTO-CI
   Lucas Lang             : DCDCAS
   Marvin Lechner         : AUTO-CI (C++ implementation), FIC-MRCC
   Dagmar Lenk            : GEPOL surface, SMD
   Dimitrios Liakos       : Extrapolation schemes; Compound Job, initial MDCI parallelization
   Dimitrios Manganas     : Further ROCIS development; embedding schemes
   Dimitrios Pantazis     : SARC Basis sets
   Anastasios Papadopoulos: AUTO-CI, single reference methods and gradients
   Taras Petrenko         : DFT Hessian,TD-DFT gradient, ASA, ECA, R-Raman, ABS, FL, XAS/XES, NRVS
   Peter Pinski           : DLPNO-MP2, DLPNO-MP2 Gradient
   Christoph Reimann      : Effective Core Potentials
   Marius Retegan         : Local ZFS, SOC
   Christoph Riplinger    : Optimizer, TS searches, QM/MM, DLPNO-CCSD(T), (RO)-DLPNO pert. Triples
   Tobias Risthaus        : Range-separated hybrids, TD-DFT gradient, RPA, STAB
   Michael Roemelt        : Original ROCIS implementation
   Masaaki Saitow         : Open-shell DLPNO-CCSD energy and density
   Barbara Sandhoefer     : DKH picture change effects
   Avijit Sen             : IP-ROCIS
   Kantharuban Sivalingam : CASSCF convergence, NEVPT2, FIC-MRCI
   Bernardo de Souza      : ESD, SOC TD-DFT
   Georgi Stoychev        : AutoAux, RI-MP2 NMR, DLPNO-MP2 response
   Willem Van den Heuvel  : Paramagnetic NMR
   Boris Wezisla          : Elementary symmetry handling
   Frank Wennmohs         : Technical directorship


 We gratefully acknowledge several colleagues who have allowed us to
 interface, adapt or use parts of their codes:
   Stefan Grimme, W. Hujo, H. Kruse, P. Pracht,  : VdW corrections, initial TS optimization,
                  C. Bannwarth, S. Ehlert          DFT functionals, gCP, sTDA/sTD-DF
   Ed Valeev, F. Pavosevic, A. Kumar             : LibInt (2-el integral package), F12 methods
   Garnet Chan, S. Sharma, J. Yang, R. Olivares  : DMRG
   Ulf Ekstrom                                   : XCFun DFT Library
   Mihaly Kallay                                 : mrcc  (arbitrary order and MRCC methods)
   Jiri Pittner, Ondrej Demel                    : Mk-CCSD
   Frank Weinhold                                : gennbo (NPA and NBO analysis)
   Christopher J. Cramer and Donald G. Truhlar   : smd solvation model
   Lars Goerigk                                  : TD-DFT with DH, B97 family of functionals
   V. Asgeirsson, H. Jonsson                     : NEB implementation
   FAccTs GmbH                                   : IRC, NEB, NEB-TS, DLPNO-Multilevel, CI-OPT
                                                   MM, QMMM, 2- and 3-layer-ONIOM, Crystal-QMMM,
                                                   LR-CPCM, SF, NACMEs, symmetry and pop. for TD-DFT,
                                                   nearIR, NL-DFT gradient (VV10), updates on ESD,
                                                   ML-optimized integration grids
   S Lehtola, MJT Oliveira, MAL Marques          : LibXC Library
   Liviu Ungur et al                             : ANISO software


 Your calculation uses the libint2 library for the computation of 2-el integrals
 For citations please refer to: http://libint.valeyev.net

 Your ORCA version has been built with support for libXC version: 5.1.0
 For citations please refer to: https://tddft.org/programs/libxc/

 This ORCA versions uses:
   CBLAS   interface :  Fast vector & matrix operations
   LAPACKE interface :  Fast linear algebra routines
   Shared memory     :  Shared parallel matrices


================================================================================

----- Orbital basis set information -----
Your calculation utilizes the basis: cc-pVDZ 
       H, B-Ne : Obtained from the ccRepo (grant-hill.group.shef.ac.uk/ccrepo) Feb. 2017
                 T. H. Dunning, Jr., J. Chem. Phys. 90, 1007 (1989)
            He : Obtained from the ccRepo (grant-hill.group.shef.ac.uk/ccrepo) Feb. 2017
                 D. E. Woon, T. H. Dunning, Jr., J. Chem. Phys. 100, 2975 (1994)
  Li-Be, Na-Mg : Obtained from the ccRepo (grant-hill.group.shef.ac.uk/ccrepo) Feb. 2017
                 B. P. Prascher, D. E. Woon, K. A. Peterson, T. H. Dunning, Jr., A. K. Wilson, Theor. Chem. Acc. 128, 69 (2011)
         Al-Ar : Obtained from the ccRepo (grant-hill.group.shef.ac.uk/ccrepo) Feb. 2017
                 D. E. Woon, T. H. Dunning, Jr., J. Chem. Phys. 98, 1358 (1993)
            Ca : Obtained from the Peterson Research Group Website (tyr0.chem.wsu.edu/~kipeters) Feb. 2017
                 J. Koput, K. A. Peterson, J. Phys. Chem. 106, 9595 (2002)
         Sc-Zn : Obtained from the ccRepo (grant-hill.group.shef.ac.uk/ccrepo) Feb. 2017
                 N. B. Balabanov, K. A. Peterson, J. Chem. Phys. 123, 064107 (2005)
                 N. B. Balabanov, K. A. Peterson, J. Chem. Phys. 125, 074110 (2006)
         Ga-Kr : Obtained from the ccRepo (grant-hill.group.shef.ac.uk/ccrepo) Feb. 2017
                 A. K. Wilson, D. E. Woon, K. A. Peterson, T. H. Dunning, Jr., J. Chem. Phys. 110, 7667 (1999)

----- AuxJ basis set information -----
Your calculation utilizes the auxiliary basis: def2/J
   F. Weigend, Phys. Chem. Chem. Phys. 8, 1057 (2006).

================================================================================
                                        WARNINGS
                       Please study these warnings very carefully!
================================================================================


INFO   : the flag for use of the SHARK integral package has been found!

================================================================================
                                       INPUT FILE
================================================================================
NAME = enzym2.inp
|  1> !BP86 cc-pVDZ SLOWCONV
|  2> 
|  3> %scf
|  4> maxIter 1000
|  5> end
|  6> 
|  7> * xyz -8 1
|  8>    N       -1.86403        2.55512        0.20723
|  9>    C       -0.58735        1.90577        0.52148
| 10>    C       -0.35449        1.76476        2.01609
| 11>    O        0.64134        1.15991        2.38262
| 12>    C        0.56225        2.60736       -0.22771
| 13>    H        0.34854        2.44019       -1.30830
| 14>    H        0.57433        3.70474       -0.04967
| 15>    C        1.94326        2.03037        0.13033
| 16>    H        2.31291        2.49024        1.07273
| 17>    H        1.89204        0.93055        0.25192
| 18>    C        2.89473        2.22269       -0.97414
| 19>    O        4.01418        2.94773       -0.85297
| 20>    O        2.55479        1.32105       -2.42506
| 21>    H        2.55479        1.32105       -2.47506
| 22>    H       -2.64703        1.96318        0.57032
| 23>    H       -0.62624        0.86181        0.13134
| 24>    H       -1.99034        2.59596       -0.83056
| 25>    N       -1.25692        2.17646        2.94937
| 26>    C       -1.11335        1.78572        4.34753
| 27>    C       -1.01140        0.26635        4.41254
| 28>    O       -0.12705       -0.24259        5.08253
| 29>    H       -0.18734        2.24055        4.76835
| 30>    C       -2.29789        2.30208        5.17423
| 31>    H       -2.34782        3.40743        5.06340
| 32>    S       -2.08094        1.91805        6.94617
| 33>    H       -3.26322        1.88450        4.81975
| 34>    H       -2.05925        3.27089        7.34055
| 35>    H       -2.10546        2.68458        2.66136
| 36>    N       -1.82945       -0.50924        3.64228
| 37>    C       -1.72426       -1.96190        3.56376
| 38>    C       -0.36185       -2.39879        3.03447
| 39>    O        0.31109       -3.11447        3.75081
| 40>    H       -1.86311       -2.35173        4.59524
| 41>    H       -2.55446       -0.03859        3.07842
| 42>    C       -2.87968       -2.52314        2.68980
| 43>    H       -3.82340       -2.09484        3.09546
| 44>    H       -2.77968       -2.14671        1.64818
| 45>    C       -3.09206       -4.06381        2.65432
| 46>    H       -4.01815       -4.22726        2.05907
| 47>    C       -3.33529       -4.64462        4.05423
| 48>    H       -3.59625       -5.72172        3.98127
| 49>    H       -4.17943       -4.11713        4.54737
| 50>    H       -2.42972       -4.55375        4.68980
| 51>    C       -1.97989       -4.84149        1.93565
| 52>    H       -2.27404       -5.90850        1.83802
| 53>    H       -1.02619       -4.82437        2.49283
| 54>    H       -1.82091       -4.43324        0.91521
| 55>    N        0.08942       -2.06556        1.78464
| 56>    C        1.32632       -2.61291        1.19626
| 57>    C        2.62324       -2.16120        1.89215
| 58>    O        3.67373       -2.68081        1.54544
| 59>    C        1.35892       -2.28951       -0.32703
| 60>    C        2.52802       -2.93851       -1.09953
| 61>    C        2.45447       -2.65688       -2.60456
| 62>    C        3.65256       -3.28517       -3.33014
| 63>    N        3.58655       -3.00978       -4.76134
| 64>    H        1.26569       -3.72061        1.28548
| 65>    H        1.38896       -1.19103       -0.47706
| 66>    H        0.41227       -2.67133       -0.76943
| 67>    H        2.51466       -4.03819       -0.93189
| 68>    H        3.49375       -2.52483       -0.75127
| 69>    H        2.46508       -1.55776       -2.77210
| 70>    H        1.51161       -3.07519       -3.01887
| 71>    H        3.64520       -4.38617       -3.17250
| 72>    H        4.60404       -2.87699       -2.91946
| 73>    H        4.40500       -3.46888       -5.22351
| 74>    H        3.67503       -1.97886       -4.91541
| 75>    H       -0.51990       -1.47700        1.19679
| 76>    N        2.64581       -1.24588        2.89882
| 77>    C        3.87596       -0.82407        3.57211
| 78>    C        4.01582       -1.61743        4.85715
| 79>    O        5.03556       -2.25976        5.06387
| 80>    C        3.83713        0.69944        3.79793
| 81>    C        5.12972        1.23581        4.36511
| 82>    C        5.15153        1.86396        5.62171
| 83>    C        6.34968        2.37101        6.13578
| 84>    C        7.53267        2.25834        5.40028
| 85>    C        7.52030        1.63915        4.14845
| 86>    C        6.32583        1.13048        3.63086
| 87>    H        1.75797       -0.86352        3.24211
| 88>    H        4.75993       -1.05150        2.93639
| 89>    H        2.98055        0.94418        4.46401
| 90>    H        3.65963        1.20824        2.82566
| 91>    H        4.24374        1.96220        6.20353
| 92>    H        6.36096        2.85361        7.10429
| 93>    H        8.45841        2.65303        5.79868
| 94>    H        8.43597        1.55563        3.57698
| 95>    H        6.33498        0.66129        2.65513
| 96>    N        2.94527       -1.72539        5.68803
| 97>    C        2.82637       -2.67550        6.79250
| 98>    C        3.22540       -4.07767        6.33672
| 99>    O        3.93402       -4.76337        7.05948
|100>    C        1.34581       -2.66442        7.24948
|101>    C        1.01076       -3.63264        8.39299
|102>    C       -0.45783       -3.58853        8.76130
|103>    O       -1.22670       -2.83236        8.18281
|104>    N       -0.93342       -4.39815        9.73391
|105>    H        3.47457       -2.36784        7.64241
|106>    H        2.10861       -1.18510        5.43493
|107>    H        0.70472       -2.92662        6.37823
|108>    H        1.08608       -1.63145        7.57343
|109>    H        1.61873       -3.37454        9.28585
|110>    H        1.25070       -4.67087        8.08002
|111>    H       -1.93285       -4.37929        9.98694
|112>    H       -0.30641       -5.04713       10.23057
|113>    N        2.83197       -4.53749        5.11639
|114>    C        3.13707       -5.85573        4.57720
|115>    C        4.63373       -6.08552        4.53624
|116>    O        5.11663       -7.01987        5.15594
|117>    C        2.53566       -5.97111        3.15381
|118>    C        2.71189       -7.33060        2.52602
|119>    C        3.47035       -7.47961        1.35105
|120>    C        3.61350       -8.73859        0.75966
|121>    C        2.99787       -9.85502        1.33154
|122>    C        2.23992       -9.71480        2.49713
|123>    C        2.09725       -8.45875        3.09411
|124>    H        2.29722       -3.89637        4.52724
|125>    H        2.66246       -6.61821        5.23345
|126>    H        3.00000       -5.19303        2.50991
|127>    H        1.44578       -5.75452        3.19082
|128>    H        3.95029       -6.62412        0.89140
|129>    H        4.19884       -8.84822       -0.14432
|130>    H        3.10567      -10.82805        0.87009
|131>    H        1.75913      -10.57901        2.93648
|132>    H        1.49976       -8.36400        3.99188
|133>    O        5.44953       -5.27179        3.83158
|134>    H        5.11369       -4.51125        3.33831
|135> **                         ****END OF INPUT****
================================================================================

                       ****************************
                       * Single Point Calculation *
                       ****************************

---------------------------------
CARTESIAN COORDINATES (ANGSTROEM)
---------------------------------
  N     -1.864030    2.555120    0.207230
  C     -0.587350    1.905770    0.521480
  C     -0.354490    1.764760    2.016090
  O      0.641340    1.159910    2.382620
  C      0.562250    2.607360   -0.227710
  H      0.348540    2.440190   -1.308300
  H      0.574330    3.704740   -0.049670
  C      1.943260    2.030370    0.130330
  H      2.312910    2.490240    1.072730
  H      1.892040    0.930550    0.251920
  C      2.894730    2.222690   -0.974140
  O      4.014180    2.947730   -0.852970
  O      2.554790    1.321050   -2.425060
  H      2.554790    1.321050   -2.475060
  H     -2.647030    1.963180    0.570320
  H     -0.626240    0.861810    0.131340
  H     -1.990340    2.595960   -0.830560
  N     -1.256920    2.176460    2.949370
  C     -1.113350    1.785720    4.347530
  C     -1.011400    0.266350    4.412540
  O     -0.127050   -0.242590    5.082530
  H     -0.187340    2.240550    4.768350
  C     -2.297890    2.302080    5.174230
  H     -2.347820    3.407430    5.063400
  S     -2.080940    1.918050    6.946170
  H     -3.263220    1.884500    4.819750
  H     -2.059250    3.270890    7.340550
  H     -2.105460    2.684580    2.661360
  N     -1.829450   -0.509240    3.642280
  C     -1.724260   -1.961900    3.563760
  C     -0.361850   -2.398790    3.034470
  O      0.311090   -3.114470    3.750810
  H     -1.863110   -2.351730    4.595240
  H     -2.554460   -0.038590    3.078420
  C     -2.879680   -2.523140    2.689800
  H     -3.823400   -2.094840    3.095460
  H     -2.779680   -2.146710    1.648180
  C     -3.092060   -4.063810    2.654320
  H     -4.018150   -4.227260    2.059070
  C     -3.335290   -4.644620    4.054230
  H     -3.596250   -5.721720    3.981270
  H     -4.179430   -4.117130    4.547370
  H     -2.429720   -4.553750    4.689800
  C     -1.979890   -4.841490    1.935650
  H     -2.274040   -5.908500    1.838020
  H     -1.026190   -4.824370    2.492830
  H     -1.820910   -4.433240    0.915210
  N      0.089420   -2.065560    1.784640
  C      1.326320   -2.612910    1.196260
  C      2.623240   -2.161200    1.892150
  O      3.673730   -2.680810    1.545440
  C      1.358920   -2.289510   -0.327030
  C      2.528020   -2.938510   -1.099530
  C      2.454470   -2.656880   -2.604560
  C      3.652560   -3.285170   -3.330140
  N      3.586550   -3.009780   -4.761340
  H      1.265690   -3.720610    1.285480
  H      1.388960   -1.191030   -0.477060
  H      0.412270   -2.671330   -0.769430
  H      2.514660   -4.038190   -0.931890
  H      3.493750   -2.524830   -0.751270
  H      2.465080   -1.557760   -2.772100
  H      1.511610   -3.075190   -3.018870
  H      3.645200   -4.386170   -3.172500
  H      4.604040   -2.876990   -2.919460
  H      4.405000   -3.468880   -5.223510
  H      3.675030   -1.978860   -4.915410
  H     -0.519900   -1.477000    1.196790
  N      2.645810   -1.245880    2.898820
  C      3.875960   -0.824070    3.572110
  C      4.015820   -1.617430    4.857150
  O      5.035560   -2.259760    5.063870
  C      3.837130    0.699440    3.797930
  C      5.129720    1.235810    4.365110
  C      5.151530    1.863960    5.621710
  C      6.349680    2.371010    6.135780
  C      7.532670    2.258340    5.400280
  C      7.520300    1.639150    4.148450
  C      6.325830    1.130480    3.630860
  H      1.757970   -0.863520    3.242110
  H      4.759930   -1.051500    2.936390
  H      2.980550    0.944180    4.464010
  H      3.659630    1.208240    2.825660
  H      4.243740    1.962200    6.203530
  H      6.360960    2.853610    7.104290
  H      8.458410    2.653030    5.798680
  H      8.435970    1.555630    3.576980
  H      6.334980    0.661290    2.655130
  N      2.945270   -1.725390    5.688030
  C      2.826370   -2.675500    6.792500
  C      3.225400   -4.077670    6.336720
  O      3.934020   -4.763370    7.059480
  C      1.345810   -2.664420    7.249480
  C      1.010760   -3.632640    8.392990
  C     -0.457830   -3.588530    8.761300
  O     -1.226700   -2.832360    8.182810
  N     -0.933420   -4.398150    9.733910
  H      3.474570   -2.367840    7.642410
  H      2.108610   -1.185100    5.434930
  H      0.704720   -2.926620    6.378230
  H      1.086080   -1.631450    7.573430
  H      1.618730   -3.374540    9.285850
  H      1.250700   -4.670870    8.080020
  H     -1.932850   -4.379290    9.986940
  H     -0.306410   -5.047130   10.230570
  N      2.831970   -4.537490    5.116390
  C      3.137070   -5.855730    4.577200
  C      4.633730   -6.085520    4.536240
  O      5.116630   -7.019870    5.155940
  C      2.535660   -5.971110    3.153810
  C      2.711890   -7.330600    2.526020
  C      3.470350   -7.479610    1.351050
  C      3.613500   -8.738590    0.759660
  C      2.997870   -9.855020    1.331540
  C      2.239920   -9.714800    2.497130
  C      2.097250   -8.458750    3.094110
  H      2.297220   -3.896370    4.527240
  H      2.662460   -6.618210    5.233450
  H      3.000000   -5.193030    2.509910
  H      1.445780   -5.754520    3.190820
  H      3.950290   -6.624120    0.891400
  H      4.198840   -8.848220   -0.144320
  H      3.105670  -10.828050    0.870090
  H      1.759130  -10.579010    2.936480
  H      1.499760   -8.364000    3.991880
  O      5.449530   -5.271790    3.831580
  H      5.113690   -4.511250    3.338310

----------------------------
CARTESIAN COORDINATES (A.U.)
----------------------------
  NO LB      ZA    FRAG     MASS         X           Y           Z
   0 N     7.0000    0    14.007   -3.522506    4.828477    0.391608
   1 C     6.0000    0    12.011   -1.109931    3.601383    0.985454
   2 C     6.0000    0    12.011   -0.669889    3.334913    3.809858
   3 O     8.0000    0    15.999    1.211957    2.191912    4.502499
   4 C     6.0000    0    12.011    1.062499    4.927196   -0.430310
   5 H     1.0000    0     1.008    0.658645    4.611291   -2.472329
   6 H     1.0000    0     1.008    1.085326    7.000944   -0.093863
   7 C     6.0000    0    12.011    3.672229    3.836843    0.246288
   8 H     1.0000    0     1.008    4.370766    4.705872    2.027166
   9 H     1.0000    0     1.008    3.575437    1.758485    0.476060
  10 C     6.0000    0    12.011    5.470247    4.200275   -1.840858
  11 O     8.0000    0    15.999    7.585701    5.570402   -1.611880
  12 O     8.0000    0    15.999    4.827853    2.496423   -4.582699
  13 H     1.0000    0     1.008    4.827853    2.496423   -4.677186
  14 H     1.0000    0     1.008   -5.002162    3.709873    1.077749
  15 H     1.0000    0     1.008   -1.183422    1.628585    0.248197
  16 H     1.0000    0     1.008   -3.761198    4.905653   -1.569531
  17 N     7.0000    0    14.007   -2.375235    4.112913    5.573502
  18 C     6.0000    0    12.011   -2.103927    3.374522    8.215641
  19 C     6.0000    0    12.011   -1.911269    0.503329    8.338492
  20 O     8.0000    0    15.999   -0.240090   -0.458429    9.604590
  21 H     1.0000    0     1.008   -0.354021    4.234026    9.010876
  22 C     6.0000    0    12.011   -4.342383    4.350301    9.777878
  23 H     1.0000    0     1.008   -4.436737    6.439110    9.568439
  24 S    16.0000    0    32.060   -3.932407    3.624589   13.126359
  25 H     1.0000    0     1.008   -6.166592    3.561189    9.108008
  26 H     1.0000    0     1.008   -3.891419    6.181086   13.871629
  27 H     1.0000    0     1.008   -3.978743    5.073121    5.029242
  28 N     7.0000    0    14.007   -3.457159   -0.962324    6.882912
  29 C     6.0000    0    12.011   -3.258379   -3.707454    6.734530
  30 C     6.0000    0    12.011   -0.683797   -4.533056    5.734317
  31 O     8.0000    0    15.999    0.587875   -5.885495    7.088004
  32 H     1.0000    0     1.008   -3.520768   -4.444126    8.683745
  33 H     1.0000    0     1.008   -4.827230   -0.072925    5.817371
  34 C     6.0000    0    12.011   -5.441807   -4.768044    5.082985
  35 H     1.0000    0     1.008   -7.225179   -3.958674    5.849572
  36 H     1.0000    0     1.008   -5.252834   -4.056694    3.114609
  37 C     6.0000    0    12.011   -5.843147   -7.679488    5.015938
  38 H     1.0000    0     1.008   -7.593203   -7.988364    3.891078
  39 C     6.0000    0    12.011   -6.302785   -8.777060    7.661384
  40 H     1.0000    0     1.008   -6.795928  -10.812484    7.523510
  41 H     1.0000    0     1.008   -7.897978   -7.780248    8.593284
  42 H     1.0000    0     1.008   -4.591505   -8.605340    8.862438
  43 C     6.0000    0    12.011   -3.741450   -9.149090    3.657848
  44 H     1.0000    0     1.008   -4.297313  -11.165447    3.473354
  45 H     1.0000    0     1.008   -1.939218   -9.116738    4.710766
  46 H     1.0000    0     1.008   -3.441021   -8.377609    1.729496
  47 N     7.0000    0    14.007    0.168979   -3.903343    3.372481
  48 C     6.0000    0    12.011    2.506382   -4.937684    2.260604
  49 C     6.0000    0    12.011    4.957205   -4.084076    3.575645
  50 O     8.0000    0    15.999    6.942344   -5.065997    2.920458
  51 C     6.0000    0    12.011    2.567987   -4.326547   -0.617997
  52 C     6.0000    0    12.011    4.777265   -5.552979   -2.077811
  53 C     6.0000    0    12.011    4.638276   -5.020776   -4.921905
  54 C     6.0000    0    12.011    6.902338   -6.208072   -6.293053
  55 N     7.0000    0    14.007    6.777597   -5.687660   -8.997629
  56 H     1.0000    0     1.008    2.391807   -7.030934    2.429205
  57 H     1.0000    0     1.008    2.624754   -2.250721   -0.901513
  58 H     1.0000    0     1.008    0.779077   -5.048082   -1.454012
  59 H     1.0000    0     1.008    4.752019   -7.631073   -1.761017
  60 H     1.0000    0     1.008    6.602231   -4.771237   -1.419695
  61 H     1.0000    0     1.008    4.658326   -2.943740   -5.238510
  62 H     1.0000    0     1.008    2.856529   -5.811267   -5.704838
  63 H     1.0000    0     1.008    6.888430   -8.288660   -5.995156
  64 H     1.0000    0     1.008    8.700375   -5.436723   -5.516980
  65 H     1.0000    0     1.008    8.324244   -6.555233   -9.871003
  66 H     1.0000    0     1.008    6.944800   -3.739503   -9.288779
  67 H     1.0000    0     1.008   -0.982469   -2.791125    2.261605
  68 N     7.0000    0    14.007    4.999856   -2.354372    5.477976
  69 C     6.0000    0    12.011    7.324503   -1.557267    6.750310
  70 C     6.0000    0    12.011    7.588800   -3.056500    9.178683
  71 O     8.0000    0    15.999    9.515829   -4.270328    9.569327
  72 C     6.0000    0    12.011    7.251125    1.321750    7.177048
  73 C     6.0000    0    12.011    9.693766    2.335342    8.248862
  74 C     6.0000    0    12.011    9.734981    3.522374   10.623492
  75 C     6.0000    0    12.011   11.999156    4.480560   11.594944
  76 C     6.0000    0    12.011   14.234683    4.267644   10.205050
  77 C     6.0000    0    12.011   14.211307    3.097545    7.839434
  78 C     6.0000    0    12.011   11.954086    2.136298    6.861331
  79 H     1.0000    0     1.008    3.322082   -1.631816    6.126700
  80 H     1.0000    0     1.008    8.994964   -1.987047    5.548973
  81 H     1.0000    0     1.008    5.632423    1.784242    8.435756
  82 H     1.0000    0     1.008    6.915698    2.283243    5.339724
  83 H     1.0000    0     1.008    8.019506    3.708021   11.722973
  84 H     1.0000    0     1.008   12.020472    5.392541   13.425162
  85 H     1.0000    0     1.008   15.984078    5.013500   10.957917
  86 H     1.0000    0     1.008   15.941673    2.939715    6.759513
  87 H     1.0000    0     1.008   11.971377    1.249657    5.017469
  88 N     7.0000    0    14.007    5.565754   -3.260515   10.748819
  89 C     6.0000    0    12.011    5.341065   -5.055962   12.835965
  90 C     6.0000    0    12.011    6.095123   -7.705680   11.974665
  91 O     8.0000    0    15.999    7.434220   -9.001465   13.340484
  92 C     6.0000    0    12.011    2.543212   -5.035024   13.699532
  93 C     6.0000    0    12.011    1.910060   -6.864695   15.860453
  94 C     6.0000    0    12.011   -0.865173   -6.781339   16.556458
  95 O     8.0000    0    15.999   -2.318127   -5.352385   15.463270
  96 N     7.0000    0    14.007   -1.763908   -8.311299   18.394424
  97 H     1.0000    0     1.008    6.565986   -4.474569   14.442062
  98 H     1.0000    0     1.008    3.984695   -2.239514   10.270529
  99 H     1.0000    0     1.008    1.331728   -5.530510   12.053108
 100 H     1.0000    0     1.008    2.052394   -3.082994   14.311709
 101 H     1.0000    0     1.008    3.058956   -6.376956   17.547713
 102 H     1.0000    0     1.008    2.363480   -8.826665   15.269025
 103 H     1.0000    0     1.008   -3.652557   -8.275659   18.872582
 104 H     1.0000    0     1.008   -0.579031   -9.537693   19.332975
 105 N     7.0000    0    14.007    5.351648   -8.574613    9.668576
 106 C     6.0000    0    12.011    5.928203  -11.065726    8.649654
 107 C     6.0000    0    12.011    8.756481  -11.499966    8.572251
 108 O     8.0000    0    15.999    9.669029  -13.265632    9.743315
 109 C     6.0000    0    12.011    4.791703  -11.283763    5.959837
 110 C     6.0000    0    12.011    5.124729  -13.852826    4.773486
 111 C     6.0000    0    12.011    6.558011  -14.134414    2.553114
 112 C     6.0000    0    12.011    6.828525  -16.513542    1.435549
 113 C     6.0000    0    12.011    5.665153  -18.623289    2.516246
 114 C     6.0000    0    12.011    4.232835  -18.358311    4.718892
 115 C     6.0000    0    12.011    3.963228  -15.984721    5.847021
 116 H     1.0000    0     1.008    4.341117   -7.363072    8.555244
 117 H     1.0000    0     1.008    5.031320  -12.506604    9.889787
 118 H     1.0000    0     1.008    5.669178   -9.813405    4.743043
 119 H     1.0000    0     1.008    2.732128  -10.874467    6.029776
 120 H     1.0000    0     1.008    7.464966  -12.517773    1.684502
 121 H     1.0000    0     1.008    7.934658  -16.720713   -0.272725
 122 H     1.0000    0     1.008    5.868866  -20.462049    1.644232
 123 H     1.0000    0     1.008    3.324274  -19.991432    5.549143
 124 H     1.0000    0     1.008    2.834136  -15.805669    7.543560
 125 O     8.0000    0    15.999   10.298119   -9.962239    7.240637
 126 H     1.0000    0     1.008    9.663474   -8.525027    6.308492

--------------------------------
INTERNAL COORDINATES (ANGSTROEM)
--------------------------------
 N      0   0   0     0.000000000000     0.00000000     0.00000000
 C      1   0   0     1.466397049711     0.00000000     0.00000000
 C      2   1   0     1.519199345642   112.66743522     0.00000000
 O      3   2   1     1.221419318785   117.78536889   175.43065009
 C      2   1   3     1.541134109739   110.10052302   231.56923092
 H      5   2   1     1.114133080516   105.07607517   296.02066337
 H      5   2   1     1.111794509970   112.30877407    52.92568685
 C      5   2   1     1.538927783166   112.68186986   176.28945563
 H      8   5   2     1.111862985893   109.90538764   277.08737937
 H      8   5   2     1.107705578617   110.87338420    38.22588069
 C      8   5   2     1.470420390297   110.90884757   153.26289459
 O     11   8   5     1.339228685849   122.93809850   118.50389432
 O     11   8   5     1.741747036627   115.57610182   292.97770671
 H     13  11   8     0.050000000000   146.41081416   141.67733934
 H      1   2   3     1.046573605486   109.05987705   297.66783966
 H      2   1   3     1.115156551028   108.01178989   115.79104125
 H      1   2   3     1.046245767399   109.57021890   182.03486689
 N      3   2   1     1.361942859778   122.99351675     1.30534893
 C     18   3   2     1.458815093869   120.70291524   167.77783002
 C     19  18   3     1.524173644799   108.32854581   305.76058781
 O     20  19  18     1.220647961617   119.17639469   132.10621843
 H     19  18   3     1.114205690795   109.53830800    65.25073960
 C     19  18   3     1.534012891471   110.50884191   183.51467447
 H     23  19  18     1.112013901127   108.39403698   302.43916209
 S     23  19  18     1.826011420282   111.12593972   183.75623992
 H     23  19  18     1.109905912994   111.89089868    60.98431864
 H     25  23  19     1.409319731679    94.09996091   117.96335903
 H     18   3   2     1.030124179941   120.22008199   354.31838339
 N     20  19  18     1.365300742767   120.14175988   317.51933750
 C     29  20  19     1.458578555341   123.56807666   174.87443029
 C     30  29  20     1.525510335691   111.61160559   299.40399329
 O     31  30  29     1.215808003593   117.28859804   121.00425097
 H     30  29  20     1.111394503226   106.87962559    59.05169310
 H     29  20  19     1.032031502523   118.04056727   355.53214284
 C     30  29  20     1.553638244766   109.65926210   175.41368639
 H     35  30  29     1.112927834138   106.65198205   308.40402897
 H     35  30  29     1.112057448741   109.73922222    63.61965991
 C     35  30  29     1.555643964312   118.17230098   189.44104139
 H     38  35  30     1.112960535284   105.73834537   174.56387809
 C     38  35  30     1.535007849198   112.05933103    57.76316791
 H     40  38  35     1.110660926296   110.13686825   173.60546590
 H     40  38  35     1.110857821370   110.21812832    54.38478688
 H     40  38  35     1.110073694265   111.21813206   293.27744527
 C     38  35  30     1.535641514221   114.41512029   290.99204502
 H     44  38  35     1.111110336330   109.61573041   187.47096048
 H     44  38  35     1.104665712693   112.41817737    68.94947499
 H     44  38  35     1.110513618332   110.33717207   306.37149444
 N     31  30  29     1.369949588379   122.75602711   298.13324599
 C     48  31  30     1.475027002092   123.35905021   187.71953837
 C     49  48  31     1.539579911080   114.65906157   292.70036244
 O     50  49  48     1.222183135336   118.10474943   172.69270996
 C     49  48  31     1.557582339429   109.30619466   166.92339916
 C     52  49  48     1.544264245523   114.69643662   186.34008736
 C     53  52  49     1.532918902062   112.18519824   176.34937558
 C     54  53  52     1.535133319487   110.57370001   178.44574908
 N     55  54  53     1.458948392576   110.55427317   180.35382307
 H     49  48  31     1.112940023227   106.95799124    51.84533389
 H     52  49  48     1.109085079198   109.78590420    63.02845703
 H     52  49  48     1.112497413435   107.44790572   305.80289169
 H     53  52  49     1.112464723755   109.32712420    55.04874158
 H     53  52  49     1.106820040883   110.24766583   294.71969570
 H     54  53  52     1.111866447960   109.21412715    58.48098742
 H     54  53  52     1.111584909847   109.72456119   299.18103188
 H     55  54  53     1.112252461989   109.44975946    60.27592621
 H     55  54  53     1.113814690691   110.02558940   301.22572759
 H     56  55  54     1.046056557458   108.37131136   181.18443223
 H     56  55  54     1.046117737972   109.06659702    64.39894322
 H     48  31  30     1.031135955391   117.66485592     1.37977339
 N     50  49  48     1.360773528623   123.07284110   354.83478589
 C     69  50  49     1.464415283552   123.21672390   179.35699937
 C     70  69  50     1.516676864332   108.44175108   262.53033130
 O     71  70  69     1.222779888165   119.66459698   124.79587299
 C     70  69  50     1.540644398101   109.33281920   138.56342626
 C     73  70  69     1.510024780393   112.62735793   185.67699287
 C     74  73  70     1.405023721721   120.53218557   241.66505691
 C     75  74  73     1.398903531306   120.26523486   180.65513923
 C     76  75  74     1.397540739657   120.15780053     0.14788754
 C     77  76  75     1.396648710986   119.99711147     0.04402836
 C     78  77  76     1.397641999190   120.05648888   359.92831150
 H     69  50  49     1.025820188581   118.94242686     2.64126414
 H     70  69  50     1.112325170173   110.23753018    20.20695900
 H     73  70  69     1.112335169991   108.95080932    62.23832391
 H     73  70  69     1.111617129636   109.17438834   305.15339694
 H     75  74  73     1.082704158161   120.54133964     0.63256781
 H     76  75  74     1.082146763845   119.96460340   180.02025849
 H     77  76  75     1.082357290224   120.05814616   179.87465017
 H     78  77  76     1.082591843771   119.98997811   179.74366434
 H     79  78  77     1.082715110959   118.96209848   179.49677907
 N     71  70  69     1.359446298498   119.12837076   312.26831279
 C     89  71  70     1.461745601327   125.27336887   165.87251407
 C     90  89  71     1.527429559161   110.48528878   312.56329089
 O     91  90  89     1.222582844637   119.33278782   136.52654805
 C     90  89  71     1.549519732175   107.21197619   192.53847448
 C     93  90  89     1.535357805529   115.06532576   178.66403833
 C     94  93  90     1.514712691008   111.98177966   181.34645696
 O     95  94  93     1.223766655004   120.81061770   359.17897616
 N     95  94  93     1.351902586949   119.90584497   178.73110853
 H     90  89  71     1.112279157271   110.49724952    73.58678634
 H     89  71  70     1.027605395908   116.67125557   354.73261266
 H     93  90  89     1.113023715201   108.53093717    57.58251266
 H     93  90  89     1.113297038665   108.38289611   300.31655695
 H     94  93  90     1.110604389736   109.43575272    60.14172870
 H     94  93  90     1.110604771014   109.42015490   300.77273357
 H     97  95  94     1.031135396250   120.43530097   180.40308967
 H     97  95  94     1.030042589459   120.66862239     0.05516549
 N     91  90  89     1.362140560368   120.11678790   318.79215993
 C    106  91  90     1.456560525244   125.21563919   180.63678163
 C    107 106  91     1.514751570819   110.74868240   302.83327567
 O    108 107 106     1.220749942658   119.55348223   120.50314890
 C    107 106  91     1.549530775622   109.03446220   181.25736129
 C    110 107 106     1.507776627057   113.84396237   183.73590694
 C    111 110 107     1.406421008304   120.42494032   242.73645078
 C    112 111 110     1.398307796946   120.26055692   181.04338412
 C    113 112 111     1.397305613028   120.07790469     0.26659344
 C    114 113 112     1.397408279280   120.01170162   359.88876170
 C    115 114 113     1.397999088626   120.11203139   359.92332649
 H    106  91  90     1.021807290735   117.12295424     2.00689856
 H    107 106  91     1.112337388116   108.21652156    62.84501660
 H    110 107 106     1.111587752721   108.53329756    60.94883494
 H    110 107 106     1.111809058517   109.59593552   304.41593306
 H    112 111 110     1.083274511008   120.64670486     0.99705469
 H    113 112 111     1.082507040578   119.98160568   180.03991974
 H    114 113 112     1.082286617953   119.99642847   179.71036396
 H    115 114 113     1.082148959571   119.96654812   179.67587945
 H    116 115 114     1.082572323450   119.28076083   179.45737517
 O    108 107 106     1.350641280466   121.29915461   300.84263185
 H    126 108 107     0.966708275593   122.03005108     0.71561376

---------------------------
INTERNAL COORDINATES (A.U.)
---------------------------
 N      0   0   0     0.000000000000     0.00000000     0.00000000
 C      1   0   0     2.771088827543     0.00000000     0.00000000
 C      2   1   0     2.870870706096   112.66743522     0.00000000
 O      3   2   1     2.308148007183   117.78536889   175.43065009
 C      2   1   3     2.912321403051   110.10052302   231.56923092
 H      5   2   1     2.105406398917   105.07607517   296.02066337
 H      5   2   1     2.100987141041   112.30877407    52.92568685
 C      5   2   1     2.908152050066   112.68186986   176.28945563
 H      8   5   2     2.101116541783   109.90538764   277.08737937
 H      8   5   2     2.093260180604   110.87338420    38.22588069
 C      8   5   2     2.778691839394   110.90884757   153.26289459
 O     11   8   5     2.530775446945   122.93809850   118.50389432
 O     11   8   5     3.291424893795   115.57610182   292.97770671
 H     13  11   8     0.094486306696   146.41081416   141.67733934
 H      1   2   3     1.977737493359   109.05987705   297.66783966
 H      2   1   3     2.107340477891   108.01178989   115.79104125
 H      1   2   3     1.977117969158   109.57021890   182.03486689
 N      3   2   1     2.573699015030   122.99351675     1.30534893
 C     18   3   2     2.756761007443   120.70291524   167.77783002
 C     19  18   3     2.880270769211   108.32854581   305.76058781
 O     20  19  18     2.306690353386   119.17639469   132.10621843
 H     19  18   3     2.105543612459   109.53830800    65.25073960
 C     19  18   3     2.898864250785   110.50884191   183.51467447
 H     23  19  18     2.101401730244   108.39403698   302.43916209
 S     23  19  18     3.450661501745   111.12593972   183.75623992
 H     23  19  18     2.097418209979   111.89089868    60.98431864
 H     25  23  19     2.663228328005    94.09996091   117.96335903
 H     18   3   2     1.946652584020   120.22008199   354.31838339
 N     20  19  18     2.580044494269   120.14175988   317.51933750
 C     29  20  19     2.756314014405   123.56807666   174.87443029
 C     30  29  20     2.882796748922   111.61160559   299.40399329
 O     31  30  29     2.297544158220   117.28859804   121.00425097
 H     30  29  20     2.100231237842   106.87962559    59.05169310
 H     29  20  19     1.950256901348   118.04056727   355.53214284
 C     30  29  20     2.935950793794   109.65926210   175.41368639
 H     35  30  29     2.103128813340   106.65198205   308.40402897
 H     35  30  29     2.101484023307   109.73922222    63.61965991
 C     35  30  29     2.939741054437   118.17230098   189.44104139
 H     38  35  30     2.103190609549   105.73834537   174.56387809
 C     38  35  30     2.900744448404   112.05933103    57.76316791
 H     40  38  35     2.098844978346   110.13686825   173.60546590
 H     40  38  35     2.099217056115   110.21812832    54.38478688
 H     40  38  35     2.097735270632   111.21813206   293.27744527
 C     38  35  30     2.901941901758   114.41512029   290.99204502
 H     44  38  35     2.099694240233   109.61573041   187.47096048
 H     44  38  35     2.087515666523   112.41817737    68.94947499
 H     44  38  35     2.098566606637   110.33717207   306.37149444
 N     31  30  29     2.588829539315   122.75602711   298.13324599
 C     48  31  30     2.787397074092   123.35905021   187.71953837
 C     49  48  31     2.909384393227   114.65906157   292.70036244
 O     50  49  48     2.309591411282   118.10474943   172.69270996
 C     49  48  31     2.943404052553   109.30619466   166.92339916
 C     52  49  48     2.918236502445   114.69643662   186.34008736
 C     53  52  49     2.896796910409   112.18519824   176.34937558
 C     54  53  52     2.900981552888   110.57370001   178.44574908
 N     55  54  53     2.757012905493   110.55427317   180.35382307
 H     49  48  31     2.103151847379   106.95799124    51.84533389
 H     52  49  48     2.095867058903   109.78590420    63.02845703
 H     52  49  48     2.102315436088   107.44790572   305.80289169
 H     53  52  49     2.102253661546   109.32712420    55.04874158
 H     53  52  49     2.091586756804   110.24766583   294.71969570
 H     54  53  52     2.101123084141   109.21412715    58.48098742
 H     54  53  52     2.100591054211   109.72456119   299.18103188
 H     55  54  53     2.101852544938   109.44975946    60.27592621
 H     55  54  53     2.104804729345   110.02558940   301.22572759
 H     56  55  54     1.976760414187   108.37131136   181.18443223
 H     56  55  54     1.976876028605   109.06659702    64.39894322
 H     48  31  30     1.948564562528   117.66485592     1.37977339
 N     50  49  48     2.571489299386   123.07284110   354.83478589
 C     69  50  49     2.767343832241   123.21672390   179.35699937
 C     70  69  50     2.866103907242   108.44175108   262.53033130
 O     71  70  69     2.310719110698   119.66459698   124.79587299
 C     70  69  50     2.911395982171   109.33281920   138.56342626
 C     73  70  69     2.853533290377   112.62735793   185.67699287
 C     74  73  70     2.655110045716   120.53218557   241.66505691
 C     75  74  73     2.643544561943   120.26523486   180.65513923
 C     76  75  74     2.640969258949   120.15780053     0.14788754
 C     77  76  75     2.639283569058   119.99711147     0.04402836
 C     78  77  76     2.641160611735   120.05648888   359.92831150
 H     69  50  49     1.938519219065   118.94242686     2.64126414
 H     70  69  50     2.101989943494   110.23753018    20.20695900
 H     73  70  69     2.102008840413   108.95080932    62.23832391
 H     73  70  69     2.100651940788   109.17438834   305.15339694
 H     75  74  73     2.046014342983   120.54133964     0.63256781
 H     76  75  74     2.044961020376   119.96460340   180.02025849
 H     77  76  75     2.045358857576   120.05814616   179.87465017
 H     78  77  76     2.045802099544   119.98997811   179.74366434
 H     79  78  77     2.046035040772   118.96209848   179.49677907
 N     71  70  69     2.568981197934   119.12837076   312.26831279
 C     89  71  70     2.762298863973   125.27336887   165.87251407
 C     90  89  71     2.886423555671   110.48528878   312.56329089
 O     91  90  89     2.310346752394   119.33278782   136.52654805
 C     90  89  71     2.928167932918   107.21197619   192.53847448
 C     93  90  89     2.901405770029   115.06532576   178.66403833
 C     94  93  90     2.862392157580   111.98177966   181.34645696
 O     95  94  93     2.312583829783   120.81061770   359.17897616
 N     95  94  93     2.554725649074   119.90584497   178.73110853
 H     90  89  71     2.101902991711   110.49724952    73.58678634
 H     89  71  70     1.941892772007   116.67125557   354.73261266
 H     93  90  89     2.103310002290   108.53093717    57.58251266
 H     93  90  89     2.103826508782   108.38289611   300.31655695
 H     94  93  90     2.098738139731   109.43575272    60.14172870
 H     94  93  90     2.098738860244   109.42015490   300.77273357
 H     97  95  94     1.948563505905   120.43530097   180.40308967
 H     97  95  94     1.946498400353   120.66862239     0.05516549
 N     91  90  89     2.574072615002   120.11678790   318.79215993
 C    106  91  90     2.752500490192   125.21563919   180.63678163
 C    107 106  91     2.862465629776   110.74868240   302.83327567
 O    108 107 106     2.306883069624   119.55348223   120.50314890
 C    107 106  91     2.928188802008   109.03446220   181.25736129
 C    110 107 106     2.849284896266   113.84396237   183.73590694
 C    111 110 107     2.657750534689   120.42494032   242.73645078
 C    112 111 110     2.642418787155   120.26055692   181.04338412
 C    113 112 111     2.640524934014   120.07790469     0.26659344
 C    114 113 112     2.640718945113   120.01170162   359.88876170
 C    115 114 113     2.641835412975   120.11203139   359.92332649
 H    106  91  90     1.930935941134   117.12295424     2.00689856
 H    107 106  91     2.102013032060   108.21652156    62.84501660
 H    110 107 106     2.100596426464   108.53329756    60.94883494
 H    110 107 106     2.101014633810   109.59593552   304.41593306
 H    112 111 110     2.047092153663   120.64670486     0.99705469
 H    113 112 111     2.045641844733   119.98160568   180.03991974
 H    114 113 112     2.045225306339   119.99642847   179.71036396
 H    115 114 113     2.044965169696   119.96654812   179.67587945
 H    116 115 114     2.045765211483   119.28076083   179.45737517
 O    108 107 106     2.552342125250   121.29915461   300.84263185
 H    126 108 107     1.826813892266   122.03005108     0.71561376

---------------------
BASIS SET INFORMATION
---------------------
There are 5 groups of distinct atoms

 Group   1 Type N   : 17s4p1d contracted to 3s2p1d pattern {881/31/1}
 Group   2 Type C   : 17s4p1d contracted to 3s2p1d pattern {881/31/1}
 Group   3 Type O   : 17s4p1d contracted to 3s2p1d pattern {881/31/1}
 Group   4 Type H   : 4s1p contracted to 2s1p pattern {31/1}
 Group   5 Type S   : 34s15p1d contracted to 4s3p1d pattern {1111111/771/1}

Atom   0N    basis set group =>   1
Atom   1C    basis set group =>   2
Atom   2C    basis set group =>   2
Atom   3O    basis set group =>   3
Atom   4C    basis set group =>   2
Atom   5H    basis set group =>   4
Atom   6H    basis set group =>   4
Atom   7C    basis set group =>   2
Atom   8H    basis set group =>   4
Atom   9H    basis set group =>   4
Atom  10C    basis set group =>   2
Atom  11O    basis set group =>   3
Atom  12O    basis set group =>   3
Atom  13H    basis set group =>   4
Atom  14H    basis set group =>   4
Atom  15H    basis set group =>   4
Atom  16H    basis set group =>   4
Atom  17N    basis set group =>   1
Atom  18C    basis set group =>   2
Atom  19C    basis set group =>   2
Atom  20O    basis set group =>   3
Atom  21H    basis set group =>   4
Atom  22C    basis set group =>   2
Atom  23H    basis set group =>   4
Atom  24S    basis set group =>   5
Atom  25H    basis set group =>   4
Atom  26H    basis set group =>   4
Atom  27H    basis set group =>   4
Atom  28N    basis set group =>   1
Atom  29C    basis set group =>   2
Atom  30C    basis set group =>   2
Atom  31O    basis set group =>   3
Atom  32H    basis set group =>   4
Atom  33H    basis set group =>   4
Atom  34C    basis set group =>   2
Atom  35H    basis set group =>   4
Atom  36H    basis set group =>   4
Atom  37C    basis set group =>   2
Atom  38H    basis set group =>   4
Atom  39C    basis set group =>   2
Atom  40H    basis set group =>   4
Atom  41H    basis set group =>   4
Atom  42H    basis set group =>   4
Atom  43C    basis set group =>   2
Atom  44H    basis set group =>   4
Atom  45H    basis set group =>   4
Atom  46H    basis set group =>   4
Atom  47N    basis set group =>   1
Atom  48C    basis set group =>   2
Atom  49C    basis set group =>   2
Atom  50O    basis set group =>   3
Atom  51C    basis set group =>   2
Atom  52C    basis set group =>   2
Atom  53C    basis set group =>   2
Atom  54C    basis set group =>   2
Atom  55N    basis set group =>   1
Atom  56H    basis set group =>   4
Atom  57H    basis set group =>   4
Atom  58H    basis set group =>   4
Atom  59H    basis set group =>   4
Atom  60H    basis set group =>   4
Atom  61H    basis set group =>   4
Atom  62H    basis set group =>   4
Atom  63H    basis set group =>   4
Atom  64H    basis set group =>   4
Atom  65H    basis set group =>   4
Atom  66H    basis set group =>   4
Atom  67H    basis set group =>   4
Atom  68N    basis set group =>   1
Atom  69C    basis set group =>   2
Atom  70C    basis set group =>   2
Atom  71O    basis set group =>   3
Atom  72C    basis set group =>   2
Atom  73C    basis set group =>   2
Atom  74C    basis set group =>   2
Atom  75C    basis set group =>   2
Atom  76C    basis set group =>   2
Atom  77C    basis set group =>   2
Atom  78C    basis set group =>   2
Atom  79H    basis set group =>   4
Atom  80H    basis set group =>   4
Atom  81H    basis set group =>   4
Atom  82H    basis set group =>   4
Atom  83H    basis set group =>   4
Atom  84H    basis set group =>   4
Atom  85H    basis set group =>   4
Atom  86H    basis set group =>   4
Atom  87H    basis set group =>   4
Atom  88N    basis set group =>   1
Atom  89C    basis set group =>   2
Atom  90C    basis set group =>   2
Atom  91O    basis set group =>   3
Atom  92C    basis set group =>   2
Atom  93C    basis set group =>   2
Atom  94C    basis set group =>   2
Atom  95O    basis set group =>   3
Atom  96N    basis set group =>   1
Atom  97H    basis set group =>   4
Atom  98H    basis set group =>   4
Atom  99H    basis set group =>   4
Atom 100H    basis set group =>   4
Atom 101H    basis set group =>   4
Atom 102H    basis set group =>   4
Atom 103H    basis set group =>   4
Atom 104H    basis set group =>   4
Atom 105N    basis set group =>   1
Atom 106C    basis set group =>   2
Atom 107C    basis set group =>   2
Atom 108O    basis set group =>   3
Atom 109C    basis set group =>   2
Atom 110C    basis set group =>   2
Atom 111C    basis set group =>   2
Atom 112C    basis set group =>   2
Atom 113C    basis set group =>   2
Atom 114C    basis set group =>   2
Atom 115C    basis set group =>   2
Atom 116H    basis set group =>   4
Atom 117H    basis set group =>   4
Atom 118H    basis set group =>   4
Atom 119H    basis set group =>   4
Atom 120H    basis set group =>   4
Atom 121H    basis set group =>   4
Atom 122H    basis set group =>   4
Atom 123H    basis set group =>   4
Atom 124H    basis set group =>   4
Atom 125O    basis set group =>   3
Atom 126H    basis set group =>   4
---------------------------------
AUXILIARY/J BASIS SET INFORMATION
---------------------------------
There are 5 groups of distinct atoms

 Group   1 Type N   : 12s5p4d2f1g contracted to 6s4p3d1f1g pattern {711111/2111/211/2/1}
 Group   2 Type C   : 12s5p4d2f1g contracted to 6s4p3d1f1g pattern {711111/2111/211/2/1}
 Group   3 Type O   : 12s5p4d2f1g contracted to 6s4p3d1f1g pattern {711111/2111/211/2/1}
 Group   4 Type H   : 5s2p1d contracted to 3s1p1d pattern {311/2/1}
 Group   5 Type S   : 14s5p5d2f1g contracted to 8s4p3d1f1g pattern {71111111/2111/311/2/1}

Atom   0N    basis set group =>   1
Atom   1C    basis set group =>   2
Atom   2C    basis set group =>   2
Atom   3O    basis set group =>   3
Atom   4C    basis set group =>   2
Atom   5H    basis set group =>   4
Atom   6H    basis set group =>   4
Atom   7C    basis set group =>   2
Atom   8H    basis set group =>   4
Atom   9H    basis set group =>   4
Atom  10C    basis set group =>   2
Atom  11O    basis set group =>   3
Atom  12O    basis set group =>   3
Atom  13H    basis set group =>   4
Atom  14H    basis set group =>   4
Atom  15H    basis set group =>   4
Atom  16H    basis set group =>   4
Atom  17N    basis set group =>   1
Atom  18C    basis set group =>   2
Atom  19C    basis set group =>   2
Atom  20O    basis set group =>   3
Atom  21H    basis set group =>   4
Atom  22C    basis set group =>   2
Atom  23H    basis set group =>   4
Atom  24S    basis set group =>   5
Atom  25H    basis set group =>   4
Atom  26H    basis set group =>   4
Atom  27H    basis set group =>   4
Atom  28N    basis set group =>   1
Atom  29C    basis set group =>   2
Atom  30C    basis set group =>   2
Atom  31O    basis set group =>   3
Atom  32H    basis set group =>   4
Atom  33H    basis set group =>   4
Atom  34C    basis set group =>   2
Atom  35H    basis set group =>   4
Atom  36H    basis set group =>   4
Atom  37C    basis set group =>   2
Atom  38H    basis set group =>   4
Atom  39C    basis set group =>   2
Atom  40H    basis set group =>   4
Atom  41H    basis set group =>   4
Atom  42H    basis set group =>   4
Atom  43C    basis set group =>   2
Atom  44H    basis set group =>   4
Atom  45H    basis set group =>   4
Atom  46H    basis set group =>   4
Atom  47N    basis set group =>   1
Atom  48C    basis set group =>   2
Atom  49C    basis set group =>   2
Atom  50O    basis set group =>   3
Atom  51C    basis set group =>   2
Atom  52C    basis set group =>   2
Atom  53C    basis set group =>   2
Atom  54C    basis set group =>   2
Atom  55N    basis set group =>   1
Atom  56H    basis set group =>   4
Atom  57H    basis set group =>   4
Atom  58H    basis set group =>   4
Atom  59H    basis set group =>   4
Atom  60H    basis set group =>   4
Atom  61H    basis set group =>   4
Atom  62H    basis set group =>   4
Atom  63H    basis set group =>   4
Atom  64H    basis set group =>   4
Atom  65H    basis set group =>   4
Atom  66H    basis set group =>   4
Atom  67H    basis set group =>   4
Atom  68N    basis set group =>   1
Atom  69C    basis set group =>   2
Atom  70C    basis set group =>   2
Atom  71O    basis set group =>   3
Atom  72C    basis set group =>   2
Atom  73C    basis set group =>   2
Atom  74C    basis set group =>   2
Atom  75C    basis set group =>   2
Atom  76C    basis set group =>   2
Atom  77C    basis set group =>   2
Atom  78C    basis set group =>   2
Atom  79H    basis set group =>   4
Atom  80H    basis set group =>   4
Atom  81H    basis set group =>   4
Atom  82H    basis set group =>   4
Atom  83H    basis set group =>   4
Atom  84H    basis set group =>   4
Atom  85H    basis set group =>   4
Atom  86H    basis set group =>   4
Atom  87H    basis set group =>   4
Atom  88N    basis set group =>   1
Atom  89C    basis set group =>   2
Atom  90C    basis set group =>   2
Atom  91O    basis set group =>   3
Atom  92C    basis set group =>   2
Atom  93C    basis set group =>   2
Atom  94C    basis set group =>   2
Atom  95O    basis set group =>   3
Atom  96N    basis set group =>   1
Atom  97H    basis set group =>   4
Atom  98H    basis set group =>   4
Atom  99H    basis set group =>   4
Atom 100H    basis set group =>   4
Atom 101H    basis set group =>   4
Atom 102H    basis set group =>   4
Atom 103H    basis set group =>   4
Atom 104H    basis set group =>   4
Atom 105N    basis set group =>   1
Atom 106C    basis set group =>   2
Atom 107C    basis set group =>   2
Atom 108O    basis set group =>   3
Atom 109C    basis set group =>   2
Atom 110C    basis set group =>   2
Atom 111C    basis set group =>   2
Atom 112C    basis set group =>   2
Atom 113C    basis set group =>   2
Atom 114C    basis set group =>   2
Atom 115C    basis set group =>   2
Atom 116H    basis set group =>   4
Atom 117H    basis set group =>   4
Atom 118H    basis set group =>   4
Atom 119H    basis set group =>   4
Atom 120H    basis set group =>   4
Atom 121H    basis set group =>   4
Atom 122H    basis set group =>   4
Atom 123H    basis set group =>   4
Atom 124H    basis set group =>   4
Atom 125O    basis set group =>   3
Atom 126H    basis set group =>   4
------------------------------------------------------------------------------
                           ORCA GTO INTEGRAL CALCULATION
                           -- RI-GTO INTEGRALS CHOSEN --
------------------------------------------------------------------------------
------------------------------------------------------------------------------
                   ___                                                        
                  /   \      - P O W E R E D   B Y -                         
                 /     \                                                     
                 |  |  |   _    _      __       _____    __    __             
                 |  |  |  | |  | |    /  \     |  _  \  |  |  /  |          
                  \  \/   | |  | |   /    \    | | | |  |  | /  /          
                 / \  \   | |__| |  /  /\  \   | |_| |  |  |/  /          
                |  |  |   |  __  | /  /__\  \  |    /   |      \           
                |  |  |   | |  | | |   __   |  |    \   |  |\   \          
                \     /   | |  | | |  |  |  |  | |\  \  |  | \   \       
                 \___/    |_|  |_| |__|  |__|  |_| \__\ |__|  \__/        
                                                                              
                      - O R C A' S   B I G   F R I E N D -                    
                                      &                                       
                       - I N T E G R A L  F E E D E R -                       
                                                                              
 v1 FN, 2020, v2 2021                                                         
------------------------------------------------------------------------------


Reading SHARK input file enzym2.SHARKINP.tmp ... ok
----------------------
SHARK INTEGRAL PACKAGE
----------------------

Number of atoms                             ...    127
Number of basis functions                   ...   1616
Number of shells                            ...    966
Maximum angular momentum                    ...      2
Integral batch strategy                     ... SHARK/LIBINT Hybrid
RI-J (if used) integral strategy            ... SPLIT-RIJ (Revised 2003 algorithm where possible)
Printlevel                                  ...      1
Contraction scheme used                     ... PARTIAL GENERAL contraction
Coulomb Range Separation                    ... NOT USED
Exchange Range Separation                   ... NOT USED
Finite Nucleus Model                        ... NOT USED
Auxiliary Coulomb fitting basis             ... AVAILABLE
   # of basis functions in Aux-J            ...   3831
   # of shells in Aux-J                     ...   1277
   Maximum angular momentum in Aux-J        ...      4
Auxiliary J/K fitting basis                 ... NOT available
Auxiliary Correlation fitting basis         ... NOT available
Auxiliary 'external' fitting basis          ... NOT available
Integral threshold                          ...     1.000000e-10
Primitive cut-off                           ...     1.000000e-11
Primitive pair pre-selection threshold      ...     1.000000e-11

Calculating pre-screening integrals         ... done (  0.6 sec) Dimension = 966
Calculating pre-screening integrals (ORCA)  ... done (  5.8 sec) Dimension = 575
Organizing shell pair data                  ... done (  0.9 sec)
Shell pair information
Total number of shell pairs                 ...    467061
Shell pairs after pre-screening             ...    119549
Total number of primitive shell pairs       ...    742749
Primitive shell pairs kept                  ...    154999
          la=0 lb=0:  51867 shell pairs
          la=1 lb=0:  43172 shell pairs
          la=1 lb=1:   8379 shell pairs
          la=2 lb=0:  10824 shell pairs
          la=2 lb=1:   4673 shell pairs
          la=2 lb=2:    634 shell pairs

Calculating one electron integrals          ... done (  1.4 sec)
Calculating RI/J V-Matrix + Cholesky decomp.... done (  2.1 sec)
Calculating Nuclear repulsion               ... done (  0.0 sec) ENN=  11236.398846452357 Eh

SHARK setup successfully completed in  12.4 seconds

Maximum memory used throughout the entire GTOINT-calculation: 374.7 MB
-------------------------------------------------------------------------------
                                 ORCA SCF
-------------------------------------------------------------------------------

------------
SCF SETTINGS
------------
Hamiltonian:
 Density Functional     Method          .... DFT(GTOs)
 Exchange Functional    Exchange        .... B88
   X-Alpha parameter    XAlpha          ....  0.666667
   Becke's b parameter  XBeta           ....  0.004200
 Correlation Functional Correlation     .... P86
 LDA part of GGA corr.  LDAOpt          .... PW91-LDA
 Gradients option       PostSCFGGA      .... off
   Density functional embedding theory  .... OFF
   NL short-range parameter             ....  4.400000
 RI-approximation to the Coulomb term is turned on
   Number of AuxJ basis functions       .... 3831


General Settings:
 Integral files         IntName         .... enzym2
 Hartree-Fock type      HFTyp           .... RHF
 Total Charge           Charge          ....   -8
 Multiplicity           Mult            ....    1
 Number of Electrons    NEL             ....  496
 Basis Dimension        Dim             .... 1215
 Nuclear Repulsion      ENuc            ....  11236.3988464524 Eh

Convergence Acceleration:
 DIIS                   CNVDIIS         .... on
   Start iteration      DIISMaxIt       ....     0
   Startup error        DIISStart       ....  0.200000
   # of expansion vecs  DIISMaxEq       ....     5
   Bias factor          DIISBfac        ....   1.050
   Max. coefficient     DIISMaxC        ....  10.000
 Trust-Rad. Augm. Hess. CNVTRAH         .... auto
   Auto Start mean grad. ratio tolernc. ....  1.125000
   Auto Start start iteration           ....    20
   Auto Start num. interpolation iter.  ....    10
   Max. Number of Micro iterations      ....    16
   Max. Number of Macro iterations      .... Maxiter - #DIIS iter
   Number of Davidson start vectors     ....     2
   Converg. threshold I  (grad. norm)   ....   5.000e-05
   Converg. threshold II (energy diff.) ....   1.000e-06
   Grad. Scal. Fac. for Micro threshold ....   0.100
   Minimum threshold for Micro iter.    ....   0.010
   NR start threshold (gradient norm)   ....   0.001
   Initial trust radius                 ....   0.400
   Minimum AH scaling param. (alpha)    ....   1.000
   Maximum AH scaling param. (alpha)    .... 1000.000
   Orbital update algorithm             .... Taylor
   White noise on init. David. guess    .... on
   Maximum white noise                  ....   0.010
   Quad. conv. algorithm                .... NR
 SOSCF                  CNVSOSCF        .... on
   Start iteration      SOSCFMaxIt      ....   150
   Startup grad/error   SOSCFStart      ....  0.001000
 Level Shifting         CNVShift        .... on
   Level shift para.    LevelShift      ....    0.2500
   Turn off err/grad.   ShiftErr        ....    0.0000
 Zerner damping         CNVZerner       .... off
 Static damping         CNVDamp         .... on
   Fraction old density DampFac         ....    0.8500
   Max. Damping (<1)    DampMax         ....    0.9800
   Min. Damping (>=0)   DampMin         ....    0.0000
   Turn off err/grad.   DampErr         ....    0.0300
 Fernandez-Rico         CNVRico         .... off

SCF Procedure:
 Maximum # iterations   MaxIter         ....  1000
 SCF integral mode      SCFMode         .... Direct
   Integral package                     .... SHARK and LIBINT hybrid scheme
 Reset frequency        DirectResetFreq ....    20
 Integral Threshold     Thresh          ....  1.000e-10 Eh
 Primitive CutOff       TCut            ....  1.000e-11 Eh

Convergence Tolerance:
 Convergence Check Mode ConvCheckMode   .... Total+1el-Energy
 Convergence forced     ConvForced      .... 0
 Energy Change          TolE            ....  1.000e-06 Eh
 1-El. energy change                    ....  1.000e-03 Eh
 Orbital Gradient       TolG            ....  5.000e-05
 Orbital Rotation angle TolX            ....  5.000e-05
 DIIS Error             TolErr          ....  1.000e-06


Diagonalization of the overlap matrix:
Smallest eigenvalue                        ... 3.227e-04
Time for diagonalization                   ...    0.518 sec
Threshold for overlap eigenvalues          ... 1.000e-08
Number of eigenvalues below threshold      ... 0
Time for construction of square roots      ...    0.249 sec
Total time needed                          ...    0.770 sec

Time for model grid setup =   21.302 sec

------------------------------
INITIAL GUESS: MODEL POTENTIAL
------------------------------
Loading Hartree-Fock densities                     ... done
Calculating cut-offs                               ... done
Initializing the effective Hamiltonian             ... done
Setting up the integral package (SHARK)            ... done
Starting the Coulomb interaction                   ... done (  33.1 sec)
Reading the grid                                   ... done
Mapping shells                                     ... done
Starting the XC term evaluation                    ... done (   5.3 sec)
  promolecular density results
     # of electrons  =    487.961512954
     EX              =   -414.279834707
     EC              =    -18.105643821
     EX+EC           =   -432.385478528
Transforming the Hamiltonian                       ... done (   0.2 sec)
Diagonalizing the Hamiltonian                      ... done (   0.5 sec)
Back transforming the eigenvectors                 ... done (   0.1 sec)
Now organizing SCF variables                       ... done
                      ------------------
                      INITIAL GUESS DONE (  60.7 sec)
                      ------------------
-------------------
DFT GRID GENERATION
-------------------

General Integration Accuracy     IntAcc      ... 4.388
Radial Grid Type                 RadialGrid  ... OptM3 with GC (2021)
Angular Grid (max. ang.)         AngularGrid ... 4 (Lebedev-302)
Angular grid pruning method      GridPruning ... 4 (adaptive)
Weight generation scheme         WeightScheme... Becke
Basis function cutoff            BFCut       ... 1.0000e-10
Integration weight cutoff        WCut        ... 1.0000e-14
Angular grids for H and He will be reduced by one unit
Partially contracted basis set               ... off
Rotationally invariant grid construction     ... off

Total number of grid points                  ...   578181
Total number of batches                      ...     9101
Average number of points per batch           ...       63
Average number of grid points per atom       ...     4553
Time for grid setup =   69.044 sec

--------------
SCF ITERATIONS
--------------
ITER       Energy         Delta-E        Max-DP      RMS-DP      [F,P]     Damp
               ***  Starting incremental Fock matrix formation  ***
  0  -3322.9740254422   0.000000000000 1.52822301  0.00552823  1.0352594 0.8500
  1  -3324.3168942311  -1.342868788848 0.87300097  0.00275044  0.5566504 0.8500
                               ***Turning on DIIS***
  2  -3325.1547644372  -0.837870206114 0.77094745  0.00198888  0.3501853 0.8500
  3  -3325.6713951997  -0.516630762545 0.55958516  0.00163229  0.2223527 0.8500
  4  -3326.1335328351  -0.462137635421 0.30693483  0.00129095  0.1780712 0.8500
  5  -3326.5081472168  -0.374614381701 0.19296003  0.00106141  0.1525804 0.8500
  6  -3326.8274826782  -0.319335461347 0.21721605  0.00089935  0.1305081 0.8500
  7  -3327.1261736363  -0.298690958124 0.20941599  0.00087033  0.1110218 0.8500
  8  -3327.3729750157  -0.246801379438 0.20221463  0.00081899  0.0906757 0.8500
  9  -3327.5627369809  -0.189761965133 0.17723453  0.00073115  0.0722024 0.8500
 10  -3327.7086547650  -0.145917784128 0.14388528  0.00063186  0.0569104 0.8500
 11  -3327.8291942695  -0.120539504540 0.12233910  0.00055876  0.0449851 0.8500
 12  -3327.9369391855  -0.107744915995 0.10014424  0.00051136  0.0350161 0.8500
 13  -3328.0405954101  -0.103656224577 0.63991856  0.00323288  0.0271499 0.0000
 14  -3328.6581288354  -0.617533425332 0.03421674  0.00012623  0.0350626 0.8500
 15  -3328.6627972139  -0.004668378471 0.06223036  0.00023437  0.0323463 0.8500
 16  -3328.6681962391  -0.005399025194 0.07350083  0.00028603  0.0301685 0.8500
 17  -3328.6722272333  -0.004030994167 0.47802783  0.00195544  0.0287296 0.0000
 18  -3328.6562826818   0.015944551486 0.20209877  0.00073383  0.0286835 0.0000
 19  -3328.6785954357  -0.022312753892 0.04360686  0.00028810  0.0214144 0.0000
               *** Restarting incremental Fock matrix formation ***
                                   *** Resetting DIIS ***

 WARNING: the maximum gradient error descreased on average only by a factor   1.1
          during the last 20 iterations

                      *** Initiating the TRAH-SCF procedure ***


TRAH GRID
---------

General Integration Accuracy     IntAcc      ... 3.467
Radial Grid Type                 RadialGrid  ... OptM3 with GC (2021)
Angular Grid (max. ang.)         AngularGrid ... 1 (Lebedev-50)
Angular grid pruning method      GridPruning ... 4 (adaptive)
Weight generation scheme         WeightScheme... Becke
Basis function cutoff            BFCut       ... 1.0000e-10
Integration weight cutoff        WCut        ... 1.0000e-14
Angular grids for H and He will be reduced by one unit
Partially contracted basis set               ... off
Rotationally invariant grid construction     ... off

Total number of grid points                  ...    81218
Total number of batches                      ...     1326
Average number of points per batch           ...       61
Average number of grid points per atom       ...      640

 --------------------------------------------------------------------------------------------
   Iter.        energy            ||Error||_2        Shift      TRadius  Mac/Mic        Rej.
 --------------------------------------------------------------------------------------------
WARNING: 29 diagonal Hessian elements are negative!
    0      -3328.682295751466     3.467912e-01                     0.400 (TRAH MAcro)   No
WARNING : negative HOMO - LUMO gap : -0.059677
    0     dE    -1.170728e-02     3.692828e-01    -2.3309e-02      0.067 (TRAH MIcro)
    0     dE    -2.070008e-02     2.070478e-01    -3.9223e-02      0.236 (TRAH MIcro)
    0     dE    -2.502860e-02     1.456820e-01    -4.5697e-02      0.309 (TRAH MIcro)
    0     dE    -2.666571e-02     1.018005e-01    -4.8181e-02      0.327 (TRAH MIcro)
    0     dE    -2.780425e-02     7.824339e-02    -5.0099e-02      0.332 (TRAH MIcro)
    0     dE    -2.892991e-02     7.682262e-02    -5.2105e-02      0.332 (TRAH MIcro)
    0     dE    -3.013765e-02     7.704620e-02    -5.4368e-02      0.330 (TRAH MIcro)
    0     dE    -3.088138e-02     5.974610e-02    -5.5808e-02      0.327 (TRAH MIcro)
    0     dE    -3.158373e-02     5.279721e-02    -5.6880e-02      0.332 (TRAH MIcro)
    0     dE    -3.263633e-02     7.262500e-02    -5.8010e-02      0.354 (TRAH MIcro)
    0     dE    -3.499670e-02     1.121078e-01    -7.1137e-02      0.400 (TRAH MIcro)
    0     dE    -3.661546e-02     8.449693e-02    -1.2012e-01      0.400 (TRAH MIcro)
    0     dE    -3.750225e-02     5.964905e-02    -1.3949e-01      0.400 (TRAH MIcro)
    0     dE    -3.194335e-02     5.592146e-02    -1.8699e-01      0.292 (TRAH MIcro)
WARNING: 15 diagonal Hessian elements are negative!
    1      -3328.709595690585     7.901376e-02                     0.480 (TRAH MAcro)   No
WARNING : negative HOMO - LUMO gap : -0.023691
    1     dE    -1.029936e-04     1.515256e-01    -2.0599e-04      0.003 (TRAH MIcro)
    1     dE    -5.279107e-04     1.297832e-01    -1.0539e-03      0.042 (TRAH MIcro)
    1     dE    -1.671933e-03     9.659673e-02    -3.2780e-03      0.142 (TRAH MIcro)
    1     dE    -2.936103e-03     8.943829e-02    -5.5236e-03      0.251 (TRAH MIcro)
    1     dE    -3.669108e-03     7.735231e-02    -6.6875e-03      0.312 (TRAH MIcro)
    1     dE    -4.037713e-03     6.493453e-02    -7.2219e-03      0.344 (TRAH MIcro)
    1     dE    -4.340492e-03     5.085968e-02    -7.6586e-03      0.365 (TRAH MIcro)
    1     dE    -4.623029e-03     3.734358e-02    -8.0653e-03      0.383 (TRAH MIcro)
    1     dE    -4.747220e-03     3.700415e-02    -8.2620e-03      0.386 (TRAH MIcro)
    1     dE    -4.981626e-03     4.733066e-02    -8.6878e-03      0.383 (TRAH MIcro)
    1     dE    -5.464002e-03     8.785865e-02    -9.4923e-03      0.389 (TRAH MIcro)
    1     dE    -6.844422e-03     1.189024e-01    -1.1655e-02      0.418 (TRAH MIcro)
    1     dE    -9.400572e-03     1.024937e-01    -2.5348e-02      0.480 (TRAH MIcro)
    1     dE    -1.077384e-02     6.046846e-02    -3.7272e-02      0.480 (TRAH MIcro)
WARNING: 16 diagonal Hessian elements are negative!
    2      -3328.712719597621     1.532411e-01                     0.480 (TRAH MAcro)   No
WARNING : negative HOMO - LUMO gap : -0.028814
    2     dE    -1.536257e-03     3.863245e-01    -3.0713e-03      0.020 (TRAH MIcro)
    2     dE    -2.943490e-03     2.015413e-01    -5.8464e-03      0.083 (TRAH MIcro)
    2     dE    -3.350178e-03     1.551625e-01    -6.6309e-03      0.102 (TRAH MIcro)
    2     dE    -3.892538e-03     8.208848e-02    -7.6466e-03      0.135 (TRAH MIcro)
    2     dE    -4.430052e-03     4.573136e-02    -8.6091e-03      0.171 (TRAH MIcro)
    2     dE    -4.665761e-03     3.824954e-02    -9.0071e-03      0.190 (TRAH MIcro)
    2     dE    -4.955692e-03     3.582965e-02    -9.4584e-03      0.219 (TRAH MIcro)
    2     dE    -5.229390e-03     3.017643e-02    -9.8402e-03      0.251 (TRAH MIcro)
    2     dE    -5.403952e-03     2.676554e-02    -1.0051e-02      0.274 (TRAH MIcro)
    2     dE    -5.604054e-03     3.526006e-02    -1.0365e-02      0.285 (TRAH MIcro)
    2     dE    -5.851071e-03     3.426948e-02    -1.0813e-02      0.287 (TRAH MIcro)
    2     dE    -6.073003e-03     3.330397e-02    -1.1192e-02      0.292 (TRAH MIcro)
    2     dE    -6.560343e-03     5.838813e-02    -1.1883e-02      0.323 (TRAH MIcro)
    2     dE    -8.777886e-03     1.203627e-01    -1.6838e-02      0.480 (TRAH MIcro)
 ---------------------------------
          TRAH Step control 
 ---------------------------------
  predicted energy change = -0.008778
  actual energy  change   = 0.000161
  energy change ratio     = -0.018294
  old trust radius        = 0.480000
  new trust radius        = 0.336000
  reject step?            =  1
    3      -3328.712719597621     7.901376e-02                     0.336 (TRAH MAcro)  Yes
WARNING: 16 diagonal Hessian elements are negative!
    4      -3328.712719597630     1.532411e-01                     0.336 (TRAH MAcro)   No
[...]
WARNING: 2 diagonal Hessian elements are negative!
   63      -3328.721187633278     1.860152e-03                     7.882 (TRAH MAcro)   No
WARNING : negative HOMO - LUMO gap : -0.000481
   63     dE    -1.291616e-07     4.491223e-03    -2.5838e-07      0.000 (TRAH MIcro)
   63     dE    -1.362548e-07     4.479384e-03    -2.7251e-07      0.000 (TRAH MIcro)
   63     dE    -2.030960e-07     4.123593e-03    -4.0619e-07      0.001 (TRAH MIcro)
   63     dE    -2.720251e-07     3.403588e-03    -5.4405e-07      0.002 (TRAH MIcro)
   63     dE    -2.806641e-07     3.291446e-03    -5.6133e-07      0.002 (TRAH MIcro)
   63     dE    -3.080688e-07     2.766885e-03    -6.1613e-07      0.002 (TRAH MIcro)
   63     dE    -3.369269e-07     2.137913e-03    -6.7385e-07      0.003 (TRAH MIcro)
   63     dE    -4.301091e-07     8.995070e-04    -8.6021e-07      0.004 (TRAH MIcro)
   63     dE    -4.883938e-07     8.157487e-04    -9.7677e-07      0.004 (TRAH MIcro)
   63     dE    -5.580226e-07     1.053899e-03    -1.1160e-06      0.006 (TRAH MIcro)
   63     dE    -6.254309e-07     1.278591e-03    -1.2508e-06      0.007 (TRAH MIcro)
   63     dE    -7.103884e-07     1.284907e-03    -1.4207e-06      0.009 (TRAH MIcro)
   63     dE    -8.578795e-07     1.404273e-03    -1.7156e-06      0.011 (TRAH MIcro)
   63     dE    -1.013468e-06     1.336928e-03    -2.0266e-06      0.013 (TRAH MIcro)
WARNING: 2 diagonal Hessian elements are negative!
   64      -3328.721188647445     1.326812e-03                     9.459 (TRAH MAcro)   No
WARNING : negative HOMO - LUMO gap : -0.000492
   64     dE    -3.137238e-08     3.510549e-03    -6.3224e-08      0.000 (TRAH MIcro)
   64     dE    -3.734525e-08     3.512138e-03    -7.4692e-08      0.000 (TRAH MIcro)
   64     dE    -6.516192e-08     3.491013e-03    -1.3032e-07      0.001 (TRAH MIcro)
   64     dE    -7.217626e-08     3.429331e-03    -1.4435e-07      0.001 (TRAH MIcro)
   64     dE    -1.147161e-07     3.233181e-03    -2.2943e-07      0.002 (TRAH MIcro)
   64     dE    -1.445435e-07     2.811178e-03    -2.8909e-07      0.002 (TRAH MIcro)
   64     dE    -2.137090e-07     1.611443e-03    -4.2741e-07      0.003 (TRAH MIcro)
   64     dE    -3.313131e-07     9.319186e-04    -6.6261e-07      0.005 (TRAH MIcro)
   64     dE    -3.754258e-07     1.093161e-03    -7.5083e-07      0.005 (TRAH MIcro)
   64     dE    -4.545210e-07     1.147452e-03    -9.0899e-07      0.007 (TRAH MIcro)
   64     dE    -5.316978e-07     9.725175e-04    -1.0633e-06      0.009 (TRAH MIcro)
   64     dE    -5.940316e-07     9.834485e-04    -1.1880e-06      0.010 (TRAH MIcro)
   64     dE    -7.272244e-07     1.173118e-03    -1.4543e-06      0.011 (TRAH MIcro)
   64     dE    -9.920575e-07     1.786726e-03    -1.9838e-06      0.012 (TRAH MIcro)
WARNING: 2 diagonal Hessian elements are negative!
   65      -3328.721189642860     1.787998e-03                    11.350 (TRAH MAcro)   No
WARNING : negative HOMO - LUMO gap : -0.000476
   65     dE    -1.438726e-07     4.471906e-03    -2.8781e-07      0.000 (TRAH MIcro)
   65     dE    -1.541570e-07     4.445215e-03    -3.0832e-07      0.000 (TRAH MIcro)
   65     dE    -2.051594e-07     4.149966e-03    -4.1032e-07      0.001 (TRAH MIcro)
   65     dE    -2.503092e-07     3.651722e-03    -5.0062e-07      0.002 (TRAH MIcro)
   65     dE    -2.631498e-07     3.474815e-03    -5.2630e-07      0.002 (TRAH MIcro)
   65     dE    -2.959081e-07     2.744733e-03    -5.9181e-07      0.002 (TRAH MIcro)
   65     dE    -3.210495e-07     2.154873e-03    -6.4209e-07      0.003 (TRAH MIcro)
   65     dE    -4.041046e-07     9.590295e-04    -8.0820e-07      0.004 (TRAH MIcro)
   65     dE    -4.723920e-07     8.686443e-04    -9.4476e-07      0.005 (TRAH MIcro)
   65     dE    -5.477838e-07     1.169912e-03    -1.0955e-06      0.006 (TRAH MIcro)
   65     dE    -6.114836e-07     1.328395e-03    -1.2229e-06      0.007 (TRAH MIcro)
   65     dE    -6.977924e-07     1.236065e-03    -1.3955e-06      0.009 (TRAH MIcro)
   65     dE    -8.264675e-07     1.306270e-03    -1.6527e-06      0.011 (TRAH MIcro)
   65     dE    -1.008456e-06     1.454986e-03    -2.0166e-06      0.012 (TRAH MIcro)
WARNING: 2 diagonal Hessian elements are negative!
   66      -3328.721190656749     1.448938e-03                    13.620 (TRAH MAcro)   No
WARNING : negative HOMO - LUMO gap : -0.000486
   66     dE    -4.891214e-08     4.024992e-03    -9.8197e-08      0.000 (TRAH MIcro)
   66     dE    -5.420537e-08     4.003371e-03    -1.0841e-07      0.000 (TRAH MIcro)
   66     dE    -8.747764e-08     3.908374e-03    -1.7496e-07      0.001 (TRAH MIcro)
   66     dE    -9.635538e-08     3.816418e-03    -1.9271e-07      0.001 (TRAH MIcro)
   66     dE    -1.324260e-07     3.595397e-03    -2.6485e-07      0.002 (TRAH MIcro)
   66     dE    -1.733449e-07     2.879598e-03    -3.4669e-07      0.002 (TRAH MIcro)
   66     dE    -2.394852e-07     1.670415e-03    -4.7897e-07      0.003 (TRAH MIcro)
   66     dE    -3.679826e-07     1.070927e-03    -7.3595e-07      0.004 (TRAH MIcro)
   66     dE    -4.068083e-07     1.201987e-03    -8.1359e-07      0.005 (TRAH MIcro)
   66     dE    -4.768801e-07     1.246055e-03    -9.5372e-07      0.007 (TRAH MIcro)
   66     dE    -5.535891e-07     1.047847e-03    -1.1071e-06      0.008 (TRAH MIcro)
   66     dE    -6.170201e-07     9.793451e-04    -1.2339e-06      0.009 (TRAH MIcro)
   66     dE    -7.290482e-07     1.098218e-03    -1.4579e-06      0.010 (TRAH MIcro)
   66     dE    -9.398575e-07     1.665312e-03    -1.8795e-06      0.011 (TRAH MIcro)
WARNING: 2 diagonal Hessian elements are negative!
   67      -3328.721191595420     1.665016e-03                    16.344 (TRAH MAcro)   No
WARNING : negative HOMO - LUMO gap : -0.000474
   67     dE    -8.993270e-08     5.209605e-03    -1.8021e-07      0.000 (TRAH MIcro)
   67     dE    -9.697128e-08     5.181219e-03    -1.9395e-07      0.000 (TRAH MIcro)
   67     dE    -1.316890e-07     4.850299e-03    -2.6338e-07      0.001 (TRAH MIcro)
   67     dE    -1.638427e-07     4.453642e-03    -3.2769e-07      0.001 (TRAH MIcro)
   67     dE    -2.016070e-07     3.743702e-03    -4.0321e-07      0.002 (TRAH MIcro)
   67     dE    -2.379433e-07     2.648945e-03    -4.7588e-07      0.003 (TRAH MIcro)
   67     dE    -2.657638e-07     1.874357e-03    -5.3152e-07      0.003 (TRAH MIcro)
   67     dE    -3.380596e-07     8.354037e-04    -6.7611e-07      0.003 (TRAH MIcro)
   67     dE    -3.828613e-07     8.059322e-04    -7.6571e-07      0.004 (TRAH MIcro)
   67     dE    -4.674417e-07     1.087950e-03    -9.3486e-07      0.005 (TRAH MIcro)
   67     dE    -5.294776e-07     1.347340e-03    -1.0589e-06      0.006 (TRAH MIcro)
   67     dE    -6.220225e-07     1.465406e-03    -1.2440e-06      0.008 (TRAH MIcro)
   67     dE    -7.493212e-07     1.363151e-03    -1.4985e-06      0.010 (TRAH MIcro)
   67     dE    -8.939323e-07     1.269176e-03    -1.7876e-06      0.011 (TRAH MIcro)
WARNING: 2 diagonal Hessian elements are negative!
   68      -3328.721192494391     1.269670e-03                    19.613 (TRAH MAcro)   No
WARNING : negative HOMO - LUMO gap : -0.000481
   68     dE    -4.912677e-08     3.710465e-03    -9.8535e-08      0.000 (TRAH MIcro)
   68     dE    -5.310540e-08     3.692253e-03    -1.0621e-07      0.000 (TRAH MIcro)
   68     dE    -6.867008e-08     3.724051e-03    -1.3734e-07      0.001 (TRAH MIcro)
   68     dE    -8.726979e-08     3.676689e-03    -1.7454e-07      0.001 (TRAH MIcro)
   68     dE    -1.206919e-07     3.515146e-03    -2.4138e-07      0.002 (TRAH MIcro)
   68     dE    -1.659313e-07     2.718651e-03    -3.3186e-07      0.002 (TRAH MIcro)
   68     dE    -2.257723e-07     1.684689e-03    -4.5154e-07      0.003 (TRAH MIcro)
   68     dE    -3.524237e-07     1.048314e-03    -7.0483e-07      0.005 (TRAH MIcro)
   68     dE    -4.406489e-07     1.247199e-03    -8.8126e-07      0.007 (TRAH MIcro)
   68     dE    -4.946235e-07     1.143796e-03    -9.8919e-07      0.008 (TRAH MIcro)
   68     dE    -5.331390e-07     9.994452e-04    -1.0662e-06      0.008 (TRAH MIcro)
   68     dE    -5.983075e-07     9.768961e-04    -1.1965e-06      0.009 (TRAH MIcro)
   68     dE    -7.036215e-07     1.158405e-03    -1.4071e-06      0.010 (TRAH MIcro)
   68     dE    -9.030670e-07     1.679035e-03    -1.8059e-06      0.011 (TRAH MIcro)
WARNING: 2 diagonal Hessian elements are negative!
   69      -3328.721193397343     1.677310e-03                    23.536 (TRAH MAcro)   No
WARNING : negative HOMO - LUMO gap : -0.000473
   69     dE    -1.240182e-07     4.484587e-03    -2.4815e-07      0.000 (TRAH MIcro)
   69     dE    -1.290345e-07     4.456294e-03    -2.5808e-07      0.000 (TRAH MIcro)
   69     dE    -1.540214e-07     4.244720e-03    -3.0804e-07      0.001 (TRAH MIcro)
   69     dE    -1.782336e-07     4.006503e-03    -3.5647e-07      0.001 (TRAH MIcro)
   69     dE    -2.110984e-07     3.476752e-03    -4.2220e-07      0.002 (TRAH MIcro)
   69     dE    -2.493032e-07     2.558636e-03    -4.9860e-07      0.003 (TRAH MIcro)
   69     dE    -2.810987e-07     1.823908e-03    -5.6219e-07      0.003 (TRAH MIcro)
   69     dE    -3.522667e-07     8.813639e-04    -7.0452e-07      0.004 (TRAH MIcro)
   69     dE    -3.975125e-07     7.960686e-04    -7.9501e-07      0.004 (TRAH MIcro)
   69     dE    -4.773275e-07     1.069038e-03    -9.5463e-07      0.006 (TRAH MIcro)
   69     dE    -5.435160e-07     1.318319e-03    -1.0870e-06      0.007 (TRAH MIcro)
   69     dE    -6.424028e-07     1.435756e-03    -1.2847e-06      0.009 (TRAH MIcro)
   69     dE    -7.744514e-07     1.410604e-03    -1.5487e-06      0.010 (TRAH MIcro)
   69     dE    -9.132681e-07     1.318086e-03    -1.8263e-06      0.012 (TRAH MIcro)
WARNING: 2 diagonal Hessian elements are negative!
   70      -3328.721194306232     1.318285e-03                    28.243 (TRAH MAcro)   No
WARNING : negative HOMO - LUMO gap : -0.000477
   70     dE    -5.123279e-08     4.028469e-03    -1.0286e-07      0.000 (TRAH MIcro)
   70     dE    -5.356257e-08     3.990745e-03    -1.0715e-07      0.000 (TRAH MIcro)
   70     dE    -6.030944e-08     3.941639e-03    -1.2062e-07      0.000 (TRAH MIcro)
   70     dE    -9.170145e-08     3.725381e-03    -1.8340e-07      0.001 (TRAH MIcro)
   70     dE    -1.377762e-07     3.268908e-03    -2.7555e-07      0.002 (TRAH MIcro)
   70     dE    -1.972748e-07     2.055853e-03    -3.9455e-07      0.003 (TRAH MIcro)
   70     dE    -2.308637e-07     1.511985e-03    -4.6172e-07      0.003 (TRAH MIcro)
   70     dE    -3.444910e-07     1.008017e-03    -6.8897e-07      0.004 (TRAH MIcro)
   70     dE    -4.143253e-07     1.144604e-03    -8.2862e-07      0.006 (TRAH MIcro)
   70     dE    -4.550298e-07     1.234574e-03    -9.1002e-07      0.007 (TRAH MIcro)
   70     dE    -5.291985e-07     1.034993e-03    -1.0583e-06      0.008 (TRAH MIcro)
   70     dE    -5.985130e-07     9.664276e-04    -1.1969e-06      0.009 (TRAH MIcro)
   70     dE    -6.821431e-07     1.072044e-03    -1.3642e-06      0.010 (TRAH MIcro)
   70     dE    -8.481362e-07     1.418436e-03    -1.6961e-06      0.011 (TRAH MIcro)
WARNING: 2 diagonal Hessian elements are negative!
   71      -3328.721195160250     1.419829e-03                    33.892 (TRAH MAcro)   No
WARNING : negative HOMO - LUMO gap : -0.000471
   71     dE    -8.713459e-08     4.214372e-03    -1.7460e-07      0.000 (TRAH MIcro)
   71     dE    -8.965574e-08     4.193701e-03    -1.7938e-07      0.000 (TRAH MIcro)
   71     dE    -1.147254e-07     3.912153e-03    -2.2945e-07      0.001 (TRAH MIcro)
   71     dE    -1.374064e-07     3.639478e-03    -2.7481e-07      0.001 (TRAH MIcro)
   71     dE    -1.713654e-07     3.015088e-03    -3.4273e-07      0.002 (TRAH MIcro)
   71     dE    -2.054496e-07     2.148150e-03    -4.1090e-07      0.003 (TRAH MIcro)
   71     dE    -2.358285e-07     1.439747e-03    -4.7165e-07      0.003 (TRAH MIcro)
   71     dE    -3.000634e-07     7.829352e-04    -6.0012e-07      0.004 (TRAH MIcro)
   71     dE    -3.409664e-07     7.997808e-04    -6.8192e-07      0.004 (TRAH MIcro)
   71     dE    -4.170766e-07     1.004827e-03    -8.3413e-07      0.006 (TRAH MIcro)
   71     dE    -4.878308e-07     1.158856e-03    -9.7561e-07      0.007 (TRAH MIcro)
   71     dE    -5.937156e-07     1.187570e-03    -1.1873e-06      0.010 (TRAH MIcro)
   71     dE    -7.267886e-07     1.252732e-03    -1.4534e-06      0.011 (TRAH MIcro)
   71     dE    -8.587509e-07     1.268146e-03    -1.7172e-06      0.012 (TRAH MIcro)
WARNING: 2 diagonal Hessian elements are negative!
   72      -3328.721196005843     1.271243e-03                    40.670 (TRAH MAcro)   No
WARNING : negative HOMO - LUMO gap : -0.000473
   72     dE    -7.378312e-08     3.316626e-03    -1.4785e-07      0.000 (TRAH MIcro)
   72     dE    -7.564976e-08     3.288988e-03    -1.5144e-07      0.000 (TRAH MIcro)
   72     dE    -8.468730e-08     3.228906e-03    -1.6938e-07      0.000 (TRAH MIcro)
   72     dE    -1.063316e-07     3.163681e-03    -2.1266e-07      0.001 (TRAH MIcro)
   72     dE    -1.517056e-07     2.828180e-03    -3.0341e-07      0.002 (TRAH MIcro)
   72     dE    -2.087417e-07     2.003373e-03    -4.1748e-07      0.003 (TRAH MIcro)
   72     dE    -2.447019e-07     1.582645e-03    -4.8940e-07      0.003 (TRAH MIcro)
   72     dE    -3.687285e-07     8.796178e-04    -7.3744e-07      0.005 (TRAH MIcro)
   72     dE    -4.313633e-07     8.713836e-04    -8.6269e-07      0.007 (TRAH MIcro)
   72     dE    -4.745209e-07     9.151305e-04    -9.4899e-07      0.007 (TRAH MIcro)
   72     dE    -5.464400e-07     8.771566e-04    -1.0928e-06      0.009 (TRAH MIcro)
   72     dE    -6.180740e-07     8.875833e-04    -1.2360e-06      0.010 (TRAH MIcro)
   72     dE    -6.941322e-07     1.078619e-03    -1.3881e-06      0.010 (TRAH MIcro)
   72     dE    -8.964683e-07     1.513404e-03    -1.7927e-06      0.012 (TRAH MIcro)
WARNING: 2 diagonal Hessian elements are negative!
   73      -3328.721196911476     1.513545e-03                    48.804 (TRAH MAcro)   No
WARNING : negative HOMO - LUMO gap : -0.000468
   73     dE    -9.608246e-08     4.487232e-03    -1.9235e-07      0.000 (TRAH MIcro)
   73     dE    -9.911636e-08     4.447165e-03    -1.9827e-07      0.000 (TRAH MIcro)
   73     dE    -1.298002e-07     4.051905e-03    -2.5960e-07      0.001 (TRAH MIcro)
   73     dE    -1.576964e-07     3.675403e-03    -3.1539e-07      0.001 (TRAH MIcro)
   73     dE    -2.023874e-07     2.861786e-03    -4.0477e-07      0.002 (TRAH MIcro)
   73     dE    -2.270500e-07     2.316075e-03    -4.5410e-07      0.003 (TRAH MIcro)
   73     dE    -2.670354e-07     1.462206e-03    -5.3407e-07      0.003 (TRAH MIcro)
   73     dE    -3.344745e-07     8.026222e-04    -6.6894e-07      0.004 (TRAH MIcro)
   73     dE    -3.783704e-07     8.041161e-04    -7.5673e-07      0.004 (TRAH MIcro)
   73     dE    -4.386153e-07     9.864505e-04    -8.7720e-07      0.006 (TRAH MIcro)
   73     dE    -5.147188e-07     1.108094e-03    -1.0294e-06      0.007 (TRAH MIcro)
   73     dE    -6.089217e-07     1.098784e-03    -1.2177e-06      0.009 (TRAH MIcro)
   73     dE    -7.379649e-07     1.188225e-03    -1.4757e-06      0.011 (TRAH MIcro)
   73     dE    -8.559955e-07     1.197222e-03    -1.7117e-06      0.013 (TRAH MIcro)
WARNING: 2 diagonal Hessian elements are negative!
   74      -3328.721197756990     1.204522e-03                    58.565 (TRAH MAcro)   No
WARNING : negative HOMO - LUMO gap : -0.000472
   74     dE    -2.624656e-08     3.427989e-03    -5.8244e-08      0.000 (TRAH MIcro)
   74     dE    -2.852978e-08     3.388124e-03    -5.7168e-08      0.000 (TRAH MIcro)
   74     dE    -3.617657e-08     3.284492e-03    -7.2357e-08      0.000 (TRAH MIcro)
   74     dE    -6.721509e-08     3.022183e-03    -1.3443e-07      0.001 (TRAH MIcro)
   74     dE    -1.175037e-07     2.415554e-03    -2.3501e-07      0.002 (TRAH MIcro)
   74     dE    -1.777072e-07     1.673592e-03    -3.5541e-07      0.003 (TRAH MIcro)
   74     dE    -2.673760e-07     8.717325e-04    -5.3474e-07      0.004 (TRAH MIcro)
   74     dE    -2.992470e-07     9.048475e-04    -5.9848e-07      0.005 (TRAH MIcro)
   74     dE    -3.459467e-07     9.786274e-04    -6.9187e-07      0.006 (TRAH MIcro)
   74     dE    -4.174513e-07     1.100061e-03    -8.3486e-07      0.007 (TRAH MIcro)
   74     dE    -4.972262e-07     9.251038e-04    -9.9437e-07      0.009 (TRAH MIcro)
   74     dE    -5.775910e-07     8.132301e-04    -1.1551e-06      0.010 (TRAH MIcro)
   74     dE    -6.388826e-07     9.402291e-04    -1.2776e-06      0.011 (TRAH MIcro)
   74     dE    -7.960888e-07     1.262224e-03    -1.5920e-06      0.012 (TRAH MIcro)
WARNING: 2 diagonal Hessian elements are negative!
   75      -3328.721198561794     1.270203e-03                    70.278 (TRAH MAcro)   No
WARNING : negative HOMO - LUMO gap : -0.000463
   75     dE    -6.957516e-08     3.743446e-03    -1.4021e-07      0.000 (TRAH MIcro)
   75     dE    -7.158423e-08     3.716209e-03    -1.4337e-07      0.000 (TRAH MIcro)
   75     dE    -9.798967e-08     3.439504e-03    -1.9598e-07      0.001 (TRAH MIcro)
   75     dE    -1.219577e-07     3.152329e-03    -2.4392e-07      0.001 (TRAH MIcro)
   75     dE    -1.585335e-07     2.508203e-03    -3.1707e-07      0.002 (TRAH MIcro)
   75     dE    -1.816960e-07     2.001834e-03    -3.6339e-07      0.002 (TRAH MIcro)
   75     dE    -2.137781e-07     1.319463e-03    -4.2755e-07      0.003 (TRAH MIcro)
   75     dE    -2.756169e-07     7.764316e-04    -5.5123e-07      0.004 (TRAH MIcro)
   75     dE    -3.260709e-07     8.011138e-04    -6.5213e-07      0.005 (TRAH MIcro)
   75     dE    -3.819221e-07     9.333880e-04    -7.6382e-07      0.006 (TRAH MIcro)
   75     dE    -4.691705e-07     9.475271e-04    -9.3828e-07      0.008 (TRAH MIcro)
   75     dE    -5.571183e-07     9.247736e-04    -1.1141e-06      0.010 (TRAH MIcro)
   75     dE    -6.921770e-07     1.078238e-03    -1.3842e-06      0.012 (TRAH MIcro)
   75     dE    -8.161561e-07     1.175865e-03    -1.6320e-06      0.013 (TRAH MIcro)
WARNING: 2 diagonal Hessian elements are negative!
   76      -3328.721199370924     1.186363e-03                    84.334 (TRAH MAcro)   No
WARNING : negative HOMO - LUMO gap : -0.000470
   76     dE    -5.115904e-08     3.417686e-03    -1.0467e-07      0.000 (TRAH MIcro)
   76     dE    -5.330058e-08     3.380877e-03    -1.0670e-07      0.000 (TRAH MIcro)
   76     dE    -6.199433e-08     3.287340e-03    -1.2400e-07      0.000 (TRAH MIcro)
   76     dE    -8.252784e-08     3.198318e-03    -1.6506e-07      0.001 (TRAH MIcro)
   76     dE    -1.373645e-07     2.658920e-03    -2.7473e-07      0.002 (TRAH MIcro)
   76     dE    -1.736257e-07     2.238206e-03    -3.4725e-07      0.003 (TRAH MIcro)
   76     dE    -2.226820e-07     1.658029e-03    -4.4536e-07      0.004 (TRAH MIcro)
   76     dE    -3.309150e-07     8.632115e-04    -6.6181e-07      0.005 (TRAH MIcro)
   76     dE    -3.707708e-07     8.805483e-04    -7.4151e-07      0.006 (TRAH MIcro)
   76     dE    -4.442598e-07     9.662241e-04    -8.8847e-07      0.008 (TRAH MIcro)
   76     dE    -5.228985e-07     8.997469e-04    -1.0457e-06      0.009 (TRAH MIcro)
   76     dE    -5.937909e-07     7.765149e-04    -1.1874e-06      0.011 (TRAH MIcro)
   76     dE    -6.664943e-07     9.470911e-04    -1.3328e-06      0.011 (TRAH MIcro)
   76     dE    -8.444934e-07     1.340727e-03    -1.6887e-06      0.012 (TRAH MIcro)
WARNING: 2 diagonal Hessian elements are negative!
   77      -3328.721200219202     1.349879e-03                   101.200 (TRAH MAcro)   No
WARNING : negative HOMO - LUMO gap : -0.000463
