
                                 *****************
                                 * O   R   C   A *
                                 *****************

           --- An Ab Initio, DFT and Semiempirical electronic structure package ---

                  #######################################################
                  #                        -***-                        #
                  #          Department of theory and spectroscopy      #
                  #               Directorship: Frank Neese             #
                  #        Max Planck Institute fuer Kohlenforschung    #
                  #                Kaiser Wilhelm Platz 1               #
                  #                 D-45470 Muelheim/Ruhr               #
                  #                      Germany                        #
                  #                                                     #
                  #                  All rights reserved                #
                  #                        -***-                        #
                  #######################################################


                         Program Version 4.2.1 -  RELEASE  -


 With contributions from (in alphabetic order):
   Daniel Aravena         : Magnetic Suceptibility
   Michael Atanasov       : Ab Initio Ligand Field Theory (pilot matlab implementation)
   Alexander A. Auer      : GIAO ZORA, VPT2
   Ute Becker             : Parallelization
   Giovanni Bistoni       : ED, misc. LED, open-shell LED, HFLD
   Martin Brehm           : Molecular dynamics
   Dmytro Bykov           : SCF Hessian
   Vijay G. Chilkuri      : MRCI spin determinant printing, contributions to CSF-ICE
   Dipayan Datta          : RHF DLPNO-CCSD density
   Achintya Kumar Dutta   : EOM-CC, STEOM-CC
   Dmitry Ganyushin       : Spin-Orbit,Spin-Spin,Magnetic field MRCI
   Miquel Garcia          : C-PCM Hessian, Gaussian charge scheme
   Yang Guo               : DLPNO-NEVPT2, CIM, IAO-localization
   Andreas Hansen         : Spin unrestricted coupled pair/coupled cluster methods
   Benjamin Helmich-Paris : CASSCF linear response (MC-RPA)
   Lee Huntington         : MR-EOM, pCC
   Robert Izsak           : Overlap fitted RIJCOSX, COSX-SCS-MP3, EOM
   Christian Kollmar      : KDIIS, OOCD, Brueckner-CCSD(T), CCSD density
   Simone Kossmann        : Meta GGA functionals, TD-DFT gradient, OOMP2, MP2 Hessian
   Martin Krupicka        : AUTO-CI
   Lucas Lang             : DCDCAS
   Dagmar Lenk            : GEPOL surface, SMD
   Dimitrios Liakos       : Extrapolation schemes; Compound Job, initial MDCI parallelization
   Dimitrios Manganas     : Further ROCIS development; embedding schemes
   Dimitrios Pantazis     : SARC Basis sets
   Taras Petrenko         : DFT Hessian,TD-DFT gradient, ASA, ECA, R-Raman, ABS, FL, XAS/XES, NRVS
   Peter Pinski           : DLPNO-MP2, DLPNO-MP2 Gradient
   Christoph Reimann      : Effective Core Potentials
   Marius Retegan         : Local ZFS, SOC
   Christoph Riplinger    : Optimizer, TS searches, QM/MM, DLPNO-CCSD(T), (RO)-DLPNO pert. Triples
   Tobias Risthaus        : Range-separated hybrids, TD-DFT gradient, RPA, STAB
   Michael Roemelt        : Original ROCIS implementation
   Masaaki Saitow         : Open-shell DLPNO-CCSD energy and density
   Barbara Sandhoefer     : DKH picture change effects
   Avijit Sen             : IP-ROCIS
   Kantharuban Sivalingam : CASSCF convergence, NEVPT2, FIC-MRCI
   Bernardo de Souza      : ESD, SOC TD-DFT
   Georgi Stoychev        : AutoAux, RI-MP2 NMR
   Willem Van den Heuvel  : Paramagnetic NMR
   Boris Wezisla          : Elementary symmetry handling
   Frank Wennmohs         : Technical directorship


 We gratefully acknowledge several colleagues who have allowed us to
 interface, adapt or use parts of their codes:
   Stefan Grimme, W. Hujo, H. Kruse,             : VdW corrections, initial TS optimization,
                  C. Bannwarth                     DFT functionals, gCP, sTDA/sTD-DF
   Ed Valeev, F. Pavosevic, A. Kumar             : LibInt (2-el integral package), F12 methods
   Garnet Chan, S. Sharma, J. Yang, R. Olivares  : DMRG
   Ulf Ekstrom                                   : XCFun DFT Library
   Mihaly Kallay                                 : mrcc  (arbitrary order and MRCC methods)
   Andreas Klamt, Michael Diedenhofen            : otool_cosmo (COSMO solvation model)
   Jiri Pittner, Ondrej Demel                    : Mk-CCSD
   Frank Weinhold                                : gennbo (NPA and NBO analysis)
   Christopher J. Cramer and Donald G. Truhlar   : smd solvation model
   Lars Goerigk                                  : TD-DFT with DH, B97 family of functionals
   V. Asgeirsson, H. Jonsson                     : NEB implementation
   FAccTs GmbH                                   : IRC, NEB, NEB-TS, Multilevel, MM, QM/MM, CI optimization
   S Lehtola, MJT Oliveira, MAL Marques          : LibXC Library


 Your calculation uses the libint2 library for the computation of 2-el integrals
 For citations please refer to: http://libint.valeyev.net

 Your ORCA version has been built with support for libXC version: 4.2.3
 For citations please refer to: https://tddft.org/programs/libxc/

 This ORCA versions uses:
   CBLAS   interface :  Fast vector & matrix operations
   LAPACKE interface :  Fast linear algebra routines


----- Orbital basis set information -----
Your calculation utilizes the basis: def2-SVP
   F. Weigend and R. Ahlrichs, Phys. Chem. Chem. Phys. 7, 3297 (2005).

================================================================================
                                        WARNINGS
                       Please study these warnings very carefully!
================================================================================


WARNING: Gradients are needed
  ===> : At least TightSCF should be used for SCF convergence

WARNING: Geometry Optimization
  ===> : Switching off AutoStart
         For restart on a previous wavefunction, please use MOREAD

INFO   : the flag for use of LIBINT has been found!

================================================================================
                                       INPUT FILE
================================================================================
NAME = products5.inp
|  1> !B3LYP DEF2-SVP OPT FREQ
|  2> 
|  3> %scf
|  4> Convergence loose
|  5> end
|  6> 
|  7> %geom
|  8> Convergence loose
|  9> end
| 10> 
| 11> * xyz 1 1
| 12>    C       -6.32863        0.34936       -0.59920
| 13>    C       -6.45053        0.08124       -1.97835
| 14>    C       -6.06815       -1.13868       -2.54582
| 15>    C       -5.52744       -2.13640       -1.74144
| 16>    C       -5.39342       -1.90793       -0.36895
| 17>    C       -5.79438       -0.69065        0.18142
| 18>    C       -6.73243        1.63502        0.07348
| 19>    H       -6.06657        2.46064       -0.21802
| 20>    H       -6.69275        1.51316        1.16606
| 21>    H       -7.74570        1.94970       -0.21384
| 22>    H       -6.20862       -1.27695       -3.61739
| 23>    H       -5.21709       -3.08669       -2.18125
| 24>    H       -4.97802       -2.68371        0.27921
| 25>    H       -5.69297       -0.52865        1.25761
| 26>    N       -7.00089        1.08416       -2.91283
| 27>    O       -7.40575        0.68654       -3.99369
| 28>    O       -7.01217        2.25409       -2.56004
| 29>    H        3.48166        2.10992       -2.30846
| 30> **                         ****END OF INPUT****
================================================================================

                       *****************************
                       * Geometry Optimization Run *
                       *****************************

Geometry optimization settings:
Update method            Update   .... BFGS
Choice of coordinates    CoordSys .... Z-matrix Internals
Initial Hessian          InHess   .... Almoef's Model

Convergence Tolerances:
Energy Change            TolE     ....  3.0000e-05 Eh
Max. Gradient            TolMAXG  ....  2.0000e-03 Eh/bohr
RMS Gradient             TolRMSG  ....  5.0000e-04 Eh/bohr
Max. Displacement        TolMAXD  ....  1.0000e-02 bohr
RMS Displacement         TolRMSD  ....  7.0000e-03 bohr
Strict Convergence                ....  False
------------------------------------------------------------------------------
                        ORCA OPTIMIZATION COORDINATE SETUP
------------------------------------------------------------------------------

The optimization will be done in new redundant internal coordinates
Making redundant internal coordinates   ...  (new redundants) done
Evaluating the initial hessian          ...  (Almloef) done
Evaluating the coordinates              ...  done
Calculating the B-matrix                .... done
Calculating the G-matrix                .... done
Diagonalizing the G-matrix              .... done
The first mode is                       ....  645
The number of degrees of freedom        ....   48

    -----------------------------------------------------------------
                    Redundant Internal Coordinates


    -----------------------------------------------------------------
         Definition                    Initial Value    Approx d2E/dq
    -----------------------------------------------------------------
      1. B(C   1,C   0)                  1.4102         0.580006   
      2. B(C   2,C   1)                  1.3987         0.605080   
      3. B(C   3,C   2)                  1.3910         0.622539   
      4. B(C   4,C   3)                  1.3978         0.607112   
      5. B(C   5,C   0)                  1.4058         0.589457   
      6. B(C   5,C   4)                  1.3948         0.613892   
      7. B(C   6,C   0)                  1.5061         0.407789   
      8. B(H   7,C   6)                  1.1000         0.347117   
      9. B(H   8,C   6)                  1.1001         0.347021   
     10. B(H   9,C   6)                  1.0992         0.348103   
     11. B(H  10,C   2)                  1.0895         0.360700   
     12. B(H  11,C   3)                  1.0922         0.357261   
     13. B(H  12,C   4)                  1.0929         0.356240   
     14. B(H  13,C   5)                  1.0930         0.356115   
     15. B(N  14,C   1)                  1.4772         0.406274   
     16. B(O  15,N  14)                  1.2208         0.933283   
     17. B(O  16,N  14)                  1.2220         0.929008   
     18. B(H  17,H  13)                 10.1908         0.000000   
     19. B(H  17,H  12)                 10.0619         0.000000   
     20. B(H  17,H  11)                 10.1336         0.000000   
     21. B(H  17,H   8)                 10.7679         0.000000   
     22. B(H  17,H   7)                  9.7807         0.000000   
     23. B(H  17,C   6)                 10.4989         0.000000   
     24. B(H  17,C   5)                 10.0044         0.000000   
     25. B(H  17,C   4)                  9.9334         0.000000   
     26. B(H  17,H  10)                 10.3482         0.000000   
     27. B(H  17,C   3)                  9.9758         0.000000   
     28. B(H  17,C   2)                 10.0900         0.000000   
     29. B(H  17,C   1)                 10.1426         0.000000   
     30. B(H  17,N  14)                 10.5499         0.000000   
     31. B(H  17,C   0)                 10.1125         0.000000   
     32. B(H  17,O  16)                 10.4978         0.000000   
     33. A(C   1,C   0,H  17)           87.2291         0.089143   
     34. A(C   1,C   0,C   5)          115.7994         0.425033   
     35. A(C   5,C   0,C   6)          119.0365         0.399279   
     36. A(C   5,C   0,H  17)           81.6039         0.089144   
     37. A(C   1,C   0,C   6)          125.1620         0.398146   
     38. A(C   6,C   0,H  17)          100.7759         0.089132   
     39. A(N  14,C   1,H  17)          102.0321         0.089128   
     40. A(C   2,C   1,H  17)           83.8885         0.089141   
     41. A(C   2,C   1,N  14)          115.9353         0.398293   
     42. A(C   0,C   1,N  14)          121.4524         0.395344   
     43. A(C   0,C   1,C   2)          122.6119         0.427028   
     44. A(C   0,C   1,H  17)           84.7879         0.089140   
     45. A(C   1,C   2,H  17)           88.1888         0.089148   
     46. A(C   1,C   2,H  10)          118.3234         0.351557   
     47. A(H  10,C   2,H  17)          100.7205         0.089114   
     48. A(C   3,C   2,H  10)          121.8589         0.353253   
     49. A(C   3,C   2,H  17)           81.3394         0.089149   
     50. A(C   1,C   2,C   3)          119.8175         0.432486   
     51. A(C   2,C   3,H  11)          120.1121         0.352680   
     52. A(C   4,C   3,H  11)          120.6888         0.351187   
     53. A(H  11,C   3,H  17)           95.2128         0.089125   
     54. A(C   4,C   3,H  17)           84.2406         0.089162   
     55. A(C   2,C   3,C   4)          119.1985         0.432747   
     56. A(C   2,C   3,H  17)           90.7374         0.089163   
     57. A(C   3,C   4,C   5)          120.1671         0.431661   
     58. A(C   3,C   4,H  17)           87.7110         0.089168   
     59. A(H  12,C   4,H  17)           93.6301         0.089129   
     60. A(C   5,C   4,H  12)          119.6519         0.351677   
     61. A(C   3,C   4,H  12)          120.1804         0.351017   
     62. A(C   5,C   4,H  17)           88.9047         0.089169   
     63. A(C   0,C   5,H  13)          118.1854         0.349252   
     64. A(H  13,C   5,H  17)           96.7496         0.089122   
     65. A(C   4,C   5,H  13)          119.4187         0.351656   
     66. A(C   0,C   5,H  17)           90.4052         0.089158   
     67. A(C   4,C   5,H  17)           83.0826         0.089159   
     68. A(C   0,C   5,C   4)          122.3959         0.429379   
     69. A(H   8,C   6,H   9)          108.9393         0.287627   
     70. A(H   7,C   6,H  17)           46.9229         0.089080   
     71. A(C   0,C   6,H   9)          112.0097         0.327199   
     72. A(H   7,C   6,H   8)          108.9356         0.287500   
     73. A(H   7,C   6,H   9)          105.8941         0.287640   
     74. A(C   0,C   6,H   8)          109.8375         0.327031   
     75. A(C   0,C   6,H  17)           71.1226         0.089096   
     76. A(H   8,C   6,H  17)          101.2593         0.089080   
     77. A(C   0,C   6,H   7)          111.1030         0.327046   
     78. A(H   9,C   6,H  17)          145.5427         0.089080   
     79. A(C   6,H   7,H  17)          128.3650         0.089080   
     80. A(C   6,H   8,H  17)           72.9903         0.089035   
     81. A(C   2,H  10,H  17)           73.3416         0.089050   
     82. A(C   3,H  11,H  17)           78.6257         0.089060   
     83. A(C   4,H  12,H  17)           80.1466         0.089064   
     84. A(C   5,H  13,H  17)           77.1360         0.089057   
     85. A(O  15,N  14,O  16)          124.3591         0.490197   
     86. A(C   1,N  14,O  16)          118.0874         0.424171   
     87. A(C   1,N  14,O  15)          117.5510         0.424520   
     88. A(O  16,N  14,H  17)           84.2348         0.089105   
     89. A(O  15,N  14,H  17)          114.3252         0.089105   
     90. A(C   1,N  14,H  17)           70.0971         0.089088   
     91. A(N  14,O  16,H  17)           89.1144         0.089110   
     92. A(C   5,H  17,H  13)            6.1143         0.089000   
     93. A(C   4,H  17,H  13)           12.1990         0.089000   
     94. A(C   3,H  17,H  13)           19.4137         0.089000   
     95. A(C   1,H  17,H  13)           19.1293         0.089000   
     96. A(C   0,H  17,H  13)           12.1496         0.089000   
     97. A(C   4,H  17,C   5)            8.0127         0.089000   
     98. A(C   3,H  17,C   5)           13.9154         0.089000   
     99. A(H   7,H  17,H  12)           30.8326         0.089000   
    100. A(C   2,H  17,C   5)           15.8815         0.089000   
    101. A(C   1,H  17,C   5)           13.5778         0.089000   
    102. A(C   4,H  17,H  12)            6.2233         0.089000   
    103. A(C   3,H  17,H  12)           12.3920         0.089000   
    104. A(C   0,H  17,C   5)            7.9910         0.089000   
    105. A(C   1,H  17,H  12)           22.0307         0.089000   
    106. A(C   0,H  17,H  12)           19.6011         0.089000   
    107. A(H   8,H  17,H  11)           32.4810         0.089000   
    108. A(H   7,H  17,H  11)           34.6840         0.089000   
    109. A(C   6,H  17,H  11)           30.5521         0.089000   
    110. A(C   3,H  17,C   4)            8.0484         0.089000   
    111. A(C   2,H  17,C   4)           13.7699         0.089000   
    112. A(C   2,H  17,H  11)           12.2420         0.089000   
    113. A(C   1,H  17,C   4)           15.8079         0.089000   
    114. A(C   1,H  17,H  11)           19.3386         0.089000   
    115. A(C   0,H  17,H  11)           22.4586         0.089000   
    116. A(C   0,H  17,C   4)           14.0274         0.089000   
    117. A(H   8,H  17,H  10)           30.4430         0.089000   
    118. A(C   6,H  17,H  10)           26.2173         0.089000   
    119. A(C   5,H  17,H  10)           21.8154         0.089000   
    120. A(C   4,H  17,H  10)           19.2064         0.089000   
    121. A(C   3,H  17,H  10)           12.0950         0.089000   
    122. A(C   2,H  17,H  10)            5.9379         0.089000   
    123. A(C   2,H  17,C   3)            7.9232         0.089000   
    124. A(C   1,H  17,H  10)           11.9476         0.089000   
    125. A(C   0,H  17,H  10)           19.2595         0.089000   
    126. A(H   7,H  17,H  10)           28.9083         0.089000   
    127. A(C   1,H  17,C   3)           13.7489         0.089000   
    128. A(H   7,H  17,H   8)            8.3465         0.089000   
    129. A(C   0,H  17,C   3)           16.2972         0.089000   
    130. A(C   6,H  17,H   8)            5.7505         0.089000   
    131. A(C   5,H  17,H   8)           13.6106         0.089000   
    132. A(C   3,H  17,H  11)            6.1614         0.089000   
    133. A(C   4,H  17,H  11)           12.3583         0.089000   
    134. A(C   5,H  17,H  11)           19.5083         0.089000   
    135. A(C   4,H  17,H   8)           21.6215         0.089000   
    136. A(C   3,H  17,H   8)           26.4590         0.089000   
    137. A(H  13,H  17,O  16)           27.3772         0.089000   
    138. A(H  10,H  17,H  11)           14.0506         0.089000   
    139. A(C   2,H  17,H   8)           25.2373         0.089000   
    140. A(H  12,H  17,O  16)           34.1327         0.089000   
    141. A(H  11,H  17,O  16)           31.7079         0.089000   
    142. A(C   2,H  17,H  12)           19.4229         0.089000   
    143. A(C   1,H  17,H   8)           18.7610         0.089000   
    144. A(C   0,H  17,H   8)           11.2353         0.089000   
    145. A(C   5,H  17,H  12)           12.3316         0.089000   
    146. A(C   6,H  17,H  12)           26.1224         0.089000   
    147. A(C   6,H  17,O  16)           14.8850         0.089000   
    148. A(H   8,H  17,H  12)           25.3357         0.089000   
    149. A(H  10,H  17,H  12)           24.3968         0.089000   
    150. A(H  11,H  17,H  12)           14.2428         0.089000   
    151. A(C   1,H  17,C   2)            7.9227         0.089000   
    152. A(C   5,H  17,H   7)           18.5011         0.089000   
    153. A(C   2,H  17,O  16)           19.5685         0.089000   
    154. A(C   2,H  17,H  13)           21.9956         0.089000   
    155. A(C   4,H  17,H   7)           25.9135         0.089000   
    156. A(C   0,H  17,C   2)           14.0106         0.089000   
    157. A(C   3,H  17,H   7)           28.5360         0.089000   
    158. A(C   6,H  17,H  13)           14.7684         0.089000   
    159. A(H  13,H  17,N  14)           25.8865         0.089000   
    160. A(C   2,H  17,H   7)           24.8523         0.089000   
    161. A(C   1,H  17,H   7)           17.1058         0.089000   
    162. A(H  10,H  17,N  14)           14.1858         0.089000   
    163. A(H   8,H  17,N  14)           22.2177         0.089000   
    164. A(C   0,H  17,H   7)           12.3280         0.089000   
    165. A(C   6,H  17,N  14)           16.6527         0.089000   
    166. A(C   4,H  17,N  14)           23.6668         0.089000   
    167. A(C   5,H  17,C   6)           13.7908         0.089000   
    168. A(C   3,H  17,N  14)           20.6979         0.089000   
    169. A(C   2,H  17,N  14)           13.3281         0.089000   
    170. A(C   4,H  17,C   6)           21.2800         0.089000   
    171. A(C   1,H  17,N  14)            7.8708         0.089000   
    172. A(C   5,H  17,N  14)           20.8951         0.089000   
    173. A(C   0,H  17,N  14)           13.7935         0.089000   
    174. A(H   7,H  17,N  14)           17.3948         0.089000   
    175. A(C   3,H  17,C   6)           24.3913         0.089000   
    176. A(C   0,H  17,C   1)            7.9830         0.089000   
    177. A(H  11,H  17,N  14)           25.5689         0.089000   
    178. A(H  12,H  17,N  14)           29.8899         0.089000   
    179. A(C   2,H  17,C   6)           21.5633         0.089000   
    180. A(H  12,H  17,H  13)           14.0051         0.089000   
    181. A(C   0,H  17,O  16)           15.5702         0.089000   
    182. A(C   1,H  17,O  16)           12.7476         0.089000   
    183. A(C   1,H  17,C   6)           14.2760         0.089000   
    184. A(C   3,H  17,O  16)           26.4218         0.089000   
    185. A(C   4,H  17,O  16)           28.0075         0.089000   
    186. A(C   5,H  17,O  16)           23.5036         0.089000   
    187. A(H  11,H  17,H  13)           24.4973         0.089000   
    188. A(H   7,H  17,O  16)           13.7765         0.089000   
    189. A(H   8,H  17,O  16)           20.6046         0.089000   
    190. A(H  10,H  17,O  16)           20.8365         0.089000   
    191. A(H  10,H  17,H  13)           27.9298         0.089000   
    192. A(C   0,H  17,C   6)            8.1015         0.089000   
    193. A(H   8,H  17,H  13)           12.0602         0.089000   
    194. A(N  14,H  17,O  16)            6.6508         0.089000   
    195. A(H   7,H  17,H  13)           19.1968         0.089000   
    196. D(N  14,C   1,C   0,H  17)   -100.9284         0.026963   
    197. D(C   2,C   1,C   0,C   6)   -179.4400         0.026963   
    198. D(N  14,C   1,C   0,C   5)    179.7776         0.026963   
    199. D(H  17,C   1,C   0,C   5)    -79.2941         0.026963   
    200. D(N  14,C   1,C   0,C   6)      0.3090         0.026963   
    201. D(C   2,C   1,C   0,C   5)      0.0285         0.026963   
    202. D(C   2,C   1,C   0,H  17)     79.3226         0.026963   
    203. D(H  17,C   1,C   0,C   6)    101.2374         0.026963   
    204. D(C   3,C   2,C   1,H  17)     78.9441         0.029497   
    205. D(H  10,C   2,C   1,N  14)     -0.7770         0.029497   
    206. D(C   3,C   2,C   1,C   0)     -0.8627         0.029497   
    207. D(H  17,C   2,C   1,C   0)    -79.8067         0.029497   
    208. D(C   3,C   2,C   1,N  14)    179.3754         0.029497   
    209. D(H  10,C   2,C   1,H  17)   -101.2084         0.029497   
    210. D(H  10,C   2,C   1,C   0)    178.9849         0.029497   
    211. D(H  17,C   2,C   1,N  14)    100.4313         0.029497   
    212. D(H  17,C   3,C   2,H  10)     97.2893         0.031345   
    213. D(C   4,C   3,C   2,H  10)   -178.8978         0.031345   
    214. D(H  11,C   3,C   2,H  17)    -96.4596         0.031345   
    215. D(H  11,C   3,C   2,H  10)      0.8297         0.031345   
    216. D(H  11,C   3,C   2,C   1)   -179.3282         0.031345   
    217. D(C   4,C   3,C   2,H  17)     83.8129         0.031345   
    218. D(C   4,C   3,C   2,C   1)      0.9443         0.031345   
    219. D(H  17,C   3,C   2,C   1)    -82.8687         0.031345   
    220. D(C   5,C   4,C   3,H  11)   -179.9445         0.029709   
    221. D(C   5,C   4,C   3,C   2)     -0.2187         0.029709   
    222. D(H  17,C   4,C   3,H  11)     92.6554         0.029709   
    223. D(C   5,C   4,C   3,H  17)     87.4001         0.029709   
    224. D(H  17,C   4,C   3,C   2)    -87.6188         0.029709   
    225. D(H  12,C   4,C   3,H  17)    -92.8692         0.029709   
    226. D(H  12,C   4,C   3,C   2)    179.5121         0.029709   
    227. D(H  12,C   4,C   3,H  11)     -0.2138         0.029709   
    228. D(H  17,C   5,C   4,H  12)     93.5537         0.030421   
    229. D(H  13,C   5,C   0,H  17)     97.8821         0.027902   
    230. D(H  17,C   5,C   0,C   1)     82.7831         0.027902   
    231. D(C   4,C   5,C   0,C   6)   -179.7728         0.027902   
    232. D(H  13,C   5,C   4,C   3)    179.4151         0.030421   
    233. D(H  13,C   5,C   4,H  12)     -0.3170         0.030421   
    234. D(C   0,C   5,C   4,C   3)     -0.6445         0.030421   
    235. D(C   0,C   5,C   4,H  12)    179.6233         0.030421   
    236. D(H  13,C   5,C   4,H  17)    -93.8707         0.030421   
    237. D(C   4,C   5,C   0,C   1)      0.7242         0.027902   
    238. D(H  17,C   5,C   4,C   3)    -86.7141         0.030421   
    239. D(H  17,C   5,C   0,C   6)    -97.7138         0.027902   
    240. D(C   0,C   5,C   4,H  17)     86.0696         0.030421   
    241. D(H  13,C   5,C   0,C   1)   -179.3348         0.027902   
    242. D(H  13,C   5,C   0,C   6)      0.1682         0.027902   
    243. D(C   4,C   5,C   0,H  17)    -82.0590         0.027902   
    244. D(H  17,C   6,C   0,C   1)    -94.2367         0.013988   
    245. D(H   7,C   6,C   0,C   1)    -69.1485         0.013988   
    246. D(H   8,C   6,C   0,H  17)    -95.5093         0.013988   
    247. D(H   9,C   6,C   0,H  17)    143.2929         0.013988   
    248. D(H   9,C   6,C   0,C   5)   -130.3965         0.013988   
    249. D(H   8,C   6,C   0,C   1)    170.2540         0.013988   
    250. D(H  17,C   6,C   0,C   5)     86.3106         0.013988   
    251. D(H   8,C   6,C   0,C   5)     -9.1988         0.013988   
    252. D(H   7,C   6,C   0,C   5)    111.3988         0.013988   
    253. D(H   9,C   6,C   0,C   1)     49.0562         0.013988   
    254. D(H   7,C   6,C   0,H  17)     25.0882         0.013988   
    255. D(H  17,H   7,C   6,H   8)     87.8116         0.121172   
    256. D(H  17,H   7,C   6,H   9)   -155.1579         0.121172   
    257. D(H  17,H   7,C   6,C   0)    -33.3169         0.121172   
    258. D(H  17,H   8,C   6,C   0)     73.8063         0.121091   
    259. D(H  17,H   8,C   6,H   9)   -163.1689         0.121091   
    260. D(H  17,H   8,C   6,H   7)    -48.0927         0.121091   
    261. D(H  17,H  10,C   2,C   3)    -86.4003         0.121963   
    262. D(H  17,H  10,C   2,C   1)     93.7553         0.121963   
    263. D(H  17,H  11,C   3,C   4)    -86.3861         0.119153   
    264. D(H  17,H  11,C   3,C   2)     93.8905         0.119153   
    265. D(H  17,H  12,C   4,C   5)    -90.8065         0.118327   
    266. D(H  17,H  12,C   4,C   3)     89.4614         0.118327   
    267. D(H  17,H  13,C   5,C   4)     85.8428         0.118225   
    268. D(H  17,H  13,C   5,C   0)    -94.1001         0.118225   
    269. D(H  17,N  14,C   1,C   0)     91.2313         0.015080   
    270. D(O  15,N  14,C   1,H  17)    107.7721         0.015080   
    271. D(O  15,N  14,C   1,C   0)   -160.9966         0.015080   
    272. D(O  15,N  14,C   1,C   2)     18.7684         0.015080   
    273. D(O  16,N  14,C   1,C   2)   -160.6847         0.015080   
    274. D(O  16,N  14,C   1,C   0)     19.5504         0.015080   
    275. D(H  17,N  14,C   1,C   2)    -89.0038         0.015080   
    276. D(O  16,N  14,C   1,H  17)    -71.6809         0.015080   
    277. D(H  17,O  16,N  14,C   1)     63.7868         0.091150   
    278. D(H  17,O  16,N  14,O  15)   -115.6258         0.091150   
    279. D(C   2,H  17,C   1,N  14)   -115.2719         0.001500   
    280. D(C   2,H  17,C   4,H  12)    150.4471         0.001500   
    281. D(C   0,H  17,C   1,N  14)    121.0833         0.001500   
    282. D(O  16,H  17,C   0,C   6)    -70.2943         0.001500   
    283. D(H  12,H  17,N  14,O  16)    125.3713         0.001500   
    284. D(C   0,H  17,C   4,C   3)     91.3592         0.001500   
    285. D(O  16,H  17,C   0,C   1)     54.9948         0.001500   
    286. D(N  14,H  17,C   0,C   5)    146.0543         0.001500   
    287. D(H  13,H  17,C   3,C   4)    -20.5830         0.001500   
    288. D(H  13,H  17,C   0,C   6)     91.7016         0.001500   
    289. D(H  13,H  17,C   0,C   1)   -143.0092         0.001500   
    290. D(C   1,H  17,N  14,O  15)   -112.0974         0.001500   
    291. D(C   0,H  17,N  14,O  16)     92.7475         0.001500   
    292. D(H  10,H  17,C   3,C   4)   -144.3242         0.001500   
    293. D(H  12,H  17,C   0,C   5)     19.2661         0.001500   
    294. D(H  11,H  17,C   0,C   6)    177.0470         0.001500   
    295. D(C   6,H  17,C   3,H  11)   -179.0861         0.001500   
    296. D(H  11,H  17,C   0,C   1)    -57.6639         0.001500   
    297. D(H  10,H  17,C   0,C   6)   -143.7521         0.001500   
    298. D(C   5,H  17,C   3,C   4)    -30.0459         0.001500   
    299. D(H  10,H  17,C   0,C   5)     98.1266         0.001500   
    300. D(H  10,H  17,C   0,C   1)    -18.4629         0.001500   
    301. D(H  13,H  17,H  11,C   3)     30.3150         0.001500   
    302. D(O  16,H  17,H  12,C   4)      9.3167         0.001500   
    303. D(H  11,H  17,C   0,C   5)     58.9256         0.001500   
    304. D(H   8,H  17,C   3,C   2)     73.1111         0.001500   
    305. D(H  12,H  17,C   0,C   1)    -97.3234         0.001500   
    306. D(H  10,H  17,C   3,H  11)     95.2851         0.001500   
    307. D(H  12,H  17,C   0,C   6)    137.3875         0.001500   
    308. D(H  12,H  17,C   3,C   2)    145.1910         0.001500   
    309. D(H  13,H  17,C   0,C   5)    -26.4197         0.001500   
    310. D(C   6,H  17,N  14,O  15)   -171.3119         0.001500   
    311. D(N  14,H  17,C   0,C   1)     29.4647         0.001500   
    312. D(N  14,H  17,C   3,H  11)    137.5396         0.001500   
    313. D(N  14,H  17,C   0,C   6)    -95.8244         0.001500   
    314. D(H  13,H  17,N  14,C   1)    -26.3042         0.001500   
    315. D(O  16,H  17,C   0,C   5)    171.5843         0.001500   
    316. D(C   1,H  17,C   4,C   5)    -59.5132         0.001500   
    317. D(C   0,H  17,C   1,C   2)   -123.6448         0.001500   
    318. D(H  11,H  17,O  16,N  14)    -20.4034         0.001500   
    319. D(C   2,H  17,C   1,C   0)    123.6448         0.001500   
    320. D(C   5,H  17,C   4,H  12)   -119.6435         0.001500   
    321. D(C   3,H  17,C   1,C   0)     93.6733         0.001500   
    322. D(H  12,H  17,H  11,C   3)     60.4099         0.001500   
    323. D(C   2,H  17,C   3,H  11)    120.3309         0.001500   
    324. D(H   8,H  17,C   0,C   6)     29.4031         0.001500   
    325. D(H   8,H  17,C   0,C   5)    -88.7182         0.001500   
    326. D(C   1,H  17,C   3,C   2)     29.9694         0.001500   
    327. D(H   8,H  17,C   0,C   1)    154.6923         0.001500   
    328. D(H   7,H  17,C   0,C   6)    -12.0269         0.001500   
    329. D(H   7,H  17,H  10,C   2)    -42.7940         0.001500   
    330. D(O  16,H  17,C   2,H  10)     94.2819         0.001500   
    331. D(H   7,H  17,C   0,C   5)   -130.1483         0.001500   
    332. D(H   7,H  17,C   0,C   1)    113.2622         0.001500   
    333. D(N  14,H  17,C   2,C   3)   -153.0252         0.001500   
    334. D(C   6,H  17,C   0,C   5)   -118.1214         0.001500   
    335. D(C   6,H  17,C   0,C   1)    125.2891         0.001500   
    336. D(C   5,H  17,H   8,C   6)    -79.8723         0.001500   
    337. D(H  13,H  17,C   2,C   3)    -61.3141         0.001500   
    338. D(C   4,H  17,H   8,C   6)    -79.2951         0.001500   
    339. D(C   3,H  17,H   8,C   6)    -63.3869         0.001500   
    340. D(H  13,H  17,C   2,C   1)     59.2194         0.001500   
    341. D(C   5,H  17,C   0,C   6)    118.1214         0.001500   
    342. D(C   5,H  17,C   0,C   1)   -116.5895         0.001500   
    343. D(H  11,H  17,C   2,H  10)    -95.0625         0.001500   
    344. D(C   4,H  17,C   0,C   6)    147.0981         0.001500   
    345. D(C   4,H  17,C   0,C   5)     28.9768         0.001500   
    346. D(C   0,H  17,H   7,C   6)     20.9444         0.001500   
    347. D(H  10,H  17,C   2,C   1)   -118.4981         0.001500   
    348. D(C   4,H  17,C   0,C   1)    -87.6128         0.001500   
    349. D(C   3,H  17,C   0,C   6)    177.0179         0.001500   
    350. D(H   7,H  17,C   2,H  10)    128.6102         0.001500   
    351. D(C   3,H  17,C   0,C   5)     58.8966         0.001500   
    352. D(C   3,H  17,C   0,C   1)    -57.6930         0.001500   
    353. D(H  12,H  17,C   6,H   7)   -178.2645         0.001500   
    354. D(H  12,H  17,C   6,C   0)    -31.0546         0.001500   
    355. D(C   6,H  17,C   2,C   3)   -101.8312         0.001500   
    356. D(C   2,H  17,C   0,C   6)   -153.5811         0.001500   
    357. D(C   2,H  17,C   0,C   5)     88.2976         0.001500   
    358. D(C   5,H  17,C   2,C   1)     59.0420         0.001500   
    359. D(C   2,H  17,C   0,C   1)    -28.2920         0.001500   
    360. D(C   4,H  17,C   2,H  10)   -151.8370         0.001500   
    361. D(C   4,H  17,C   2,C   3)    -30.8687         0.001500   
    362. D(C   1,H  17,C   0,C   6)   -125.2891         0.001500   
    363. D(C   4,H  17,C   2,C   1)     89.6649         0.001500   
    364. D(C   5,H  17,C   6,C   0)    -30.9531         0.001500   
    365. D(C   4,H  17,C   6,H   9)   -122.9081         0.001500   
    366. D(H  10,H  17,C   6,C   0)     26.1978         0.001500   
    367. D(C   5,H  17,C   2,C   3)    -61.4915         0.001500   
    368. D(C   5,H  17,C   2,H  10)    177.5402         0.001500   
    369. D(C   6,H  17,C   2,C   1)     18.7023         0.001500   
    370. D(C   3,H  17,C   2,H  10)   -120.9683         0.001500   
    371. D(C   6,H  17,C   2,H  10)    137.2004         0.001500   
    372. D(H   7,H  17,C   2,C   1)     10.1121         0.001500   
    373. D(H   7,H  17,C   2,C   3)   -110.4214         0.001500   
    374. D(N  14,H  17,C   6,C   0)     55.8626         0.001500   
    375. D(H   8,H  17,C   2,C   1)     29.8886         0.001500   
    376. D(H   8,H  17,C   2,C   3)    -90.6449         0.001500   
    377. D(H   8,H  17,C   2,H  10)    148.3868         0.001500   
    378. D(C   1,H  17,H   7,C   6)     46.6518         0.001500   
    379. D(H  10,H  17,C   2,C   3)    120.9683         0.001500   
    380. D(H  11,H  17,C   2,C   1)    146.4394         0.001500   
    381. D(H  11,H  17,C   2,C   3)     25.9058         0.001500   
    382. D(H  11,H  17,H   7,C   6)     27.0219         0.001500   
    383. D(H  12,H  17,C   2,C   1)     98.9174         0.001500   
    384. D(H  12,H  17,C   2,C   3)    -21.6161         0.001500   
    385. D(H  12,H  17,C   2,H  10)   -142.5845         0.001500   
    386. D(C   1,H  17,C   0,C   5)    116.5895         0.001500   
    387. D(H   7,H  17,H   8,C   6)     33.0526         0.001500   
    388. D(H  13,H  17,C   2,H  10)    177.7176         0.001500   
    389. D(N  14,H  17,C   2,C   1)    -32.4917         0.001500   
    390. D(N  14,H  17,H   8,C   6)    -12.6705         0.001500   
    391. D(N  14,H  17,C   2,H  10)     86.0065         0.001500   
    392. D(O  16,H  17,C   2,C   1)    -24.2163         0.001500   
    393. D(O  16,H  17,C   2,C   3)   -144.7498         0.001500   
    394. D(H   8,H  17,H  10,C   2)    -26.1738         0.001500   
    395. D(C   0,H  17,C   3,C   2)     59.5657         0.001500   
    396. D(C   0,H  17,C   3,C   4)    -59.7127         0.001500   
    397. D(C   0,H  17,C   3,H  11)    179.8966         0.001500   
    398. D(C   1,H  17,H  11,C   3)    -20.8294         0.001500   
    399. D(C   1,H  17,C   3,C   4)    -89.3090         0.001500   
    400. D(C   1,H  17,C   3,H  11)    150.3003         0.001500   
    401. D(C   2,H  17,C   3,C   4)   -119.2784         0.001500   
    402. D(C   3,H  17,C   2,C   1)    120.5335         0.001500   
    403. D(C   4,H  17,C   3,C   2)    119.2784         0.001500   
    404. D(C   4,H  17,C   3,H  11)   -120.3907         0.001500   
    405. D(C   5,H  17,C   3,C   2)     89.2325         0.001500   
    406. D(C   5,H  17,H  12,C   4)     34.5593         0.001500   
    407. D(C   5,H  17,C   3,H  11)   -150.4366         0.001500   
    408. D(C   6,H  17,C   3,C   2)     60.5830         0.001500   
    409. D(C   6,H  17,C   3,C   4)    -58.6955         0.001500   
    410. D(C   0,H  17,H  13,C   5)     35.5016         0.001500   
    411. D(H   7,H  17,C   3,C   2)     55.5367         0.001500   
    412. D(H   7,H  17,C   3,C   4)    -63.7418         0.001500   
    413. D(H   7,H  17,C   3,H  11)    175.8676         0.001500   
    414. D(H   8,H  17,H  13,C   5)     91.1537         0.001500   
    415. D(H   8,H  17,C   3,C   4)    -46.1673         0.001500   
    416. D(H   8,H  17,C   3,H  11)   -166.5580         0.001500   
    417. D(H  10,H  17,C   3,C   2)    -25.0458         0.001500   
    418. D(C   3,H  17,C   6,H   9)   -103.6627         0.001500   
    419. D(C   1,H  17,N  14,O  16)    122.6717         0.001500   
    420. D(H  11,H  17,C   3,C   2)   -120.3309         0.001500   
    421. D(H  11,H  17,C   3,C   4)    120.3907         0.001500   
    422. D(C   3,H  17,N  14,O  16)    145.2131         0.001500   
    423. D(H  12,H  17,C   3,C   4)     25.9126         0.001500   
    424. D(H  12,H  17,C   3,H  11)    -94.4781         0.001500   
    425. D(H  13,H  17,C   3,C   2)     98.6955         0.001500   
    426. D(C   6,H  17,N  14,O  16)     63.4572         0.001500   
    427. D(H  13,H  17,C   3,H  11)   -140.9736         0.001500   
    428. D(N  14,H  17,C   3,C   2)     17.2087         0.001500   
    429. D(N  14,H  17,C   3,C   4)   -102.0697         0.001500   
    430. D(H  10,H  17,N  14,C   1)     57.6356         0.001500   
    431. D(O  16,H  17,C   3,C   2)     25.7485         0.001500   
    432. D(O  16,H  17,C   3,C   4)    -93.5300         0.001500   
    433. D(O  16,H  17,C   3,H  11)    146.0794         0.001500   
    434. D(C   1,H  17,C   2,H  10)    118.4981         0.001500   
    435. D(C   0,H  17,C   4,C   5)    -28.8913         0.001500   
    436. D(C   0,H  17,C   4,H  12)   -148.5348         0.001500   
    437. D(C   1,H  17,C   4,C   3)     60.7373         0.001500   
    438. D(C   2,H  17,O  16,N  14)    -16.6476         0.001500   
    439. D(C   1,H  17,C   4,H  12)   -179.1566         0.001500   
    440. D(C   2,H  17,C   4,C   3)     30.3411         0.001500   
    441. D(C   2,H  17,C   4,C   5)    -89.9094         0.001500   
    442. D(H  12,H  17,O  16,N  14)    -46.4015         0.001500   
    443. D(C   3,H  17,C   4,C   5)   -120.2505         0.001500   
    444. D(C   3,H  17,C   4,H  12)    120.1060         0.001500   
    445. D(C   5,H  17,C   4,C   3)    120.2505         0.001500   
    446. D(C   1,H  17,C   2,C   3)   -120.5335         0.001500   
    447. D(C   6,H  17,C   4,C   3)    103.5361         0.001500   
    448. D(C   6,H  17,C   4,C   5)    -16.7144         0.001500   
    449. D(C   6,H  17,C   4,H  12)   -136.3579         0.001500   
    450. D(C   3,H  17,C   6,C   0)     -2.0259         0.001500   
    451. D(C   2,H  17,C   6,H   9)    -84.5938         0.001500   
    452. D(C   0,H  17,C   2,H  10)    147.0235         0.001500   
    453. D(C   0,H  17,C   2,C   3)    -92.0081         0.001500   
    454. D(C   1,H  17,C   6,H   9)    -74.2687         0.001500   
    455. D(C   0,H  17,C   2,C   1)     28.5254         0.001500   
    456. D(C   1,H  17,C   6,H   8)    134.6821         0.001500   
    457. D(C   1,H  17,C   6,H   7)   -119.8419         0.001500   
    458. D(O  16,H  17,C   1,N  14)     26.2207         0.001500   
    459. D(C   1,H  17,C   6,C   0)     27.3680         0.001500   
    460. D(C   0,H  17,C   6,H   9)   -101.6368         0.001500   
    461. D(O  16,H  17,C   1,C   2)    141.4926         0.001500   
    462. D(O  16,H  17,C   1,C   0)    -94.8625         0.001500   
    463. D(O  16,H  17,C   5,C   4)    116.9523         0.001500   
    464. D(N  14,H  17,C   1,C   2)    115.2719         0.001500   
    465. D(N  14,H  17,C   1,C   0)   -121.0833         0.001500   
    466. D(N  14,H  17,C   5,C   4)    100.6866         0.001500   
    467. D(N  14,H  17,C   5,C   0)    -21.9188         0.001500   
    468. D(H  13,H  17,C   1,N  14)    143.8159         0.001500   
    469. D(H  13,H  17,C   1,C   2)   -100.9122         0.001500   
    470. D(H  12,H  17,C   5,C   4)    -26.1771         0.001500   
    471. D(H  13,H  17,C   1,C   0)     22.7326         0.001500   
    472. D(H  12,H  17,C   1,N  14)   -176.4126         0.001500   
    473. D(H  11,H  17,C   5,C   4)     21.0683         0.001500   
    474. D(H  11,H  17,C   5,C   0)   -101.5371         0.001500   
    475. D(H  12,H  17,C   1,C   2)    -61.1407         0.001500   
    476. D(H  12,H  17,C   1,C   0)     62.5042         0.001500   
    477. D(H   8,H  17,C   5,H  13)    -62.5864         0.001500   
    478. D(H  11,H  17,C   1,N  14)   -136.0027         0.001500   
    479. D(H  11,H  17,C   1,C   2)    -20.7308         0.001500   
    480. D(H   7,H  17,C   5,H  13)    -87.5041         0.001500   
    481. D(H   7,H  17,C   5,C   4)    153.5565         0.001500   
    482. D(H  11,H  17,C   1,C   0)    102.9140         0.001500   
    483. D(H   7,H  17,C   5,C   0)     30.9511         0.001500   
    484. D(C   6,H  17,C   5,H  13)    -87.0286         0.001500   
    485. D(H  10,H  17,C   1,N  14)    -89.2210         0.001500   
    486. D(C   6,H  17,C   5,C   4)    154.0320         0.001500   
    487. D(C   6,H  17,C   5,C   0)     31.4266         0.001500   
    488. D(H  10,H  17,C   1,C   2)     26.0509         0.001500   
    489. D(C   4,H  17,C   5,H  13)    118.9394         0.001500   
    490. D(C   4,H  17,C   5,C   0)   -122.6054         0.001500   
    491. D(H  10,H  17,C   1,C   0)    149.6957         0.001500   
    492. D(H   8,H  17,C   5,C   0)     55.8688         0.001500   
    493. D(H   8,H  17,C   5,C   4)    178.4742         0.001500   
    494. D(C   3,H  17,C   5,H  13)    149.1319         0.001500   
    495. D(H  10,H  17,C   5,C   0)    -61.4840         0.001500   
    496. D(H  10,H  17,C   5,C   4)     61.1214         0.001500   
    497. D(H  10,H  17,C   5,H  13)   -179.9392         0.001500   
    498. D(C   3,H  17,C   5,C   4)     30.1925         0.001500   
    499. D(H   8,H  17,C   1,N  14)    106.0745         0.001500   
    500. D(H  11,H  17,C   5,H  13)    140.0077         0.001500   
    501. D(H  12,H  17,C   5,C   0)   -148.7825         0.001500   
    502. D(C   3,H  17,C   5,C   0)    -92.4129         0.001500   
    503. D(H  12,H  17,C   5,H  13)     92.7623         0.001500   
    504. D(H  13,H  17,C   5,C   0)    118.4552         0.001500   
    505. D(H  13,H  17,C   5,C   4)   -118.9394         0.001500   
    506. D(C   2,H  17,C   5,H  13)    179.3762         0.001500   
    507. D(H   8,H  17,C   1,C   2)   -138.6536         0.001500   
    508. D(N  14,H  17,C   5,H  13)   -140.3740         0.001500   
    509. D(O  16,H  17,C   5,C   0)     -5.6531         0.001500   
    510. D(C   2,H  17,C   5,C   4)     60.4368         0.001500   
    511. D(O  16,H  17,C   5,H  13)   -124.1082         0.001500   
    512. D(C   0,H  17,C   6,H   7)   -147.2100         0.001500   
    513. D(C   0,H  17,C   6,H   8)    107.3140         0.001500   
    514. D(C   2,H  17,C   5,C   0)    -62.1686         0.001500   
    515. D(H   8,H  17,C   1,C   0)    -15.0088         0.001500   
    516. D(C   1,H  17,C   5,H  13)   -150.3929         0.001500   
    517. D(C   1,H  17,C   5,C   4)     90.6676         0.001500   
    518. D(H   7,H  17,C   1,N  14)     79.2572         0.001500   
    519. D(C   2,H  17,C   6,C   0)     17.0429         0.001500   
    520. D(C   2,H  17,C   6,H   7)   -130.1670         0.001500   
    521. D(C   2,H  17,C   6,H   8)    124.3570         0.001500   
    522. D(C   1,H  17,C   5,C   0)    -31.9377         0.001500   
    523. D(C   0,H  17,C   5,H  13)   -118.4552         0.001500   
    524. D(C   3,H  17,C   6,H   7)   -149.2359         0.001500   
    525. D(C   3,H  17,C   6,H   8)    105.2881         0.001500   
    526. D(H   7,H  17,C   1,C   2)   -165.4709         0.001500   
    527. D(C   4,H  17,C   6,C   0)    -21.2713         0.001500   
    528. D(C   4,H  17,C   6,H   7)   -168.4813         0.001500   
    529. D(C   4,H  17,C   6,H   8)     86.0427         0.001500   
    530. D(C   0,H  17,C   5,C   4)    122.6054         0.001500   
    531. D(O  16,H  17,C   4,H  12)   -168.8461         0.001500   
    532. D(C   5,H  17,C   6,H   7)   -178.1631         0.001500   
    533. D(C   5,H  17,C   6,H   8)     76.3609         0.001500   
    534. D(C   5,H  17,C   6,H   9)   -132.5899         0.001500   
    535. D(H   8,H  17,C   6,C   0)   -107.3140         0.001500   
    536. D(H   8,H  17,C   6,H   7)    105.4760         0.001500   
    537. D(H   8,H  17,C   6,H   9)    151.0492         0.001500   
    538. D(H   7,H  17,C   1,C   0)    -41.8261         0.001500   
    539. D(H  10,H  17,C   6,H   7)   -121.0122         0.001500   
    540. D(H  10,H  17,C   6,H   8)    133.5118         0.001500   
    541. D(H  10,H  17,C   6,H   9)    -75.4390         0.001500   
    542. D(H  11,H  17,C   6,C   0)     -2.2188         0.001500   
    543. D(H  11,H  17,C   6,H   7)   -149.4288         0.001500   
    544. D(H  11,H  17,C   6,H   8)    105.0952         0.001500   
    545. D(H  11,H  17,C   6,H   9)   -103.8556         0.001500   
    546. D(O  16,H  17,C   4,C   5)    -49.2026         0.001500   
    547. D(O  16,H  17,C   4,C   3)     71.0479         0.001500   
    548. D(H  12,H  17,C   6,H   8)     76.2595         0.001500   
    549. D(H  12,H  17,C   6,H   9)   -132.6913         0.001500   
    550. D(H  13,H  17,C   6,C   0)    -55.6160         0.001500   
    551. D(H  13,H  17,C   6,H   7)    157.1740         0.001500   
    552. D(H  13,H  17,C   6,H   8)     51.6980         0.001500   
    553. D(H  13,H  17,C   6,H   9)   -157.2528         0.001500   
    554. D(C   6,H  17,C   1,N  14)     93.2769         0.001500   
    555. D(N  14,H  17,C   6,H   7)    -91.3473         0.001500   
    556. D(N  14,H  17,C   6,H   8)    163.1767         0.001500   
    557. D(N  14,H  17,C   6,H   9)    -45.7741         0.001500   
    558. D(O  16,H  17,C   6,C   0)     79.6500         0.001500   
    559. D(O  16,H  17,C   6,H   7)    -67.5600         0.001500   
    560. D(O  16,H  17,C   6,H   8)   -173.0360         0.001500   
    561. D(O  16,H  17,C   6,H   9)    -21.9868         0.001500   
    562. D(N  14,H  17,C   4,H  12)    179.5373         0.001500   
    563. D(N  14,H  17,C   4,C   5)    -60.8193         0.001500   
    564. D(C   2,H  17,H   7,C   6)     41.9323         0.001500   
    565. D(C   3,H  17,H   7,C   6)     26.2431         0.001500   
    566. D(C   4,H  17,H   7,C   6)      9.5457         0.001500   
    567. D(C   5,H  17,H   7,C   6)      1.3798         0.001500   
    568. D(H   8,H  17,H   7,C   6)    -41.6997         0.001500   
    569. D(H  10,H  17,H   7,C   6)     51.5588         0.001500   
    570. D(C   6,H  17,C   1,C   2)   -151.4512         0.001500   
    571. D(H  12,H  17,H   7,C   6)      1.4908         0.001500   
    572. D(H  13,H  17,H   7,C   6)    -17.5024         0.001500   
    573. D(N  14,H  17,H   7,C   6)     73.3977         0.001500   
    574. D(O  16,H  17,H   7,C   6)     94.4148         0.001500   
    575. D(C   0,H  17,H   8,C   6)    -43.6723         0.001500   
    576. D(C   1,H  17,H   8,C   6)    -33.0351         0.001500   
    577. D(C   2,H  17,H   8,C   6)    -45.3663         0.001500   
    578. D(N  14,H  17,C   4,C   3)     59.4312         0.001500   
    579. D(H  13,H  17,C   4,H  12)    -93.4678         0.001500   
    580. D(C   6,H  17,C   1,C   0)    -27.8064         0.001500   
    581. D(H  13,H  17,C   4,C   5)     26.1757         0.001500   
    582. D(H  10,H  17,H   8,C   6)    -39.2225         0.001500   
    583. D(H  11,H  17,H   8,C   6)    -66.0499         0.001500   
    584. D(H  12,H  17,H   8,C   6)    -91.8872         0.001500   
    585. D(H  13,H  17,H   8,C   6)   -106.7787         0.001500   
    586. D(H  13,H  17,C   4,C   3)    146.4262         0.001500   
    587. D(O  16,H  17,H   8,C   6)      5.0775         0.001500   
    588. D(C   0,H  17,H  10,C   2)    -23.5471         0.001500   
    589. D(C   1,H  17,H  10,C   2)    -35.8133         0.001500   
    590. D(C   3,H  17,H  10,C   2)     34.3395         0.001500   
    591. D(C   4,H  17,H  10,C   2)     19.9681         0.001500   
    592. D(C   5,H  17,H  10,C   2)     -1.8111         0.001500   
    593. D(C   6,H  17,H  10,C   2)    -34.4193         0.001500   
    594. D(C   5,H  17,C   1,N  14)    153.0565         0.001500   
    595. D(H  12,H  17,C   4,C   5)    119.6435         0.001500   
    596. D(H  11,H  17,H  10,C   2)     60.4569         0.001500   
    597. D(H  12,H  17,H  10,C   2)     29.2850         0.001500   
    598. D(H  13,H  17,H  10,C   2)     -1.8249         0.001500   
    599. D(N  14,H  17,H  10,C   2)    -69.7815         0.001500   
    600. D(O  16,H  17,H  10,C   2)    -69.8815         0.001500   
    601. D(C   0,H  17,H  11,C   3)     -0.0759         0.001500   
    602. D(H  12,H  17,C   4,C   3)   -120.1060         0.001500   
    603. D(C   2,H  17,H  11,C   3)    -34.1326         0.001500   
    604. D(C   4,H  17,H  11,C   3)     34.3529         0.001500   
    605. D(C   5,H  17,H  11,C   3)     20.8126         0.001500   
    606. D(C   6,H  17,H  11,C   3)      0.7424         0.001500   
    607. D(H   7,H  17,H  11,C   3)     -3.4682         0.001500   
    608. D(H   8,H  17,H  11,C   3)     11.1203         0.001500   
    609. D(H  10,H  17,H  11,C   3)    -59.2484         0.001500   
    610. D(C   5,H  17,C   1,C   2)    -91.6716         0.001500   
    611. D(H  11,H  17,C   4,H  12)     94.4746         0.001500   
    612. D(N  14,H  17,H  11,C   3)    -33.5617         0.001500   
    613. D(O  16,H  17,H  11,C   3)    -28.1936         0.001500   
    614. D(C   0,H  17,H  12,C   4)     22.1569         0.001500   
    615. D(C   1,H  17,H  12,C   4)      0.6125         0.001500   
    616. D(C   2,H  17,H  12,C   4)    -20.6735         0.001500   
    617. D(C   3,H  17,H  12,C   4)    -34.3612         0.001500   
    618. D(H  11,H  17,C   4,C   5)   -145.8819         0.001500   
    619. D(C   6,H  17,H  12,C   4)     34.6725         0.001500   
    620. D(H   7,H  17,H  12,C   4)     34.3944         0.001500   
    621. D(H   8,H  17,H  12,C   4)     47.8192         0.001500   
    622. D(H  10,H  17,H  12,C   4)    -29.4264         0.001500   
    623. D(H  11,H  17,H  12,C   4)    -60.1411         0.001500   
    624. D(H  13,H  17,H  12,C   4)     60.6383         0.001500   
    625. D(N  14,H  17,H  12,C   4)     -0.3727         0.001500   
    626. D(C   5,H  17,C   1,C   0)     31.9733         0.001500   
    627. D(H  11,H  17,C   4,C   3)    -25.6314         0.001500   
    628. D(C   1,H  17,H  13,C   5)     20.7284         0.001500   
    629. D(C   2,H  17,H  13,C   5)     -0.4558         0.001500   
    630. D(C   3,H  17,H  13,C   5)    -21.7904         0.001500   
    631. D(C   4,H  17,H  13,C   5)    -35.2607         0.001500   
    632. D(C   6,H  17,H  13,C   5)     69.0474         0.001500   
    633. D(H   7,H  17,H  13,C   5)     74.6092         0.001500   
    634. D(H  10,H  17,C   4,H  12)    141.9116         0.001500   
    635. D(H  10,H  17,H  13,C   5)      0.0482         0.001500   
    636. D(H  11,H  17,H  13,C   5)    -31.1708         0.001500   
    637. D(H  12,H  17,H  13,C   5)    -61.8193         0.001500   
    638. D(N  14,H  17,H  13,C   5)     31.3999         0.001500   
    639. D(O  16,H  17,H  13,C   5)     45.8957         0.001500   
    640. D(C   0,H  17,N  14,C   1)    -29.9242         0.001500   
    641. D(C   0,H  17,N  14,O  15)   -142.0216         0.001500   
    642. D(C   4,H  17,C   1,N  14)   -176.1688         0.001500   
    643. D(H  10,H  17,C   4,C   5)    -98.4450         0.001500   
    644. D(H  10,H  17,C   4,C   3)     21.8055         0.001500   
    645. D(C   2,H  17,N  14,C   1)     32.7311         0.001500   
    646. D(C   2,H  17,N  14,O  15)    -79.3663         0.001500   
    647. D(C   2,H  17,N  14,O  16)    155.4028         0.001500   
    648. D(C   3,H  17,N  14,C   1)     22.5413         0.001500   
    649. D(C   3,H  17,N  14,O  15)    -89.5561         0.001500   
    650. D(C   4,H  17,C   1,C   2)    -60.8970         0.001500   
    651. D(C   4,H  17,N  14,C   1)      2.5989         0.001500   
    652. D(C   4,H  17,N  14,O  15)   -109.4985         0.001500   
    653. D(C   4,H  17,N  14,O  16)    125.2706         0.001500   
    654. D(C   5,H  17,N  14,C   1)    -17.3529         0.001500   
    655. D(C   5,H  17,N  14,O  15)   -129.4503         0.001500   
    656. D(C   5,H  17,N  14,O  16)    105.3188         0.001500   
    657. D(C   6,H  17,N  14,C   1)    -59.2145         0.001500   
    658. D(H   8,H  17,C   4,H  12)   -120.6178         0.001500   
    659. D(H   8,H  17,C   4,C   5)     -0.9744         0.001500   
    660. D(H   7,H  17,N  14,C   1)    -75.1595         0.001500   
    661. D(H   7,H  17,N  14,O  15)    172.7432         0.001500   
    662. D(H   7,H  17,N  14,O  16)     47.5123         0.001500   
    663. D(H   8,H  17,N  14,C   1)    -54.8162         0.001500   
    664. D(H   8,H  17,N  14,O  15)   -166.9136         0.001500   
    665. D(H   8,H  17,N  14,O  16)     67.8555         0.001500   
    666. D(C   4,H  17,C   1,C   0)     62.7479         0.001500   
    667. D(H  10,H  17,N  14,O  15)    -54.4618         0.001500   
    668. D(H  10,H  17,N  14,O  16)   -179.6927         0.001500   
    669. D(H  11,H  17,N  14,C   1)     32.2059         0.001500   
    670. D(H  11,H  17,N  14,O  15)    -79.8915         0.001500   
    671. D(H  11,H  17,N  14,O  16)    154.8777         0.001500   
    672. D(H  12,H  17,N  14,C   1)      2.6995         0.001500   
    673. D(H  12,H  17,N  14,O  15)   -109.3979         0.001500   
    674. D(H   8,H  17,C   4,C   3)    119.2761         0.001500   
    675. D(H   7,H  17,C   4,H  12)   -138.5091         0.001500   
    676. D(H  13,H  17,N  14,O  15)   -138.4016         0.001500   
    677. D(H  13,H  17,N  14,O  16)     96.3675         0.001500   
    678. D(O  16,H  17,N  14,C   1)   -122.6717         0.001500   
    679. D(O  16,H  17,N  14,O  15)    125.2309         0.001500   
    680. D(C   0,H  17,O  16,N  14)    -62.5271         0.001500   
    681. D(C   1,H  17,O  16,N  14)    -31.4940         0.001500   
    682. D(C   3,H  17,C   1,N  14)   -145.2435         0.001500   
    683. D(C   3,H  17,O  16,N  14)    -26.9470         0.001500   
    684. D(C   4,H  17,O  16,N  14)    -44.2597         0.001500   
    685. D(C   5,H  17,O  16,N  14)    -59.6028         0.001500   
    686. D(C   6,H  17,O  16,N  14)    -93.6239         0.001500   
    687. D(H   7,H  17,O  16,N  14)   -112.2172         0.001500   
    688. D(H   8,H  17,O  16,N  14)    -95.6022         0.001500   
    689. D(H  10,H  17,O  16,N  14)      0.2117         0.001500   
    690. D(H   7,H  17,C   4,C   5)    -18.8657         0.001500   
    691. D(H   7,H  17,C   4,C   3)    101.3848         0.001500   
    692. D(H  13,H  17,O  16,N  14)    -70.6597         0.001500   
    693. D(C   3,H  17,C   1,C   2)    -29.9716         0.001500   
    -----------------------------------------------------------------

Number of atoms                         .... 18
Number of degrees of freedom            .... 693

         *************************************************************
         *                GEOMETRY OPTIMIZATION CYCLE   1            *
         *************************************************************
---------------------------------
CARTESIAN COORDINATES (ANGSTROEM)
---------------------------------
  C     -6.328630    0.349360   -0.599200
  C     -6.450530    0.081240   -1.978350
  C     -6.068150   -1.138680   -2.545820
  C     -5.527440   -2.136400   -1.741440
  C     -5.393420   -1.907930   -0.368950
  C     -5.794380   -0.690650    0.181420
  C     -6.732430    1.635020    0.073480
  H     -6.066570    2.460640   -0.218020
  H     -6.692750    1.513160    1.166060
  H     -7.745700    1.949700   -0.213840
  H     -6.208620   -1.276950   -3.617390
  H     -5.217090   -3.086690   -2.181250
  H     -4.978020   -2.683710    0.279210
  H     -5.692970   -0.528650    1.257610
  N     -7.000890    1.084160   -2.912830
  O     -7.405750    0.686540   -3.993690
  O     -7.012170    2.254090   -2.560040
  H      3.481660    2.109920   -2.308460

----------------------------
CARTESIAN COORDINATES (A.U.)
----------------------------
  NO LB      ZA    FRAG     MASS         X           Y           Z
   0 C     6.0000    0    12.011  -11.959378    0.660195   -1.132324
   1 C     6.0000    0    12.011  -12.189735    0.153521   -3.738540
   2 C     6.0000    0    12.011  -11.467142   -2.151793   -4.810903
   3 C     6.0000    0    12.011  -10.445348   -4.037211   -3.290845
   4 C     6.0000    0    12.011  -10.192087   -3.605465   -0.697214
   5 C     6.0000    0    12.011  -10.949791   -1.305139    0.342834
   6 C     6.0000    0    12.011  -12.722449    3.089740    0.138857
   7 H     1.0000    0     1.008  -11.464156    4.649936   -0.411998
   8 H     1.0000    0     1.008  -12.647465    2.859458    2.203534
   9 H     1.0000    0     1.008  -14.637252    3.684399   -0.404099
  10 H     1.0000    0     1.008  -11.732591   -2.413086   -6.835876
  11 H     1.0000    0     1.008   -9.858871   -5.832999   -4.121965
  12 H     1.0000    0     1.008   -9.407094   -5.071477    0.527630
  13 H     1.0000    0     1.008  -10.758154   -0.999004    2.376538
  14 N     7.0000    0    14.007  -13.229765    2.048765   -5.504451
  15 O     8.0000    0    15.999  -13.994839    1.297373   -7.546980
  16 O     8.0000    0    15.999  -13.251081    4.259613   -4.837774
  17 H     1.0000    0     1.008    6.579384    3.987171   -4.362357

--------------------------------
INTERNAL COORDINATES (ANGSTROEM)
--------------------------------
 C      0   0   0     0.000000000000     0.00000000     0.00000000
 C      1   0   0     1.410249150647     0.00000000     0.00000000
 C      2   1   0     1.398728519656   122.61185077     0.00000000
 C      3   2   1     1.390985149777   119.81751087   359.13734474
 C      4   3   2     1.397815689352   119.19847753     0.94426616
 C      5   4   3     1.394792693163   120.16713151   359.78133025
 C      1   2   3     1.506145563350   125.16201222   180.55997154
 H      7   1   2     1.099995533627   111.10297248   290.85148015
 H      7   1   2     1.100070642459   109.83748890   170.25396327
 H      7   1   2     1.099223534000   112.00971702    49.05622467
 H      3   2   1     1.089547006191   118.32340525   178.98492807
 H      4   3   2     1.092154312677   120.11212142   180.67175568
 H      5   4   3     1.092933279757   120.18044421   179.51206557
 H      6   5   4     1.093029233003   119.41871388   179.41513012
 N      2   1   3     1.477158598932   121.45243479   179.74905765
 O     15   2   1     1.220766817865   117.55102349   199.00343795
 O     15   2   1     1.222016459545   118.08739982    19.55040052
 H      8   7   1     9.780676870488   128.36496500   326.68306411

---------------------------
INTERNAL COORDINATES (A.U.)
---------------------------
 C      0   0   0     0.000000000000     0.00000000     0.00000000
 C      1   0   0     2.664984675317     0.00000000     0.00000000
 C      2   1   0     2.643213837856   122.61185077     0.00000000
 C      3   2   1     2.628580989430   119.81751087   359.13734474
 C      4   3   2     2.641488838575   119.19847753     0.94426616
 C      5   4   3     2.635776203672   120.16713151   359.78133025
 C      1   2   3     2.846202632553   125.16201222   180.55997154
 H      7   1   2     2.078690307092   111.10297248   290.85148015
 H      7   1   2     2.078832242214   109.83748890   170.25396327
 H      7   1   2     2.077231439222   112.00971702    49.05622467
 H      3   2   1     2.058945451735   118.32340525   178.98492807
 H      4   3   2     2.063872546941   120.11212142   180.67175568
 H      5   4   3     2.065344581389   120.18044421   179.51206557
 H      6   5   4     2.065525906746   119.41871388   179.41513012
 N      2   1   3     2.791425208349   121.45243479   179.74905765
 O     15   2   1     2.306914959143   117.55102349   199.00343795
 O     15   2   1     2.309276439685   118.08739982    19.55040052
 H      8   7   1    18.482800689600   128.36496500   326.68306411

---------------------
BASIS SET INFORMATION
---------------------
There are 4 groups of distinct atoms

 Group   1 Type C   : 7s4p1d contracted to 3s2p1d pattern {511/31/1}
 Group   2 Type H   : 4s1p contracted to 2s1p pattern {31/1}
 Group   3 Type N   : 7s4p1d contracted to 3s2p1d pattern {511/31/1}
 Group   4 Type O   : 7s4p1d contracted to 3s2p1d pattern {511/31/1}

Atom   0C    basis set group =>   1
Atom   1C    basis set group =>   1
Atom   2C    basis set group =>   1
Atom   3C    basis set group =>   1
Atom   4C    basis set group =>   1
Atom   5C    basis set group =>   1
Atom   6C    basis set group =>   1
Atom   7H    basis set group =>   2
Atom   8H    basis set group =>   2
Atom   9H    basis set group =>   2
Atom  10H    basis set group =>   2
Atom  11H    basis set group =>   2
Atom  12H    basis set group =>   2
Atom  13H    basis set group =>   2
Atom  14N    basis set group =>   3
Atom  15O    basis set group =>   4
Atom  16O    basis set group =>   4
Atom  17H    basis set group =>   2
------------------------------------------------------------------------------
                           ORCA GTO INTEGRAL CALCULATION
------------------------------------------------------------------------------

                         BASIS SET STATISTICS AND STARTUP INFO

 # of primitive gaussian shells          ...  160
 # of primitive gaussian functions       ...  296
 # of contracted shells                  ...   84
 # of contracted basis functions         ...  180
 Highest angular momentum                ...    2
 Maximum contraction depth               ...    5
 Integral package used                   ... LIBINT
 Integral threshhold            Thresh   ...  1.000e-09
 Primitive cut-off              TCut     ...  1.000e-10


------------------------------ INTEGRAL EVALUATION ----------------------------


 * One electron integrals 
 Pre-screening matrix                    ... done
 Shell pair data                         ... done (   0.001 sec)

Timings:
 Total evaluation time               ...     0.002 sec (   0.000 min)
 One electron matrix time            ...     0.025 sec (   0.000 min) =1250.0%
 Schwartz matrix evaluation time     ...     0.158 sec (   0.003 min) =7900.0%

-------------------------------------------------------------------------------
                                 ORCA SCF
-------------------------------------------------------------------------------

------------
SCF SETTINGS
------------
Hamiltonian:
 Density Functional     Method          .... DFT(GTOs)
 Exchange Functional    Exchange        .... B88
   X-Alpha parameter    XAlpha          ....  0.666667
   Becke's b parameter  XBeta           ....  0.004200
 Correlation Functional Correlation     .... LYP
 LDA part of GGA corr.  LDAOpt          .... VWN-5
 Gradients option       PostSCFGGA      .... off
 Hybrid DFT is turned on
   Fraction HF Exchange ScalHFX         ....  0.200000
   Scaling of DF-GGA-X  ScalDFX         ....  0.720000
   Scaling of DF-GGA-C  ScalDFC         ....  0.810000
   Scaling of DF-LDA-C  ScalLDAC        ....  1.000000
   Perturbative correction              ....  0.000000
   Density functional embedding theory  .... OFF
   NL short-range parameter             ....  4.800000


General Settings:
 Integral files         IntName         .... products5
 Hartree-Fock type      HFTyp           .... RHF
 Total Charge           Charge          ....    1
 Multiplicity           Mult            ....    1
 Number of Electrons    NEL             ....   72
 Basis Dimension        Dim             ....  180
 Nuclear Repulsion      ENuc            ....    508.1178758184 Eh

Convergence Acceleration:
 DIIS                   CNVDIIS         .... on
   Start iteration      DIISMaxIt       ....    12
   Startup error        DIISStart       ....  0.200000
   # of expansion vecs  DIISMaxEq       ....     5
   Bias factor          DIISBfac        ....   1.050
   Max. coefficient     DIISMaxC        ....  10.000
 Newton-Raphson         CNVNR           .... off
 SOSCF                  CNVSOSCF        .... on
   Start iteration      SOSCFMaxIt      ....   150
   Startup grad/error   SOSCFStart      ....  0.003300
 Level Shifting         CNVShift        .... on
   Level shift para.    LevelShift      ....    0.2500
   Turn off err/grad.   ShiftErr        ....    0.0010
 Zerner damping         CNVZerner       .... off
 Static damping         CNVDamp         .... on
   Fraction old density DampFac         ....    0.7000
   Max. Damping (<1)    DampMax         ....    0.9800
   Min. Damping (>=0)   DampMin         ....    0.0000
   Turn off err/grad.   DampErr         ....    0.1000
 Fernandez-Rico         CNVRico         .... off

SCF Procedure:
 Maximum # iterations   MaxIter         ....   125
 SCF integral mode      SCFMode         .... Direct
   Integral package                     .... LIBINT
 Reset frequency        DirectResetFreq ....    20
 Integral Threshold     Thresh          ....  1.000e-09 Eh
 Primitive CutOff       TCut            ....  1.000e-10 Eh

Convergence Tolerance:
 Convergence Check Mode ConvCheckMode   .... Total+1el-Energy
 Convergence forced     ConvForced      .... 0
 Energy Change          TolE            ....  1.000e-05 Eh
 1-El. energy change                    ....  1.000e-02 Eh
 Orbital Gradient       TolG            ....  1.000e-04
 Orbital Rotation angle TolX            ....  1.000e-04
 DIIS Error             TolErr          ....  5.000e-04


Diagonalization of the overlap matrix:
Smallest eigenvalue                        ... 2.552e-04
Time for diagonalization                   ...    0.008 sec
Threshold for overlap eigenvalues          ... 1.000e-08
Number of eigenvalues below threshold      ... 0
Time for construction of square roots      ...    0.006 sec
Total time needed                          ...    0.014 sec

-------------------
DFT GRID GENERATION
-------------------

General Integration Accuracy     IntAcc      ...  4.340
Radial Grid Type                 RadialGrid  ... Gauss-Chebyshev
Angular Grid (max. acc.)         AngularGrid ... Lebedev-110
Angular grid pruning method      GridPruning ... 3 (G Style)
Weight generation scheme         WeightScheme... Becke
Basis function cutoff            BFCut       ...    1.0000e-10
Integration weight cutoff        WCut        ...    1.0000e-14
Grids for H and He will be reduced by one unit

# of grid points (after initial pruning)     ...  23078 (   0.0 sec)
# of grid points (after weights+screening)   ...  21396 (   0.1 sec)
nearest neighbour list constructed           ...    0.0 sec
Grid point re-assignment to atoms done       ...    0.0 sec
Grid point division into batches done        ...    0.0 sec
Reduced shell lists constructed in    0.3 sec

Total number of grid points                  ...    21396
Total number of batches                      ...      342
Average number of points per batch           ...       62
Average number of grid points per atom       ...     1189
Average number of shells per batch           ...    52.39 (62.37%)
Average number of basis functions per batch  ...   111.19 (61.77%)
Average number of large shells per batch     ...    39.99 (76.33%)
Average number of large basis fcns per batch ...    83.93 (75.49%)
Maximum spatial batch extension              ...  21.28, 21.59, 20.05 au
Average spatial batch extension              ...   4.03,  3.88,  3.76 au

Time for grid setup =    0.417 sec

------------------------------
INITIAL GUESS: MODEL POTENTIAL
------------------------------
Loading Hartree-Fock densities                     ... done
Calculating cut-offs                               ... done
Setting up the integral package                    ... done
Initializing the effective Hamiltonian             ... done
Starting the Coulomb interaction                   ... done (   0.3 sec)
Reading the grid                                   ... done
Mapping shells                                     ... done
Starting the XC term evaluation                    ... done (   0.4 sec)
  promolecular density results
     # of electrons  =     73.001630721
     EX              =    -61.275151721
     EC              =     -2.482444044
     EX+EC           =    -63.757595765
Transforming the Hamiltonian                       ... done (   0.0 sec)
Diagonalizing the Hamiltonian                      ... done (   0.0 sec)
Back transforming the eigenvectors                 ... done (   0.0 sec)
Now organizing SCF variables                       ... done
                      ------------------
                      INITIAL GUESS DONE (   1.5 sec)
                      ------------------
--------------
SCF ITERATIONS
--------------
ITER       Energy         Delta-E        Max-DP      RMS-DP      [F,P]     Damp
               ***  Starting incremental Fock matrix formation  ***
  0   -475.1780407941   0.000000000000 0.20729246  0.00358500  0.2291011 0.7000
  1   -475.4324612326  -0.254420438503 0.15058978  0.00229733  0.0756503 0.7000
                               ***Turning on DIIS***
  2   -475.4317338149   0.000727417651 0.38001313  0.00495225  0.0360857 0.0000
  3   -475.0474422801   0.384291534850 0.18941481  0.00229279  0.2005379 0.7000
  4   -475.4038631299  -0.356420849804 0.44196788  0.00536942  0.0587188 0.0000
  5   -475.4182648845  -0.014401754578 0.01462532  0.00046243  0.0664045 0.0000
  6   -475.4288225600  -0.010557675527 0.00536919  0.00021467  0.0529929 0.0000
  7   -475.4327328790  -0.003910319043 0.01482665  0.00066352  0.0475678 0.0000
  8   -475.4412808950  -0.008548015994 0.00847440  0.00034195  0.0321735 0.0000
  9   -475.4446011127  -0.003320217646 0.02021981  0.00085712  0.0261755 0.0000
 10   -475.4489244448  -0.004323332172 0.01822625  0.00044038  0.0160941 0.0000
 11   -475.4496290062  -0.000704561396 0.00534265  0.00014033  0.0112919 0.0000
                      *** Initiating the SOSCF procedure ***
                           *** Shutting down DIIS ***
                      *** Re-Reading the Fockian *** 
                      *** Removing any level shift *** 
ITER      Energy       Delta-E        Grad      Rot      Max-DP    RMS-DP
 12   -475.44991315  -0.0002841471  0.000419  0.000419  0.001431  0.000046
               *** Restarting incremental Fock matrix formation ***
 13   -475.44993390  -0.0000207483  0.000617  0.002759  0.002233  0.000049
 14   -475.44991987   0.0000140273  0.001827  0.001998  0.001775  0.000032
 15   -475.44993652  -0.0000166406  0.000040  0.000195  0.000195  0.000008
                 **** Energy Check signals convergence ****
              ***Rediagonalizing the Fockian in SOSCF/NRSCF***

               *****************************************************
               *                     SUCCESS                       *
               *           SCF CONVERGED AFTER  16 CYCLES          *
               *****************************************************

Setting up the final grid:

General Integration Accuracy     IntAcc      ...  4.670
Radial Grid Type                 RadialGrid  ... Gauss-Chebyshev
Angular Grid (max. acc.)         AngularGrid ... Lebedev-302
Angular grid pruning method      GridPruning ... 3 (G Style)
Weight generation scheme         WeightScheme... Becke
Basis function cutoff            BFCut       ...    1.0000e-10
Integration weight cutoff        WCut        ...    1.0000e-14
Grids for H and He will be reduced by one unit

# of grid points (after initial pruning)     ...  89272 (   0.1 sec)
# of grid points (after weights+screening)   ...  81630 (   0.6 sec)
nearest neighbour list constructed           ...    0.0 sec
Grid point re-assignment to atoms done       ...    0.0 sec
Grid point division into batches done        ...    0.7 sec
Reduced shell lists constructed in    2.7 sec

Total number of grid points                  ...    81630
Total number of batches                      ...     1284
Average number of points per batch           ...       63
Average number of grid points per atom       ...     4535
Average number of shells per batch           ...    47.32 (56.34%)
Average number of basis functions per batch  ...    99.57 (55.31%)
Average number of large shells per batch     ...    35.27 (74.54%)
Average number of large basis fcns per batch ...    73.17 (73.49%)
Maximum spatial batch extension              ...  23.37, 23.26, 19.01 au
Average spatial batch extension              ...   2.57,  2.60,  2.48 au

Final grid set up in    3.3 sec
Final integration                            ... done (   2.0 sec)
Change in XC energy                          ...    -0.000273913
Integrated number of electrons               ...    71.999965561
Previous integrated no of electrons          ...    72.001192458

----------------
TOTAL SCF ENERGY
----------------

Total Energy       :         -475.45021030 Eh          -12937.65796 eV

Components:
Nuclear Repulsion  :          508.11787582 Eh           13826.59033 eV
Electronic Energy  :         -983.56808612 Eh          -26764.24829 eV
One Electron Energy:        -1648.98794279 Eh          -44871.24313 eV
Two Electron Energy:          665.41985667 Eh           18106.99484 eV

Virial components:
Potential Energy   :         -946.71889467 Eh          -25761.53081 eV
Kinetic Energy     :          471.26868437 Eh           12823.87285 eV
Virial Ratio       :            2.00887291


DFT components:
N(Alpha)           :       35.999982780587 electrons
N(Beta)            :       35.999982780587 electrons
N(Total)           :       71.999965561173 electrons
E(X)               :      -49.051230924734 Eh       
E(C)               :       -2.907604118383 Eh       
E(XC)              :      -51.958835043116 Eh       
DFET-embed. en.    :        0.000000000000 Eh       

---------------
SCF CONVERGENCE
---------------

  Last Energy change         ...    1.2506e-07  Tolerance :   1.0000e-05
  Last MAX-Density change    ...    1.3333e-04  Tolerance :   1.0000e-03
  Last RMS-Density change    ...    4.5343e-06  Tolerance :   1.0000e-04
  Last Orbital Gradient      ...    7.1386e-05  Tolerance :   1.0000e-04
  Last Orbital Rotation      ...    1.1669e-04  Tolerance :   1.0000e-04

             **** THE GBW FILE WAS UPDATED (products5.gbw) ****
             **** DENSITY FILE WAS UPDATED (products5.scfp) ****
             **** ENERGY FILE WAS UPDATED (products5.en.tmp) ****
             **** THE GBW FILE WAS UPDATED (products5.gbw) ****
             **** DENSITY FILE WAS UPDATED (products5.scfp) ****
----------------
ORBITAL ENERGIES
----------------

  NO   OCC          E(Eh)            E(eV) 
   0   2.0000     -19.209118      -522.7067 
   1   2.0000     -19.208145      -522.6802 
   2   2.0000     -14.606217      -397.4554 
   3   2.0000     -10.298886      -280.2469 
   4   2.0000     -10.280392      -279.7437 
   5   2.0000     -10.267132      -279.3829 
   6   2.0000     -10.267072      -279.3812 
   7   2.0000     -10.263043      -279.2716 
   8   2.0000     -10.262209      -279.2489 
   9   2.0000     -10.245396      -278.7914 
  10   2.0000      -1.269915       -34.5561 
  11   2.0000      -1.095039       -29.7975 
  12   2.0000      -0.935825       -25.4651 
  13   2.0000      -0.851008       -23.1571 
  14   2.0000      -0.835779       -22.7427 
  15   2.0000      -0.763105       -20.7652 
  16   2.0000      -0.727269       -19.7900 
  17   2.0000      -0.668101       -18.1799 
  18   2.0000      -0.637619       -17.3505 
  19   2.0000      -0.596485       -16.2312 
  20   2.0000      -0.588888       -16.0245 
  21   2.0000      -0.559063       -15.2129 
  22   2.0000      -0.552202       -15.0262 
  23   2.0000      -0.532355       -14.4861 
  24   2.0000      -0.507130       -13.7997 
  25   2.0000      -0.483731       -13.1630 
  26   2.0000      -0.479350       -13.0438 
  27   2.0000      -0.452834       -12.3222 
  28   2.0000      -0.431501       -11.7417 
  29   2.0000      -0.430202       -11.7064 
  30   2.0000      -0.421444       -11.4681 
  31   2.0000      -0.359324        -9.7777 
  32   2.0000      -0.355687        -9.6787 
  33   2.0000      -0.345109        -9.3909 
  34   2.0000      -0.329008        -8.9528 
  35   2.0000      -0.322558        -8.7773 
  36   0.0000      -0.520515       -14.1639 
  37   0.0000      -0.135988        -3.7004 
  38   0.0000      -0.080614        -2.1936 
  39   0.0000      -0.058474        -1.5911 
  40   0.0000       0.002583         0.0703 
  41   0.0000       0.026747         0.7278 
  42   0.0000       0.043722         1.1897 
  43   0.0000       0.062444         1.6992 
  44   0.0000       0.067657         1.8410 
  45   0.0000       0.077406         2.1063 
  46   0.0000       0.101776         2.7695 
  47   0.0000       0.111408         3.0316 
  48   0.0000       0.129962         3.5364 
  49   0.0000       0.164861         4.4861 
  50   0.0000       0.168048         4.5728 
[...]
      4       0.102768   0.006121   0.079491  -0.167704  -0.233048  -0.000000
      5       0.014174   0.149671   0.232406  -0.061468  -0.220460  -0.000934
      6       0.019537  -0.070300  -0.052352  -0.127473  -0.067945   0.000009
      7      -0.077898   0.156797   0.056554   0.298520   0.200243   0.000075
      8      -0.061930  -0.048789  -0.165191  -0.053166   0.064142   0.000140
      9       0.037408   0.033668   0.098234   0.086570   0.019646  -0.000003
     10      -0.053742  -0.104500  -0.090295  -0.175558  -0.079094  -0.000002
     11       0.094911  -0.049188   0.370466   0.096820  -0.078438  -0.000066
     12      -0.036141   0.007416  -0.019648  -0.071187  -0.040367  -0.000072
     13       0.110835   0.038029  -0.070172   0.215451   0.160089   0.000284
     14       0.051746   0.140125  -0.295391   0.093359   0.148503   0.000114
     15       0.004288  -0.063988   0.049818   0.122271   0.078813   0.000266
     16      -0.038073   0.139834  -0.069410  -0.307873  -0.209980  -0.001077
     17      -0.074810  -0.049570   0.146770  -0.002090  -0.040204  -0.001262
     18      -0.013193  -0.012228   0.003832   0.009158   0.006582  -0.007761
     19       0.027521   0.035127  -0.003321  -0.022474  -0.023970   0.042265
     20       0.019055   0.033824   0.033228  -0.016870  -0.006324   0.027680
     21      -0.249046  -0.002661   0.063068   0.072833  -0.003277  -0.358356
     22       0.138537   0.014983  -0.067917  -0.045788  -0.027518  -0.432987
     23      -0.221299   0.006106  -0.008155   0.062544  -0.071100   0.163660
     24       0.138952   0.014019  -0.021915  -0.048134   0.016703  -0.025166
     25      -0.420246   0.074977   0.170560   0.109289  -0.072756   0.079898
     26      -0.047359   0.034883   0.049818   0.007859  -0.017381  -0.622859
     27       0.125310   0.000724  -0.004116  -0.035231   0.020369   0.470919
     28       0.271648  -0.001484  -0.129677  -0.086473  -0.009364  -0.134615
     29      -0.221573  -0.045893  -0.069934   0.075423  -0.061352   0.140027
     30      -0.092398   0.170209  -0.002579   0.115974   0.102358  -0.000186
     31       0.192063  -0.456999  -0.079285  -0.297038  -0.224115   0.000655
     32      -0.101122   0.000219  -0.177759  -0.012904   0.127158   0.000872
     33      -0.129784   0.064364  -0.146073  -0.018741   0.056652   0.000130
     34       0.138346  -0.150675   0.197794  -0.068876  -0.128494  -0.000671
     35      -0.447651   0.007198  -0.403213  -0.267957   0.013610  -0.000363
     36       0.013050   0.081199  -0.095412  -0.024126   0.006561  -0.000656
     37      -0.169556  -0.331844   0.298223  -0.058587  -0.104122   0.001293
     38      -0.337602  -0.324160   0.153567  -0.302158  -0.209290  -0.000551
     39      -0.050054   0.220675  -0.055576  -0.150223  -0.105211   0.000488
     40       0.081904  -0.541484   0.195108   0.340299   0.227640   0.003744
     41      -0.103264   0.015501   0.133161  -0.083404  -0.093622   0.014777
     42      -0.005519   0.021567   0.041352  -0.047214   0.089364   0.000084
     43       0.028773  -0.005931   0.089440  -0.241394   0.407690   0.000005
     44      -0.016125   0.029563   0.109797  -0.189453   0.391460   0.000055
     45       0.004646  -0.018691  -0.034724   0.045369  -0.075961  -0.000033
     46       0.002153  -0.008225  -0.027188   0.046021  -0.096121  -0.000080
     47       0.014127  -0.044915  -0.088820   0.120862  -0.221449  -0.000064
     48       0.002658  -0.001823  -0.000332  -0.001839  -0.001613  -0.000011
     49      -0.037904   0.006676  -0.061680   0.159716  -0.226418  -0.000097
     50      -0.004663   0.002100  -0.015966   0.045437  -0.084454  -0.000245
     51       0.000012  -0.000003  -0.000309   0.000600  -0.000974   0.000010
     52       0.000103  -0.000230   0.000377  -0.000272   0.001028   0.000020
     53      -0.000225   0.000055   0.000079  -0.000502   0.000780   0.000021
                 48         49         50         51         52         53    
      0       0.000059   0.000351  -0.000879   0.000887  -0.000451  -0.000062
      1      -0.000698  -0.000626   0.001940  -0.001878   0.000868  -0.000037
      2      -0.000030   0.000381  -0.000558   0.000792  -0.000559  -0.000492
      3       0.000242  -0.000066   0.000080   0.000047   0.000017   0.000992
      4       0.000046  -0.000390  -0.000365   0.000196  -0.000066  -0.002938
      5       0.000033   0.000219  -0.000201   0.000564  -0.000092  -0.001125
      6      -0.000052   0.000043   0.000248   0.000093   0.000431   0.010958
      7      -0.000092  -0.000104   0.000815   0.002345   0.004302   0.011373
      8      -0.000013  -0.000119   0.003069   0.005742   0.011908   0.085113
      9       0.000006  -0.000016   0.005975   0.014670   0.018243  -0.005892
     10      -0.000048   0.000007  -0.017716  -0.044323  -0.057922   0.016390
     11      -0.000033  -0.000053  -0.006718  -0.018528  -0.029510   0.003726
     12       0.000059   0.000190  -0.019392  -0.017864   0.020264  -0.000964
     13      -0.000132  -0.000264   0.035792   0.035046  -0.037369   0.001507
     14       0.000060   0.000282  -0.032022  -0.024249   0.033437  -0.002535
     15      -0.000443  -0.000178   0.006556  -0.004368   0.000985  -0.000098
     16      -0.000320  -0.000348   0.007909  -0.009476   0.005450  -0.000518
     17      -0.001604  -0.003829   0.063642  -0.053613   0.020878  -0.001921
     18      -0.074841   0.049866   0.000460  -0.000224   0.000092   0.000015
     19      -0.040586  -0.030140  -0.000933   0.000645  -0.000067  -0.000005
     20       0.035917   0.073722   0.003334  -0.002167   0.000564   0.000029
     21       0.476739   0.086670   0.005435  -0.003709   0.000262  -0.000204
     22       0.599795   0.086770   0.005566  -0.003387  -0.000232  -0.000187
     23      -0.216889  -0.020476  -0.002176   0.001805  -0.000050   0.000153
     24      -0.024128  -0.022854  -0.000785   0.000368  -0.000133  -0.000034
     25       0.039562   0.083264   0.002636  -0.001352   0.000346   0.000216
     26      -0.351303  -0.677850  -0.036905   0.023550  -0.006526  -0.000024
     27       0.436467  -0.659663  -0.010294   0.005484  -0.000860   0.000168
     28      -0.146800   0.196104   0.002527  -0.001006  -0.000113  -0.000043
     29       0.139512  -0.182956  -0.003355   0.002323  -0.000435   0.000027
     30      -0.000033   0.000212  -0.005335  -0.009929  -0.019530  -0.125341
     31      -0.000042  -0.000218  -0.006050  -0.012134  -0.024165  -0.133322
     32      -0.000026   0.000429  -0.041889  -0.079209  -0.156839  -0.962422
     33      -0.000243  -0.000227  -0.067568  -0.164157  -0.210403   0.050200
     34       0.000779   0.000245   0.208764   0.508462   0.654473  -0.155341
     35       0.000285  -0.000055   0.095143   0.232533   0.304610  -0.068591
     36      -0.000821  -0.002832   0.229725   0.197229  -0.222385   0.009702
     37       0.001935   0.005055  -0.431782  -0.372956   0.417949  -0.018053
     38      -0.001538  -0.004227   0.363156   0.306506  -0.351446   0.016085
     39       0.001202   0.002485  -0.068122   0.054586  -0.019774   0.001620
     40       0.003130   0.007510  -0.109584   0.091713  -0.036559   0.003173
     41       0.016868   0.039485  -0.737848   0.601899  -0.226958   0.019333
     42       0.000103  -0.000170  -0.000070   0.000051  -0.000001   0.000198
     43      -0.000294  -0.000383   0.000219  -0.000061   0.000187   0.000496
     44      -0.000068  -0.000355  -0.000036   0.000098   0.000113   0.001157
     45      -0.000076   0.000161   0.000034   0.000002   0.000066   0.000183
     46       0.000042   0.000179  -0.000066  -0.000070  -0.000170  -0.000728
     47       0.000058   0.000229   0.000039  -0.000059  -0.000006  -0.000289
     48       0.000246  -0.000131   0.000015  -0.000006   0.000010  -0.000049
     49       0.000220   0.000216  -0.000067   0.000031  -0.000067   0.000070
     50       0.000255   0.000354  -0.000013  -0.000000  -0.000017  -0.000164
     51       0.000012   0.000007  -0.000006   0.000007  -0.000008   0.000026
     52       0.000009  -0.000011   0.000019   0.000002  -0.000039   0.000030
     53       0.000003   0.000036   0.000007  -0.000027   0.000009   0.000005


-----------
IR SPECTRUM
-----------

 Mode    freq (cm**-1)   T**2         TX         TY         TZ
-------------------------------------------------------------------
   7:        10.75  636.907493  ( -2.190232  16.759762  18.740885)
   8:        20.33  824.978964  (-15.987065 -18.875346  14.598426)
   9:        45.82    4.484948  (  1.633302  -0.497239  -1.253007)
  10:       138.37    1.039406  (  0.747833   0.518072  -0.460165)
  11:       223.43    0.621649  ( -0.632878  -0.352947  -0.310714)
  12:       241.00    0.156624  ( -0.246754   0.282496  -0.126222)
  13:       266.23    2.587260  (  0.438355  -0.817891  -1.313834)
  14:       363.82    1.374098  ( -0.329249   0.772043  -0.818317)
  15:       394.60    0.371219  ( -0.271980   0.509858   0.193108)
  16:       443.32    0.357690  ( -0.269560  -0.523554   0.104496)
  17:       500.77    3.959828  (  1.783219   0.600899  -0.647208)
  18:       545.23    0.359802  ( -0.293006  -0.441253  -0.281506)
  19:       570.83    0.404972  ( -0.227143   0.578469  -0.136936)
  20:       682.42    6.945004  (  1.303329  -1.512165   1.720376)
  21:       712.09    3.578003  (  1.247980   1.066077  -0.940227)
  22:       752.06   47.099646  (  6.409963   2.095498  -1.273151)
  23:       807.54    5.776962  ( -1.720559   0.504420  -1.600687)
  24:       813.44    4.391872  (  1.761646   1.127714  -0.129362)
  25:       883.56   37.349499  (  2.211571  -3.955924   4.099892)
  26:       895.35    0.675386  ( -0.589914   0.390128  -0.418555)
  27:       991.64    0.934016  (  0.760114  -0.574569   0.161595)
  28:      1004.26    0.752923  (  0.030253   0.206269  -0.842295)
  29:      1028.37    0.533910  (  0.495842  -0.464149   0.269473)
  30:      1050.54    4.368259  ( -1.837123  -0.941560  -0.326654)
  31:      1070.47    4.253452  ( -0.682179   1.907129   0.388513)
  32:      1097.31   14.119418  (  1.105285  -3.374469   1.229114)
  33:      1165.99    5.778302  (  0.652938  -0.322631   2.290826)
  34:      1172.34    4.431218  (  0.520855  -0.586968   1.953304)
  35:      1219.45    7.426218  ( -0.907212   1.749367  -1.882259)
  36:      1289.30    1.858782  (  0.587261  -1.163888  -0.399088)
  37:      1361.59   13.389878  (  0.047769   1.643478   3.269033)
  38:      1399.33   12.905933  ( -0.803487   3.097425  -1.632881)
  39:      1415.57  217.911653  (  5.475098  -9.916792   9.465315)
  40:      1441.55   19.477490  ( -2.281641  -0.050597  -3.777439)
  41:      1451.69    9.549830  (  1.472280   0.981067  -2.533718)
  42:      1481.63   16.704913  ( -0.780409   1.903377  -3.531718)
  43:      1509.86   15.024268  (  1.760071  -3.447804  -0.197662)
  44:      1623.16   18.550314  (  0.249600   4.024130   1.514724)
  45:      1648.90   61.373435  ( -2.641335  -3.995533  -6.199395)
  46:      1687.15  172.782854  (  2.211299   9.664393   8.630905)
  47:      3044.84   10.205172  ( -0.257912   1.893608   2.559864)
  48:      3125.06    5.156963  ( -1.627061  -0.536446   1.490591)
  49:      3137.08   11.513407  (  0.796448   0.033706   3.298172)
  50:      3174.62    2.037504  ( -0.304340   1.000813   0.971213)
  51:      3186.89    8.589592  ( -0.298776  -0.417679  -2.885458)
  52:      3198.26    8.222634  (  1.124837  -2.578476   0.555732)
  53:      3228.29    2.804454  ( -0.681688   0.537408  -1.432113)

The first frequency considered to be a vibration is 7
The total number of vibrations considered is 47


--------------------------
THERMOCHEMISTRY AT 298.15K
--------------------------

Temperature         ... 298.15 K
Pressure            ... 1.00 atm
Total Mass          ... 138.15 AMU

Throughout the following assumptions are being made:
  (1) The electronic state is orbitally nondegenerate
  (2) There are no thermally accessible electronically excited states
  (3) Hindered rotations indicated by low frequency modes are not
      treated as such but are treated as vibrations and this may
      cause some error
  (4) All equations used are the standard statistical mechanics
      equations for an ideal gas
  (5) All vibrations are strictly harmonic

freq.      10.75  E(vib)   ...       0.58 
freq.      20.33  E(vib)   ...       0.56 
freq.      45.82  E(vib)   ...       0.53 
freq.     138.37  E(vib)   ...       0.42 
freq.     223.43  E(vib)   ...       0.33 
freq.     241.00  E(vib)   ...       0.31 
freq.     266.23  E(vib)   ...       0.29 
freq.     363.82  E(vib)   ...       0.22 
freq.     394.60  E(vib)   ...       0.20 
freq.     443.32  E(vib)   ...       0.17 
freq.     500.77  E(vib)   ...       0.14 
freq.     545.23  E(vib)   ...       0.12 
freq.     570.83  E(vib)   ...       0.11 
freq.     682.42  E(vib)   ...       0.08 
freq.     712.09  E(vib)   ...       0.07 
freq.     752.06  E(vib)   ...       0.06 
freq.     807.54  E(vib)   ...       0.05 
freq.     813.44  E(vib)   ...       0.05 
freq.     883.56  E(vib)   ...       0.04 
freq.     895.35  E(vib)   ...       0.03 
freq.     991.64  E(vib)   ...       0.02 
freq.    1004.26  E(vib)   ...       0.02 
freq.    1028.37  E(vib)   ...       0.02 
freq.    1050.54  E(vib)   ...       0.02 
freq.    1070.47  E(vib)   ...       0.02 
freq.    1097.31  E(vib)   ...       0.02 
freq.    1165.99  E(vib)   ...       0.01 
freq.    1172.34  E(vib)   ...       0.01 
freq.    1219.45  E(vib)   ...       0.01 
freq.    1289.30  E(vib)   ...       0.01 
freq.    1361.59  E(vib)   ...       0.01 
freq.    1399.33  E(vib)   ...       0.00 
freq.    1415.57  E(vib)   ...       0.00 
freq.    1441.55  E(vib)   ...       0.00 
freq.    1451.69  E(vib)   ...       0.00 
freq.    1481.63  E(vib)   ...       0.00 
freq.    1509.86  E(vib)   ...       0.00 
freq.    1623.16  E(vib)   ...       0.00 
freq.    1648.90  E(vib)   ...       0.00 
freq.    1687.15  E(vib)   ...       0.00 
freq.    3044.84  E(vib)   ...       0.00 
freq.    3125.06  E(vib)   ...       0.00 
freq.    3137.08  E(vib)   ...       0.00 
freq.    3174.62  E(vib)   ...       0.00 
freq.    3186.89  E(vib)   ...       0.00 
freq.    3198.26  E(vib)   ...       0.00 
freq.    3228.29  E(vib)   ...       0.00 

------------
INNER ENERGY
------------

The inner energy is: U= E(el) + E(ZPE) + E(vib) + E(rot) + E(trans)
    E(el)   - is the total energy from the electronic structure calculation
              = E(kin-el) + E(nuc-el) + E(el-el) + E(nuc-nuc)
    E(ZPE)  - the the zero temperature vibrational energy from the frequency calculation
    E(vib)  - the the finite temperature correction to E(ZPE) due to population
              of excited vibrational states
    E(rot)  - is the rotational thermal energy
    E(trans)- is the translational thermal energy

Summary of contributions to the inner energy U:
Electronic energy                ...   -475.45026154 Eh
Zero point energy                ...      0.13103129 Eh      82.22 kcal/mol
Thermal vibrational correction   ...      0.00723167 Eh       4.54 kcal/mol
Thermal rotational correction    ...      0.00141627 Eh       0.89 kcal/mol
Thermal translational correction ...      0.00141627 Eh       0.89 kcal/mol
-----------------------------------------------------------------------
Total thermal energy                   -475.30916604 Eh


Summary of corrections to the electronic energy:
(perhaps to be used in another calculation)
Total thermal correction                  0.01006421 Eh       6.32 kcal/mol
Non-thermal (ZPE) correction              0.13103129 Eh      82.22 kcal/mol
-----------------------------------------------------------------------
Total correction                          0.14109550 Eh      88.54 kcal/mol


--------
ENTHALPY
--------

The enthalpy is H = U + kB*T
                kB is Boltzmann's constant
Total free energy                 ...   -475.30916604 Eh 
Thermal Enthalpy correction       ...      0.00094421 Eh       0.59 kcal/mol
-----------------------------------------------------------------------
Total Enthalpy                    ...   -475.30822183 Eh


Note: Only C1 symmetry has been detected, increase convergence thresholds 
      if your molecule has a higher symmetry. Symmetry factor of 1.0 is   
      used for the rotational entropy correction. 
 

Note: Rotational entropy computed according to Herzberg 
Infrared and Raman Spectra, Chapter V,1, Van Nostrand Reinhold, 1945 
Point Group:  C1, Symmetry Number:   1  
Rotational constants in cm-1:     0.052212     0.033313     0.027050 

Vibrational entropy computed according to the QRRHO of S. Grimme
Chem.Eur.J. 2012 18 9955


-------
ENTROPY
-------

The entropy contributions are T*S = T*(S(el)+S(vib)+S(rot)+S(trans))
     S(el)   - electronic entropy
     S(vib)  - vibrational entropy
     S(rot)  - rotational entropy
     S(trans)- translational entropy
The entropies will be listed as mutliplied by the temperature to get
units of energy

Electronic entropy                ...      0.00000000 Eh      0.00 kcal/mol
Vibrational entropy               ...      0.01343887 Eh      8.43 kcal/mol
Rotational entropy                ...      0.01421487 Eh      8.92 kcal/mol
Translational entropy             ...      0.01932890 Eh     12.13 kcal/mol
-----------------------------------------------------------------------
Final entropy term                ...      0.04698264 Eh     29.48 kcal/mol

In case the symmetry of your molecule has not been determined correctly
or in case you have a reason to use a different symmetry number we print 
out the resulting rotational entropy values for sn=1,12 :
 --------------------------------------------------------
|  sn= 1 | S(rot)=       0.01421487 Eh      8.92 kcal/mol|
|  sn= 2 | S(rot)=       0.01356041 Eh      8.51 kcal/mol|
|  sn= 3 | S(rot)=       0.01317758 Eh      8.27 kcal/mol|
|  sn= 4 | S(rot)=       0.01290596 Eh      8.10 kcal/mol|
|  sn= 5 | S(rot)=       0.01269527 Eh      7.97 kcal/mol|
|  sn= 6 | S(rot)=       0.01252312 Eh      7.86 kcal/mol|
|  sn= 7 | S(rot)=       0.01237758 Eh      7.77 kcal/mol|
|  sn= 8 | S(rot)=       0.01225150 Eh      7.69 kcal/mol|
|  sn= 9 | S(rot)=       0.01214029 Eh      7.62 kcal/mol|
|  sn=10 | S(rot)=       0.01204081 Eh      7.56 kcal/mol|
|  sn=11 | S(rot)=       0.01195082 Eh      7.50 kcal/mol|
|  sn=12 | S(rot)=       0.01186867 Eh      7.45 kcal/mol|
 --------------------------------------------------------


-------------------
GIBBS FREE ENERGY
-------------------

The Gibbs free energy is G = H - T*S

Total enthalpy                    ...   -475.30822183 Eh 
Total entropy correction          ...     -0.04698264 Eh    -29.48 kcal/mol
-----------------------------------------------------------------------
Final Gibbs free energy         ...   -475.35520447 Eh

For completeness - the Gibbs free energy minus the electronic energy
G-E(el)                           ...      0.09505707 Eh     59.65 kcal/mol


Timings for individual modules:

Sum of individual times         ...     3819.942 sec (=  63.666 min)
GTO integral calculation        ...        1.707 sec (=   0.028 min)   0.0 %
SCF iterations                  ...      250.078 sec (=   4.168 min)   6.5 %
SCF Gradient evaluation         ...       99.909 sec (=   1.665 min)   2.6 %
Geometry relaxation             ...        4.036 sec (=   0.067 min)   0.1 %
Analytical frequency calculation...     3464.212 sec (=  57.737 min)  90.7 %
                             ****ORCA TERMINATED NORMALLY****
TOTAL RUN TIME: 0 days 1 hours 3 minutes 43 seconds 893 msec
