
                                 *****************
                                 * O   R   C   A *
                                 *****************

                                            #,                                       
                                            ###                                      
                                            ####                                     
                                            #####                                    
                                            ######                                   
                                           ########,                                 
                                     ,,################,,,,,                         
                               ,,#################################,,                 
                          ,,##########################################,,             
                       ,#########################################, ''#####,          
                    ,#############################################,,   '####,        
                  ,##################################################,,,,####,       
                ,###########''''           ''''###############################       
              ,#####''   ,,,,##########,,,,          '''####'''          '####       
            ,##' ,,,,###########################,,,                        '##       
           ' ,,###''''                  '''############,,,                           
         ,,##''                                '''############,,,,        ,,,,,,###''
      ,#''                                            '''#######################'''  
     '                                                          ''''####''''         
             ,#######,   #######,   ,#######,      ##                                
            ,#'     '#,  ##    ##  ,#'     '#,    #''#        ######   ,####,        
            ##       ##  ##   ,#'  ##            #'  '#       #        #'  '#        
            ##       ##  #######   ##           ,######,      #####,   #    #        
            '#,     ,#'  ##    ##  '#,     ,#' ,#      #,         ##   #,  ,#        
             '#######'   ##     ##  '#######'  #'      '#     #####' # '####'        



                  #######################################################
                  #                        -***-                        #
                  #          Department of theory and spectroscopy      #
                  #    Directorship and core code : Frank Neese         #
                  #        Max Planck Institute fuer Kohlenforschung    #
                  #                Kaiser Wilhelm Platz 1               #
                  #                 D-45470 Muelheim/Ruhr               #
                  #                      Germany                        #
                  #                                                     #
                  #                  All rights reserved                #
                  #                        -***-                        #
                  #######################################################



                         Program Version 5.0.4 -  RELEASE  -

 With contributions from (in alphabetic order):
   Daniel Aravena         : Magnetic Suceptibility
   Michael Atanasov       : Ab Initio Ligand Field Theory (pilot matlab implementation)
   Alexander A. Auer      : GIAO ZORA, VPT2 properties, NMR spectrum
   Ute Becker             : Parallelization
   Giovanni Bistoni       : ED, misc. LED, open-shell LED, HFLD
   Martin Brehm           : Molecular dynamics
   Dmytro Bykov           : SCF Hessian
   Vijay G. Chilkuri      : MRCI spin determinant printing, contributions to CSF-ICE
   Dipayan Datta          : RHF DLPNO-CCSD density
   Achintya Kumar Dutta   : EOM-CC, STEOM-CC
   Dmitry Ganyushin       : Spin-Orbit,Spin-Spin,Magnetic field MRCI
   Miquel Garcia          : C-PCM and meta-GGA Hessian, CC/C-PCM, Gaussian charge scheme
   Yang Guo               : DLPNO-NEVPT2, F12-NEVPT2, CIM, IAO-localization
   Andreas Hansen         : Spin unrestricted coupled pair/coupled cluster methods
   Benjamin Helmich-Paris : MC-RPA, TRAH-SCF, COSX integrals
   Lee Huntington         : MR-EOM, pCC
   Robert Izsak           : Overlap fitted RIJCOSX, COSX-SCS-MP3, EOM
   Marcus Kettner         : VPT2
   Christian Kollmar      : KDIIS, OOCD, Brueckner-CCSD(T), CCSD density, CASPT2, CASPT2-K
   Simone Kossmann        : Meta GGA functionals, TD-DFT gradient, OOMP2, MP2 Hessian
   Martin Krupicka        : Initial AUTO-CI
   Lucas Lang             : DCDCAS
   Marvin Lechner         : AUTO-CI (C++ implementation), FIC-MRCC
   Dagmar Lenk            : GEPOL surface, SMD
   Dimitrios Liakos       : Extrapolation schemes; Compound Job, initial MDCI parallelization
   Dimitrios Manganas     : Further ROCIS development; embedding schemes
   Dimitrios Pantazis     : SARC Basis sets
   Anastasios Papadopoulos: AUTO-CI, single reference methods and gradients
   Taras Petrenko         : DFT Hessian,TD-DFT gradient, ASA, ECA, R-Raman, ABS, FL, XAS/XES, NRVS
   Peter Pinski           : DLPNO-MP2, DLPNO-MP2 Gradient
   Christoph Reimann      : Effective Core Potentials
   Marius Retegan         : Local ZFS, SOC
   Christoph Riplinger    : Optimizer, TS searches, QM/MM, DLPNO-CCSD(T), (RO)-DLPNO pert. Triples
   Tobias Risthaus        : Range-separated hybrids, TD-DFT gradient, RPA, STAB
   Michael Roemelt        : Original ROCIS implementation
   Masaaki Saitow         : Open-shell DLPNO-CCSD energy and density
   Barbara Sandhoefer     : DKH picture change effects
   Avijit Sen             : IP-ROCIS
   Kantharuban Sivalingam : CASSCF convergence, NEVPT2, FIC-MRCI
   Bernardo de Souza      : ESD, SOC TD-DFT
   Georgi Stoychev        : AutoAux, RI-MP2 NMR, DLPNO-MP2 response
   Willem Van den Heuvel  : Paramagnetic NMR
   Boris Wezisla          : Elementary symmetry handling
   Frank Wennmohs         : Technical directorship


 We gratefully acknowledge several colleagues who have allowed us to
 interface, adapt or use parts of their codes:
   Stefan Grimme, W. Hujo, H. Kruse, P. Pracht,  : VdW corrections, initial TS optimization,
                  C. Bannwarth, S. Ehlert          DFT functionals, gCP, sTDA/sTD-DF
   Ed Valeev, F. Pavosevic, A. Kumar             : LibInt (2-el integral package), F12 methods
   Garnet Chan, S. Sharma, J. Yang, R. Olivares  : DMRG
   Ulf Ekstrom                                   : XCFun DFT Library
   Mihaly Kallay                                 : mrcc  (arbitrary order and MRCC methods)
   Jiri Pittner, Ondrej Demel                    : Mk-CCSD
   Frank Weinhold                                : gennbo (NPA and NBO analysis)
   Christopher J. Cramer and Donald G. Truhlar   : smd solvation model
   Lars Goerigk                                  : TD-DFT with DH, B97 family of functionals
   V. Asgeirsson, H. Jonsson                     : NEB implementation
   FAccTs GmbH                                   : IRC, NEB, NEB-TS, DLPNO-Multilevel, CI-OPT
                                                   MM, QMMM, 2- and 3-layer-ONIOM, Crystal-QMMM,
                                                   LR-CPCM, SF, NACMEs, symmetry and pop. for TD-DFT,
                                                   nearIR, NL-DFT gradient (VV10), updates on ESD,
                                                   ML-optimized integration grids
   S Lehtola, MJT Oliveira, MAL Marques          : LibXC Library
   Liviu Ungur et al                             : ANISO software


 Your calculation uses the libint2 library for the computation of 2-el integrals
 For citations please refer to: http://libint.valeyev.net

 Your ORCA version has been built with support for libXC version: 5.1.0
 For citations please refer to: https://tddft.org/programs/libxc/

 This ORCA versions uses:
   CBLAS   interface :  Fast vector & matrix operations
   LAPACKE interface :  Fast linear algebra routines
   Shared memory     :  Shared parallel matrices


Your calculation utilizes the atom-pairwise dispersion correction
based on tight binding partial charges (D4)
Cite in your paper:
E.Caldeweyher, C.Bannwarth, S.Grimme, J.Chem.Phys., (2017), 147, 034112.
E.Caldeweyher, S.Ehlert, A.Hansen, H.Neugebauer, S.Grimme, J.Chem.Phys., (2018), in progress.
   

================================================================================

----- Orbital basis set information -----
Your calculation utilizes the basis: def2-TZVP
   F. Weigend and R. Ahlrichs, Phys. Chem. Chem. Phys. 7, 3297 (2005).

----- AuxJ basis set information -----
Your calculation utilizes the auxiliary basis: def2/J
   F. Weigend, Phys. Chem. Chem. Phys. 8, 1057 (2006).

================================================================================
                                        WARNINGS
                       Please study these warnings very carefully!
================================================================================


WARNING: Geometry Optimization
  ===> : Switching off AutoStart
         For restart on a previous wavefunction, please use MOREAD

INFO   : the flag for use of the SHARK integral package has been found!

================================================================================
                                       INPUT FILE
================================================================================
NAME = para_products_optfreq3.inp
|  1> !B3LYP/G DEF2-TZVP OPT FREQ D4 SLOWCONV SOSCF
|  2> 
|  3> %geom
|  4> optimizeHydrogens true
|  5> end
|  6> 
|  7> * xyz 1 1
|  8>    C       -5.72390        0.82564        0.04822
|  9>    C       -6.79109        1.46310       -0.64907
| 10>    C       -7.40880        0.84937       -1.70796
| 11>    C       -6.96389       -0.42628       -2.07715
| 12>    C       -5.91809       -1.09248       -1.41993
| 13>    C       -5.30384       -0.45837       -0.36651
| 14>    C       -5.12419        1.49393        1.22832
| 15>    H       -3.83611        1.16995        1.24496
| 16>    H       -5.85825        0.95958        2.36434
| 17>    H       -5.44626        2.90720        1.14397
| 18>    H       -7.10933        2.45018       -0.33548
| 19>    H       -8.21054        1.32160       -2.25883
| 20>    H       -5.61573       -2.07650       -1.75032
| 21>    H       -4.48661       -0.94124        0.15232
| 22>    N       -7.61730       -1.09913       -3.19398
| 23>    O       -7.82284       -2.29428       -3.07093
| 24>    O       -7.90830       -0.41866       -4.16010
| 25>    H      -12.35594       -8.18481       -9.25810
| 26> *
| 27> 
| 28>                          ****END OF INPUT****
================================================================================

                       *****************************
                       * Geometry Optimization Run *
                       *****************************

Geometry optimization settings:
Update method            Update   .... BFGS
Choice of coordinates    CoordSys .... Z-matrix Internals
Initial Hessian          InHess   .... Almoef's Model

Convergence Tolerances:
Energy Change            TolE     ....  5.0000e-06 Eh
Max. Gradient            TolMAXG  ....  3.0000e-04 Eh/bohr
RMS Gradient             TolRMSG  ....  1.0000e-04 Eh/bohr
Max. Displacement        TolMAXD  ....  4.0000e-03 bohr
RMS Displacement         TolRMSD  ....  2.0000e-03 bohr
Strict Convergence                ....  False
------------------------------------------------------------------------------
                        ORCA OPTIMIZATION COORDINATE SETUP
------------------------------------------------------------------------------

The optimization will be done in new redundant internal coordinates
Making redundant internal coordinates   ...  (new redundants) done
Evaluating the initial hessian          ...  (Almloef) done
Evaluating the coordinates              ...  done
Calculating the B-matrix                .... done
Calculating the G-matrix                .... done
Diagonalizing the G-matrix              .... done
Imposing constraints:
 Iter   0:  RMS(Cart)=    0.0000000000 RMS(Int)=    0.0000000000
CONVERGED
Small eigenvalue found = 9.113e-03
Small eigenvalue found = 2.500e-02
The first mode is                       ....   53
The number of degrees of freedom        ....   48
Storing new coordinates                 .... done

    -----------------------------------------------------------------
                    Redundant Internal Coordinates


    -----------------------------------------------------------------
         Definition                    Initial Value    Approx d2E/dq
    -----------------------------------------------------------------
      1. B(C   1,C   0)                  1.4253         0.548819 C 
      2. B(C   2,C   1)                  1.3709         0.670111 C 
      3. B(C   3,C   2)                  1.4005         0.601053 C 
      4. B(C   4,C   3)                  1.4034         0.594842 C 
      5. B(C   5,C   4)                  1.3744         0.661545 C 
      6. B(C   5,C   0)                  1.4132         0.573753 C 
      7. B(C   6,C   0)                  1.4829         0.444194 C 
      8. B(H   7,C   6)                  1.3283         0.150046   
      9. B(H   8,C   6)                  1.4543         0.094460   
     10. B(H   9,C   6)                  1.4520         0.095268   
     11. B(H  10,C   1)                  1.0835         0.368821   
     12. B(H  11,C   2)                  1.0813         0.371772   
     13. B(H  12,C   4)                  1.0811         0.372007   
     14. B(H  13,C   5)                  1.0818         0.371162   
     15. B(N  14,C   3)                  1.4584         0.435231 C 
     16. B(O  15,N  14)                  1.2189         0.939628 C 
     17. B(O  16,N  14)                  1.2170         0.946259 C 
     18. B(H  17,N  14)                 10.4611         0.000000   
     19. B(H  17,O  15)                  9.6710         0.000000   
     20. B(H  17,O  16)                 10.2997         0.000000   
     21. A(C   1,C   0,C   5)          119.0353         0.418834 C 
     22. A(C   5,C   0,C   6)          121.5211         0.403416 C 
     23. A(C   1,C   0,C   6)          119.3792         0.400270 C 
     24. A(C   2,C   1,H  10)          119.9368         0.359051   
     25. A(C   0,C   1,C   2)          120.9986         0.430629 C 
     26. A(C   0,C   1,H  10)          119.0636         0.347118   
     27. A(C   1,C   2,H  11)          122.1445         0.359539   
     28. A(C   1,C   2,C   3)          117.9187         0.437732 C 
     29. A(C   3,C   2,H  11)          119.9349         0.352961   
     30. A(C   4,C   3,N  14)          118.2608         0.401939 C 
     31. A(C   2,C   3,C   4)          123.0697         0.428453 C 
     32. A(C   2,C   3,N  14)          118.6693         0.402676 C 
     33. A(C   5,C   4,H  12)          121.9476         0.358791   
     34. A(C   3,C   4,C   5)          118.2264         0.435901 C 
     35. A(C   3,C   4,H  12)          119.8256         0.352378   
     36. A(C   0,C   5,H  13)          119.2991         0.350101   
     37. A(C   4,C   5,H  13)          119.9522         0.358652   
     38. A(C   0,C   5,C   4)          120.7483         0.433079 C 
     39. A(C   0,C   6,H   7)          106.9913         0.289735   
     40. A(C   0,C   6,H   9)          107.6213         0.270122   
     41. A(H   7,C   6,H   9)          116.9514         0.211532   
     42. A(C   0,C   6,H   8)          104.5919         0.269773   
     43. A(H   7,C   6,H   8)          112.9589         0.211296   
     44. A(H   8,C   6,H   9)          106.9214         0.199347   
     45. A(C   3,N  14,O  15)          116.7823         0.430312 C 
     46. A(C   3,N  14,O  16)          117.1991         0.430856 C 
     47. A(O  15,N  14,O  16)          126.0186         0.492490 C 
     48. A(C   3,N  14,H  17)          163.6069         0.089096   
     49. A(O  15,N  14,H  17)           47.0008         0.089114   
     50. A(O  16,N  14,H  17)           79.0606         0.089114   
     51. A(N  14,O  15,H  17)          127.7102         0.089219   
     52. A(N  14,O  16,H  17)           94.2774         0.089130   
     53. A(N  14,H  17,O  15)            5.2890         0.089000   
     54. A(N  14,H  17,O  16)            6.6620         0.089000   
     55. A(O  15,H  17,O  16)           11.9486         0.089000   
     56. D(C   2,C   1,C   0,C   5)      0.0088         0.020602 C 
     57. D(C   2,C   1,C   0,C   6)   -177.1181         0.020602 C 
     58. D(H  10,C   1,C   0,C   5)   -179.6153         0.020602   
     59. D(H  10,C   1,C   0,C   6)      3.2578         0.020602   
     60. D(C   3,C   2,C   1,C   0)      0.3921         0.031406 C 
     61. D(H  11,C   2,C   1,C   0)   -179.1154         0.031406   
     62. D(H  11,C   2,C   1,H  10)      0.5055         0.031406   
     63. D(C   3,C   2,C   1,H  10)   -179.9870         0.031406   
     64. D(C   4,C   3,C   2,C   1)     -0.3607         0.024910 C 
     65. D(C   4,C   3,C   2,H  11)    179.1581         0.024910   
     66. D(N  14,C   3,C   2,C   1)    179.4724         0.024910 C 
     67. D(N  14,C   3,C   2,H  11)     -1.0088         0.024910   
     68. D(H  12,C   4,C   3,C   2)   -179.8873         0.024370   
     69. D(C   5,C   4,C   3,C   2)     -0.0917         0.024370 C 
     70. D(C   5,C   4,C   3,N  14)   -179.9254         0.024370 C 
     71. D(H  12,C   4,C   3,N  14)      0.2789         0.024370   
     72. D(C   4,C   5,C   0,C   1)     -0.4772         0.022595 C 
     73. D(H  13,C   5,C   0,C   1)    179.2904         0.022595   
     74. D(H  13,C   5,C   4,C   3)   -179.2554         0.030549   
     75. D(H  13,C   5,C   0,C   6)     -3.6466         0.022595   
     76. D(C   4,C   5,C   0,C   6)    176.5858         0.022595 C 
     77. D(C   0,C   5,C   4,C   3)      0.5106         0.030549 C 
     78. D(C   0,C   5,C   4,H  12)   -179.6983         0.030549   
     79. D(H  13,C   5,C   4,H  12)      0.5357         0.030549   
     80. D(H   7,C   6,C   0,C   1)   -146.8764         0.014555   
     81. D(H   7,C   6,C   0,C   5)     36.0705         0.014555   
     82. D(H   9,C   6,C   0,C   1)    -20.4129         0.014555   
     83. D(H   9,C   6,C   0,C   5)    162.5340         0.014555   
     84. D(H   8,C   6,C   0,C   1)     93.0563         0.014555   
     85. D(H   8,C   6,C   0,C   5)    -83.9968         0.014555   
     86. D(O  15,N  14,C   3,C   2)   -139.6234         0.016151 C 
     87. D(O  15,N  14,C   3,C   4)     40.2178         0.016151 C 
     88. D(O  16,N  14,C   3,C   2)     40.2907         0.016151 C 
     89. D(O  16,N  14,C   3,C   4)   -139.8681         0.016151 C 
     90. D(H  17,N  14,C   3,C   2)   -131.9680         0.016151   
     91. D(H  17,N  14,C   3,C   4)     47.8732         0.016151   
     92. D(H  17,O  15,N  14,C   3)    177.0533         0.093585   
     93. D(H  17,O  15,N  14,O  16)     -2.8522         0.093585   
     94. D(H  17,O  16,N  14,C   3)   -177.7810         0.095126   
     95. D(H  17,O  16,N  14,O  15)      2.1242         0.095126   
     96. D(O  15,H  17,N  14,C   3)     -9.3582         0.001500   
     97. D(O  15,H  17,N  14,O  16)    177.6507         0.001500   
     98. D(O  16,H  17,N  14,C   3)    172.9911         0.001500   
     99. D(O  16,H  17,N  14,O  15)   -177.6507         0.001500   
    100. D(O  16,H  17,O  15,N  14)      1.3162         0.001500   
    101. D(O  15,H  17,O  16,N  14)     -1.0458         0.001500   
    -----------------------------------------------------------------

Number of atoms                         .... 18
Number of degrees of freedom            .... 101

         *************************************************************
         *                GEOMETRY OPTIMIZATION CYCLE   1            *
         *************************************************************
---------------------------------
CARTESIAN COORDINATES (ANGSTROEM)
---------------------------------
  C     -5.723900    0.825640    0.048220
  C     -6.791090    1.463100   -0.649070
  C     -7.408800    0.849370   -1.707960
  C     -6.963890   -0.426280   -2.077150
  C     -5.918090   -1.092480   -1.419930
  C     -5.303840   -0.458370   -0.366510
  C     -5.124190    1.493930    1.228320
  H     -3.836110    1.169950    1.244960
  H     -5.858250    0.959580    2.364340
  H     -5.446260    2.907200    1.143970
  H     -7.109330    2.450180   -0.335480
  H     -8.210540    1.321600   -2.258830
  H     -5.615730   -2.076500   -1.750320
  H     -4.486610   -0.941240    0.152320
  N     -7.617300   -1.099130   -3.193980
  O     -7.822840   -2.294280   -3.070930
  O     -7.908300   -0.418660   -4.160100
  H    -12.355940   -8.184810   -9.258100

----------------------------
CARTESIAN COORDINATES (A.U.)
----------------------------
  NO LB      ZA    FRAG     MASS         X           Y           Z
   0 C     6.0000    0    12.011  -10.816603    1.560233    0.091123
   1 C     6.0000    0    12.011  -12.833300    2.764858   -1.226565
   2 C     6.0000    0    12.011  -14.000603    1.605077   -3.227577
   3 C     6.0000    0    12.011  -13.159845   -0.805552   -3.925245
   4 C     6.0000    0    12.011  -11.183569   -2.064488   -2.683279
   5 C     6.0000    0    12.011  -10.022805   -0.866194   -0.692604
   6 C     6.0000    0    12.011   -9.683316    2.823119    2.321188
   7 H     1.0000    0     1.008   -7.249197    2.210885    2.352633
   8 H     1.0000    0     1.008  -11.070488    1.813343    4.467955
   9 H     1.0000    0     1.008  -10.291940    5.493812    2.161790
  10 H     1.0000    0     1.008  -13.434687    4.630169   -0.633965
  11 H     1.0000    0     1.008  -15.515672    2.497462   -4.268570
  12 H     1.0000    0     1.008  -10.612192   -3.924016   -3.307625
  13 H     1.0000    0     1.008   -8.478464   -1.778686    0.287843
  14 N     7.0000    0    14.007  -14.394611   -2.077055   -6.035747
  15 O     8.0000    0    15.999  -14.783025   -4.335561   -5.803217
  16 O     8.0000    0    15.999  -14.944521   -0.791153   -7.861450
  17 H     1.0000    0     1.008  -23.349343  -15.467049  -17.495274

--------------------------------
INTERNAL COORDINATES (ANGSTROEM)
--------------------------------
 C      0   0   0     0.000000000000     0.00000000     0.00000000
 C      1   0   0     1.425294036962     0.00000000     0.00000000
 C      2   1   0     1.370940622018   120.99856222     0.00000000
 C      3   2   1     1.400545995924   117.91874375     0.39212609
 C      4   3   2     1.403373866224   123.06966506   359.63929165
 C      5   4   3     1.374442523716   118.22644646   359.90833871
 C      1   2   3     1.482868712395   119.37919976   182.88193523
 H      7   1   2     1.328303435364   106.99130972   213.12363121
 H      7   1   2     1.454274886842   104.59193009    93.05634279
 H      7   1   2     1.451955956736   107.62132064   339.58712911
 H      2   1   3     1.083486184545   119.06358619   180.37582507
 H      3   2   1     1.081316770146   122.14451246   180.88458434
 H      5   4   3     1.081144986623   119.82564573   180.11265967
 H      6   5   4     1.081763781377   119.95220633   180.74455453
 N      4   3   2     1.458417292650   118.66929702   179.47238316
 O     15   4   3     1.218922276685   116.78226607   220.37664027
 O     15   4   3     1.217007919161   117.19906700    40.29072120
 H     16  15   4     9.671008835680   127.71020424   177.05334364

---------------------------
INTERNAL COORDINATES (A.U.)
---------------------------
 C      0   0   0     0.000000000000     0.00000000     0.00000000
 C      1   0   0     2.693415390170     0.00000000     0.00000000
 C      2   1   0     2.590702321482   120.99856222     0.00000000
 C      3   2   1     2.646648370257   117.91874375     0.39212609
 C      4   3   2     2.651992270665   123.06966506   359.63929165
 C      5   4   3     2.597319956640   118.22644646   359.90833871
 C      1   2   3     2.802215758987   119.37919976   182.88193523
 H      7   1   2     2.510129715585   106.99130972   213.12363121
 H      7   1   2     2.748181259571   104.59193009    93.05634279
 H      7   1   2     2.743799116746   107.62132064   339.58712911
 H      2   1   3     2.047492158677   119.06358619   180.37582507
 H      3   2   1     2.043392559593   122.14451246   180.88458434
 H      5   4   3     2.043067935779   119.82564573   180.11265967
 H      6   5   4     2.044237288398   119.95220633   180.74455453
 N      4   3   2     2.756009272083   118.66929702   179.47238316
 O     15   4   3     2.303429281471   116.78226607   220.37664027
 O     15   4   3     2.299811670027   117.19906700    40.29072120
 H     16  15   4    18.275558138168   127.71020424   177.05334364

---------------------
BASIS SET INFORMATION
---------------------
There are 4 groups of distinct atoms

 Group   1 Type C   : 11s6p2d1f contracted to 5s3p2d1f pattern {62111/411/11/1}
 Group   2 Type H   : 5s1p contracted to 3s1p pattern {311/1}
 Group   3 Type N   : 11s6p2d1f contracted to 5s3p2d1f pattern {62111/411/11/1}
 Group   4 Type O   : 11s6p2d1f contracted to 5s3p2d1f pattern {62111/411/11/1}

Atom   0C    basis set group =>   1
Atom   1C    basis set group =>   1
Atom   2C    basis set group =>   1
Atom   3C    basis set group =>   1
Atom   4C    basis set group =>   1
Atom   5C    basis set group =>   1
Atom   6C    basis set group =>   1
Atom   7H    basis set group =>   2
Atom   8H    basis set group =>   2
Atom   9H    basis set group =>   2
Atom  10H    basis set group =>   2
Atom  11H    basis set group =>   2
Atom  12H    basis set group =>   2
Atom  13H    basis set group =>   2
Atom  14N    basis set group =>   3
Atom  15O    basis set group =>   4
Atom  16O    basis set group =>   4
Atom  17H    basis set group =>   2
---------------------------------
AUXILIARY/J BASIS SET INFORMATION
---------------------------------
There are 4 groups of distinct atoms

 Group   1 Type C   : 12s5p4d2f1g contracted to 6s4p3d1f1g pattern {711111/2111/211/2/1}
 Group   2 Type H   : 5s2p1d contracted to 3s1p1d pattern {311/2/1}
 Group   3 Type N   : 12s5p4d2f1g contracted to 6s4p3d1f1g pattern {711111/2111/211/2/1}
 Group   4 Type O   : 12s5p4d2f1g contracted to 6s4p3d1f1g pattern {711111/2111/211/2/1}

Atom   0C    basis set group =>   1
Atom   1C    basis set group =>   1
Atom   2C    basis set group =>   1
Atom   3C    basis set group =>   1
Atom   4C    basis set group =>   1
Atom   5C    basis set group =>   1
Atom   6C    basis set group =>   1
Atom   7H    basis set group =>   2
Atom   8H    basis set group =>   2
Atom   9H    basis set group =>   2
Atom  10H    basis set group =>   2
Atom  11H    basis set group =>   2
Atom  12H    basis set group =>   2
Atom  13H    basis set group =>   2
Atom  14N    basis set group =>   3
Atom  15O    basis set group =>   4
Atom  16O    basis set group =>   4
Atom  17H    basis set group =>   2
------------------------------------------------------------------------------
                           ORCA GTO INTEGRAL CALCULATION
                           -- RI-GTO INTEGRALS CHOSEN --
------------------------------------------------------------------------------
------------------------------------------------------------------------------
                   ___                                                        
                  /   \      - P O W E R E D   B Y -                         
                 /     \                                                     
                 |  |  |   _    _      __       _____    __    __             
                 |  |  |  | |  | |    /  \     |  _  \  |  |  /  |          
                  \  \/   | |  | |   /    \    | | | |  |  | /  /          
                 / \  \   | |__| |  /  /\  \   | |_| |  |  |/  /          
                |  |  |   |  __  | /  /__\  \  |    /   |      \           
                |  |  |   | |  | | |   __   |  |    \   |  |\   \          
                \     /   | |  | | |  |  |  |  | |\  \  |  | \   \       
                 \___/    |_|  |_| |__|  |__|  |_| \__\ |__|  \__/        
                                                                              
                      - O R C A' S   B I G   F R I E N D -                    
                                      &                                       
                       - I N T E G R A L  F E E D E R -                       
                                                                              
 v1 FN, 2020, v2 2021                                                         
------------------------------------------------------------------------------


Reading SHARK input file para_products_optfreq3.SHARKINP.tmp ... ok
----------------------
SHARK INTEGRAL PACKAGE
----------------------

Number of atoms                             ...     18
Number of basis functions                   ...    358
Number of shells                            ...    142
Maximum angular momentum                    ...      3
Integral batch strategy                     ... SHARK/LIBINT Hybrid
RI-J (if used) integral strategy            ... SPLIT-RIJ (Revised 2003 algorithm where possible)
Printlevel                                  ...      1
Contraction scheme used                     ... SEGMENTED contraction
Coulomb Range Separation                    ... NOT USED
Exchange Range Separation                   ... NOT USED
Finite Nucleus Model                        ... NOT USED
Auxiliary Coulomb fitting basis             ... AVAILABLE
   # of basis functions in Aux-J            ...    578
   # of shells in Aux-J                     ...    190
   Maximum angular momentum in Aux-J        ...      4
Auxiliary J/K fitting basis                 ... NOT available
Auxiliary Correlation fitting basis         ... NOT available
Auxiliary 'external' fitting basis          ... NOT available
Integral threshold                          ...     2.500000e-11
Primitive cut-off                           ...     2.500000e-12
Primitive pair pre-selection threshold      ...     2.500000e-12

Calculating pre-screening integrals         ... done (  0.3 sec) Dimension = 142
Organizing shell pair data                  ... done (  0.3 sec)
Shell pair information
Total number of shell pairs                 ...     10153
Shell pairs after pre-screening             ...      8365
Total number of primitive shell pairs       ...     31120
Primitive shell pairs kept                  ...     18919
          la=0 lb=0:   2123 shell pairs
          la=1 lb=0:   2339 shell pairs
          la=1 lb=1:    648 shell pairs
          la=2 lb=0:   1228 shell pairs
          la=2 lb=1:    677 shell pairs
          la=2 lb=2:    192 shell pairs
          la=3 lb=0:    597 shell pairs
          la=3 lb=1:    336 shell pairs
          la=3 lb=2:    177 shell pairs
          la=3 lb=3:     48 shell pairs

Calculating one electron integrals          ... done (  0.1 sec)
Calculating RI/J V-Matrix + Cholesky decomp.... done (  0.0 sec)
Calculating Nuclear repulsion               ... done (  0.0 sec) ENN=    493.896801001350 Eh

SHARK setup successfully completed in   1.4 seconds

Maximum memory used throughout the entire GTOINT-calculation: 127.3 MB
-------------------------------------------------------------------------------
                                 ORCA SCF
-------------------------------------------------------------------------------

------------
SCF SETTINGS
------------
Hamiltonian:
 Density Functional     Method          .... DFT(GTOs)
 Exchange Functional    Exchange        .... B88
   X-Alpha parameter    XAlpha          ....  0.666667
   Becke's b parameter  XBeta           ....  0.004200
 Correlation Functional Correlation     .... LYP
 LDA part of GGA corr.  LDAOpt          .... VWN-3
 Gradients option       PostSCFGGA      .... off
 Hybrid DFT is turned on
   Fraction HF Exchange ScalHFX         ....  0.200000
   Scaling of DF-GGA-X  ScalDFX         ....  0.720000
   Scaling of DF-GGA-C  ScalDFC         ....  0.810000
   Scaling of DF-LDA-C  ScalLDAC        ....  1.000000
   Perturbative correction              ....  0.000000
   Density functional embedding theory  .... OFF
   NL short-range parameter             ....  4.800000
 RI-approximation to the Coulomb term is turned on
   Number of AuxJ basis functions       .... 578
   RIJ-COSX (HFX calculated with COS-X)).... on


General Settings:
 Integral files         IntName         .... para_products_optfreq3
 Hartree-Fock type      HFTyp           .... RHF
 Total Charge           Charge          ....    1
 Multiplicity           Mult            ....    1
 Number of Electrons    NEL             ....   72
 Basis Dimension        Dim             ....  358
 Nuclear Repulsion      ENuc            ....    493.8968010013 Eh

Convergence Acceleration:
 DIIS                   CNVDIIS         .... on
   Start iteration      DIISMaxIt       ....     0
   Startup error        DIISStart       ....  0.200000
   # of expansion vecs  DIISMaxEq       ....     5
   Bias factor          DIISBfac        ....   1.050
   Max. coefficient     DIISMaxC        ....  10.000
 Trust-Rad. Augm. Hess. CNVTRAH         .... auto
   Auto Start mean grad. ratio tolernc. ....  1.125000
   Auto Start start iteration           ....    20
   Auto Start num. interpolation iter.  ....    10
   Max. Number of Micro iterations      ....    16
   Max. Number of Macro iterations      .... Maxiter - #DIIS iter
   Number of Davidson start vectors     ....     2
   Converg. threshold I  (grad. norm)   ....   1.000e-05
   Converg. threshold II (energy diff.) ....   1.000e-08
   Grad. Scal. Fac. for Micro threshold ....   0.100
   Minimum threshold for Micro iter.    ....   0.010
   NR start threshold (gradient norm)   ....   0.001
   Initial trust radius                 ....   0.400
   Minimum AH scaling param. (alpha)    ....   1.000
   Maximum AH scaling param. (alpha)    .... 1000.000
   Orbital update algorithm             .... Taylor
   White noise on init. David. guess    .... on
   Maximum white noise                  ....   0.010
   Quad. conv. algorithm                .... NR
 SOSCF                  CNVSOSCF        .... on
   Start iteration      SOSCFMaxIt      ....   150
   Startup grad/error   SOSCFStart      ....  0.001000
 Level Shifting         CNVShift        .... on
   Level shift para.    LevelShift      ....    0.2500
   Turn off err/grad.   ShiftErr        ....    0.0000
 Zerner damping         CNVZerner       .... off
 Static damping         CNVDamp         .... on
   Fraction old density DampFac         ....    0.8500
   Max. Damping (<1)    DampMax         ....    0.9800
   Min. Damping (>=0)   DampMin         ....    0.0000
   Turn off err/grad.   DampErr         ....    0.0300
 Fernandez-Rico         CNVRico         .... off

SCF Procedure:
 Maximum # iterations   MaxIter         ....   125
 SCF integral mode      SCFMode         .... Direct
   Integral package                     .... SHARK and LIBINT hybrid scheme
 Reset frequency        DirectResetFreq ....    20
 Integral Threshold     Thresh          ....  2.500e-11 Eh
 Primitive CutOff       TCut            ....  2.500e-12 Eh

Convergence Tolerance:
 Convergence Check Mode ConvCheckMode   .... Total+1el-Energy
 Convergence forced     ConvForced      .... 0
 Energy Change          TolE            ....  1.000e-08 Eh
 1-El. energy change                    ....  1.000e-05 Eh
 Orbital Gradient       TolG            ....  1.000e-05
 Orbital Rotation angle TolX            ....  1.000e-05
 DIIS Error             TolErr          ....  5.000e-07


Diagonalization of the overlap matrix:
Smallest eigenvalue                        ... 8.290e-06
Time for diagonalization                   ...    0.027 sec
Threshold for overlap eigenvalues          ... 1.000e-08
Number of eigenvalues below threshold      ... 0
Time for construction of square roots      ...    0.017 sec
Total time needed                          ...    0.045 sec

Time for model grid setup =    0.642 sec

------------------------------
INITIAL GUESS: MODEL POTENTIAL
------------------------------
Loading Hartree-Fock densities                     ... done
Calculating cut-offs                               ... done
Initializing the effective Hamiltonian             ... done
Setting up the integral package (SHARK)            ... done
Starting the Coulomb interaction                   ... done (   1.6 sec)
Reading the grid                                   ... done
Mapping shells                                     ... done
Starting the XC term evaluation                    ... done (   1.6 sec)
  promolecular density results
     # of electrons  =     73.004095614
     EX              =    -61.183605015
     EC              =     -2.471505591
     EX+EC           =    -63.655110606
Transforming the Hamiltonian                       ... done (   0.0 sec)
Diagonalizing the Hamiltonian                      ... done (   0.0 sec)
Back transforming the eigenvectors                 ... done (   0.0 sec)
Now organizing SCF variables                       ... done
                      ------------------
                      INITIAL GUESS DONE (   3.9 sec)
                      ------------------
-------------------
DFT GRID GENERATION
-------------------

General Integration Accuracy     IntAcc      ... 4.388
Radial Grid Type                 RadialGrid  ... OptM3 with GC (2021)
Angular Grid (max. ang.)         AngularGrid ... 4 (Lebedev-302)
Angular grid pruning method      GridPruning ... 4 (adaptive)
Weight generation scheme         WeightScheme... Becke
Basis function cutoff            BFCut       ... 1.0000e-11
Integration weight cutoff        WCut        ... 1.0000e-14
Angular grids for H and He will be reduced by one unit
Partially contracted basis set               ... off
Rotationally invariant grid construction     ... off

Total number of grid points                  ...    86283
Total number of batches                      ...     1358
Average number of points per batch           ...       63
Average number of grid points per atom       ...     4794
Time for grid setup =    2.346 sec

--------------------
COSX GRID GENERATION
--------------------

GRIDX 1
-------
General Integration Accuracy     IntAcc      ... 3.816
Radial Grid Type                 RadialGrid  ... OptM3 with GC (2021)
Angular Grid (max. ang.)         AngularGrid ... 1 (Lebedev-50)
Angular grid pruning method      GridPruning ... 4 (adaptive)
Weight generation scheme         WeightScheme... Becke
Basis function cutoff            BFCut       ... 1.0000e-11
Integration weight cutoff        WCut        ... 1.0000e-14
Angular grids for H and He will be reduced by one unit
Partially contracted basis set               ... on
Rotationally invariant grid construction     ... off

Total number of grid points                  ...    10985
Total number of batches                      ...      181
Average number of points per batch           ...       60
Average number of grid points per atom       ...      610
UseSFitting                                  ... on

GRIDX 2
-------
General Integration Accuracy     IntAcc      ... 4.020
Radial Grid Type                 RadialGrid  ... OptM3 with GC (2021)
Angular Grid (max. ang.)         AngularGrid ... 2 (Lebedev-110)
Angular grid pruning method      GridPruning ... 4 (adaptive)
Weight generation scheme         WeightScheme... Becke
Basis function cutoff            BFCut       ... 1.0000e-11
Integration weight cutoff        WCut        ... 1.0000e-14
Angular grids for H and He will be reduced by one unit
Partially contracted basis set               ... on
Rotationally invariant grid construction     ... off

Total number of grid points                  ...    24216
Total number of batches                      ...      387
Average number of points per batch           ...       62
Average number of grid points per atom       ...     1345
UseSFitting                                  ... on

GRIDX 3
-------
General Integration Accuracy     IntAcc      ... 4.338
Radial Grid Type                 RadialGrid  ... OptM3 with GC (2021)
Angular Grid (max. ang.)         AngularGrid ... 3 (Lebedev-194)
Angular grid pruning method      GridPruning ... 4 (adaptive)
Weight generation scheme         WeightScheme... Becke
Basis function cutoff            BFCut       ... 1.0000e-11
Integration weight cutoff        WCut        ... 1.0000e-14
Angular grids for H and He will be reduced by one unit
Partially contracted basis set               ... on
Rotationally invariant grid construction     ... off

Total number of grid points                  ...    53354
Total number of batches                      ...      842
Average number of points per batch           ...       63
Average number of grid points per atom       ...     2964
UseSFitting                                  ... on

Time for X-Grid setup             =    5.070 sec

--------------
SCF ITERATIONS
--------------
ITER       Energy         Delta-E        Max-DP      RMS-DP      [F,P]     Damp
               ***  Starting incremental Fock matrix formation  ***
  0   -475.8650534367   0.000000000000 0.07591180  0.00067240  0.2404370 0.8500
  1   -476.0409878194  -0.175934382663 0.06936523  0.00061909  0.1524351 0.8500
                               ***Turning on DIIS***
  2   -476.1251424870  -0.084154667593 0.05421232  0.00047665  0.0803496 0.8500
  3   -476.1518426705  -0.026700183478 0.04633731  0.00037549  0.0401711 0.8500
  4   -476.1508302241   0.001012446404 0.05931704  0.00035900  0.0351816 0.8500
  5   -476.1350369945   0.015793229541 0.03594954  0.00035492  0.0461280 0.8500
  6   -476.1781951632  -0.043158168652 0.20371407  0.00186219  0.0203295 0.0000
  7   -476.1111559394   0.067039223776 0.00090004  0.00001651  0.0492479 0.8500
  8   -476.1120094716  -0.000853532158 0.00113907  0.00002317  0.0490673 0.8500
  9   -476.1133414313  -0.001331959750 0.00343712  0.00005764  0.0479410 0.8500
 10   -476.1159304829  -0.002589051545 0.00446287  0.00006630  0.0439175 0.8500
 11   -476.1184856758  -0.002555192921 0.07982048  0.00049483  0.0399185 0.8500
 12   -476.2119378099  -0.093452134123 0.48184981  0.00265372  0.0291156 0.0000
 13   -475.6222901137   0.589647696157 0.00178361  0.00004059  0.4447395 0.8500
 14   -475.6273247184  -0.005034604640 0.00378686  0.00005541  0.4420422 0.8500
 15   -475.6343563173  -0.007031598917 0.00639090  0.00006279  0.4376618 0.8500
 16   -475.6425594108  -0.008203093499 0.01344277  0.00007754  0.4311643 0.8500
 17   -475.6529707450  -0.010411334228 0.08118649  0.00053827  0.4187867 0.8500
 18   -475.9047262277  -0.251755482709 0.06900851  0.00042407  0.2846999 0.8500
 19   -476.0610033301  -0.156277102369 0.05865724  0.00033716  0.1914914 0.8500
               *** Restarting incremental Fock matrix formation ***
                                   *** Resetting DIIS ***

 WARNING: the maximum gradient error descreased on average only by a factor   0.9
          during the last 20 iterations

                      *** Initiating the TRAH-SCF procedure ***


TRAH GRIDX
----------

General Integration Accuracy     IntAcc      ... 3.067
Radial Grid Type                 RadialGrid  ... OptM3 with GC (2021)
Angular Grid (max. ang.)         AngularGrid ... 1 (Lebedev-50)
Angular grid pruning method      GridPruning ... 4 (adaptive)
Weight generation scheme         WeightScheme... Becke
Basis function cutoff            BFCut       ... 1.0000e-11
Integration weight cutoff        WCut        ... 1.0000e-14
Angular grids for H and He will be reduced by one unit
Partially contracted basis set               ... on
Rotationally invariant grid construction     ... off

Total number of grid points                  ...     5801
Total number of batches                      ...      102
Average number of points per batch           ...       56
Average number of grid points per atom       ...      322


TRAH GRID
---------

General Integration Accuracy     IntAcc      ... 3.467
Radial Grid Type                 RadialGrid  ... OptM3 with GC (2021)
Angular Grid (max. ang.)         AngularGrid ... 1 (Lebedev-50)
Angular grid pruning method      GridPruning ... 4 (adaptive)
Weight generation scheme         WeightScheme... Becke
Basis function cutoff            BFCut       ... 1.0000e-11
Integration weight cutoff        WCut        ... 1.0000e-14
Angular grids for H and He will be reduced by one unit
Partially contracted basis set               ... off
Rotationally invariant grid construction     ... off

Total number of grid points                  ...    12676
Total number of batches                      ...      207
Average number of points per batch           ...       61
Average number of grid points per atom       ...      704

 --------------------------------------------------------------------------------------------
   Iter.        energy            ||Error||_2        Shift      TRadius  Mac/Mic        Rej.
 --------------------------------------------------------------------------------------------
WARNING: 14 diagonal Hessian elements are negative!
    0       -476.102029203537     7.225243e-01                     0.400 (TRAH MAcro)   No
WARNING : negative HOMO - LUMO gap : -0.292965
    0     dE    -3.107289e-02     7.011097e-01    -6.1696e-02      0.085 (TRAH MIcro)
    0     dE    -4.216591e-02     1.484096e-01    -8.2863e-02      0.133 (TRAH MIcro)
    0     dE    -4.337447e-02     3.544217e-02    -8.5120e-02      0.138 (TRAH MIcro)
    0     dE    -4.342647e-02     1.805109e-02    -8.5203e-02      0.139 (TRAH MIcro)
    0     dE    -4.344116e-02     5.486528e-03    -8.5219e-02      0.140 (TRAH MIcro)
WARNING: 12 diagonal Hessian elements are negative!
    1       -476.144662177635     2.154568e-02                     0.480 (TRAH MAcro)   No
WARNING : negative HOMO - LUMO gap : -0.219134
    1     dE    -3.015748e-05     6.485865e-02    -6.0314e-05      0.003 (TRAH MIcro)
    1     dE    -8.326646e-05     1.001127e-02    -1.6652e-04      0.010 (TRAH MIcro)
    1     dE    -8.742529e-05     3.677951e-03    -1.7483e-04      0.010 (TRAH MIcro)
    1     dE    -8.792695e-05     2.618747e-03    -1.7583e-04      0.011 (TRAH MIcro)
    1     dE    -1.889992e-02     1.393367e+00    -1.6243e-01      0.480 (TRAH MIcro)
    1     dE    -6.756169e-05     1.256107e-02    -1.4985e+00      0.005 (TRAH MIcro)
    1     dE    -9.949073e-02     3.030064e-01    -8.6280e-01      0.480 (TRAH MIcro)
    1     dE    -6.808478e-05     1.024473e-03    -1.5414e+00      0.005 (TRAH MIcro)
WARNING: 14 diagonal Hessian elements are negative!
    2       -476.144730253778     7.810625e-03                     0.576 (TRAH MAcro)   No
WARNING : negative HOMO - LUMO gap : -0.222549
    2     dE    -1.104824e-05     2.408245e-02    -2.2096e-05      0.003 (TRAH MIcro)
    2     dE    -1.943462e-05     3.977024e-03    -3.8868e-05      0.006 (TRAH MIcro)
    2     dE    -2.043857e-05     4.892331e-03    -4.0876e-05      0.006 (TRAH MIcro)
    2     dE    -2.670072e-02     5.924432e-01    -6.1346e-01      0.295 (TRAH MIcro)
    2     dE    -1.504482e-01     4.901465e-01    -9.0642e-01      0.576 (TRAH MIcro)
    2     dE    -1.548790e-01     1.214647e-01    -9.3310e-01      0.576 (TRAH MIcro)
    2     dE    -1.553358e-01     2.645584e-02    -9.3584e-01      0.576 (TRAH MIcro)
    2     dE    -1.554904e-01     3.763623e-02    -9.3677e-01      0.576 (TRAH MIcro)
    2     dE    -1.555906e-01     2.447882e-02    -9.3738e-01      0.576 (TRAH MIcro)
    2     dE    -1.556301e-01     8.409898e-03    -9.3762e-01      0.576 (TRAH MIcro)
    2     dE    -1.556355e-01     3.700433e-03    -9.3765e-01      0.576 (TRAH MIcro)
    2     dE    -1.556367e-01     2.405742e-03    -9.3766e-01      0.576 (TRAH MIcro)
    2     dE    -1.556367e-01     9.760565e-04    -9.3766e-01      0.576 (TRAH MIcro)
    2     dE    -1.556376e-01     2.570395e-04    -9.3766e-01      0.576 (TRAH MIcro)
WARNING: 1 diagonal Hessian elements are negative!
    3       -476.253203214920     3.404579e-01                     0.576 (TRAH MAcro)   No
WARNING : negative HOMO - LUMO gap : -0.002073
    3     dE    -7.290441e-03     3.941765e-01    -1.4554e-02      0.043 (TRAH MIcro)
    3     dE    -1.157088e-02     9.581882e-02    -2.2955e-02      0.090 (TRAH MIcro)
    3     dE    -1.216830e-02     3.959425e-02    -2.4110e-02      0.097 (TRAH MIcro)
    3     dE    -1.224984e-02     3.245105e-02    -2.4252e-02      0.101 (TRAH MIcro)
    3     dE    -1.229681e-02     1.318794e-02    -2.4325e-02      0.105 (TRAH MIcro)
    3     dE    -1.231915e-02     7.105102e-03    -2.4352e-02      0.108 (TRAH MIcro)
    4       -476.265216013819     1.962503e-02                     0.691 (TRAH MAcro)   No
WARNING : small    HOMO - LUMO gap : 0.009711
    4     dE    -1.605873e-05     4.973339e-02    -3.2117e-05      0.002 (TRAH MIcro)
    4     dE    -3.560709e-05     2.925609e-02    -7.1212e-05      0.005 (TRAH MIcro)
    4     dE    -9.706627e-05     2.012827e-02    -1.9409e-04      0.016 (TRAH MIcro)
    4     dE    -1.240520e-04     8.029845e-03    -2.4798e-04      0.022 (TRAH MIcro)
    4     dE    -1.271112e-04     2.597487e-03    -2.5408e-04      0.024 (TRAH MIcro)
    4     dE    -1.275217e-04     1.045311e-03    -2.5490e-04      0.024 (TRAH MIcro)
    5       -476.265350046233     1.944453e-03                     0.829 (TRAH MAcro)   No
WARNING : small    HOMO - LUMO gap : 0.008389
    5     dE    -1.819139e-07     3.492660e-03    -3.6383e-07      0.000 (TRAH MIcro)
    5     dE    -3.189534e-07     2.406835e-03    -6.3791e-07      0.000 (TRAH MIcro)
    5     dE    -9.161544e-07     1.594972e-03    -1.8323e-06      0.002 (TRAH MIcro)
    5     dE    -1.141608e-06     1.011263e-03    -2.2832e-06      0.002 (TRAH MIcro)
    5     dE    -1.189272e-06     2.307712e-04    -2.3785e-06      0.003 (TRAH MIcro)
    5     dE    -1.192073e-06     1.168073e-04    -2.3841e-06      0.003 (TRAH MIcro)
    6       -476.265351249689     1.181826e-04                           (NR   MAcro)
WARNING : small    HOMO - LUMO gap : 0.008257
    6     dE    -9.900887e-11     1.131356e-04                           (NR   MIcro)
    6     dE    -6.082819e-10     6.132982e-05                           (NR   MIcro)
    6     dE    -8.048185e-10     2.989731e-05                           (NR   MIcro)
    6     dE    -8.770216e-10     1.096688e-05                           (NR   MIcro)
    6     dE    -8.858793e-10     7.422084e-06                           (NR   MIcro)
    6     dE    -8.878858e-10     2.725504e-06                           (NR   MIcro)
    6     dE    -8.881822e-10     9.119299e-07                           (NR   MIcro)
    7       -476.265351250492     9.249911e-07                           (NR   MAcro)
WARNING : small    HOMO - LUMO gap : 0.008255

               *****************************************************
               *                     SUCCESS                       *
               *           SCF CONVERGED AFTER  80 CYCLES          *
               *****************************************************

Old exchange energy                            =    -12.252085686 Eh
New exchange energy                            =    -12.252104545 Eh
Exchange energy change after final integration =     -0.000018859 Eh
Total energy after final integration           =   -476.265370109 Eh
Final COS-X integration done in                =    47.050 sec

----------------
TOTAL SCF ENERGY
----------------

Total Energy       :         -476.26537011 Eh          -12959.83959 eV

Components:
Nuclear Repulsion  :          493.89680100 Eh           13439.61521 eV
Electronic Energy  :         -970.16217111 Eh          -26399.45480 eV
One Electron Energy:        -1614.76965275 Eh          -43940.11612 eV
Two Electron Energy:          644.60748164 Eh           17540.66133 eV
Max COSX asymmetry :            0.00000183 Eh               0.00005 eV

Virial components:
Potential Energy   :         -949.60977638 Eh          -25840.19571 eV
Kinetic Energy     :          473.34440627 Eh           12880.35612 eV
Virial Ratio       :            2.00617091


DFT components:
N(Alpha)           :       35.999988670829 electrons
N(Beta)            :       35.999988670829 electrons
N(Total)           :       71.999977341658 electrons
E(X)               :      -48.932766869397 Eh       
E(C)               :       -3.150783286731 Eh       
E(XC)              :      -52.083550156129 Eh       
DFET-embed. en.    :        0.000000000000 Eh       

---------------
SCF CONVERGENCE
---------------

  Last Energy change         ...   -8.0269e-10  Tolerance :   1.0000e-08
  Last Orbital Gradient      ...    9.2499e-07  Tolerance :   1.0000e-05
  Last Orbital Rotation      ...    3.9770e-05

             **** THE GBW FILE WAS UPDATED (para_products_optfreq3.gbw) ****
             **** DENSITY para_products_optfreq3.scfp WAS UPDATED ****
             **** ENERGY FILE WAS UPDATED (para_products_optfreq3.en.tmp) ****
             **** THE GBW FILE WAS UPDATED (para_products_optfreq3.gbw) ****
             **** DENSITY para_products_optfreq3.scfp WAS UPDATED ****
----------------
ORBITAL ENERGIES
----------------

  NO   OCC          E(Eh)            E(eV) 
   0   2.0000     -19.311955      -525.5050 
   1   2.0000     -19.311653      -525.4968 
   2   2.0000     -14.698400      -399.9638 
   3   2.0000     -10.410749      -283.2909 
   4   2.0000     -10.400598      -283.0147 
   5   2.0000     -10.384570      -282.5785 
   6   2.0000     -10.359099      -281.8854 
   7   2.0000     -10.357123      -281.8316 
   8   2.0000     -10.354223      -281.7527 
   9   2.0000     -10.353744      -281.7397 
  10   2.0000      -1.384044       -37.6617 
  11   2.0000      -1.210964       -32.9520 
  12   2.0000      -1.051783       -28.6205 
  13   2.0000      -0.975544       -26.5459 
  14   2.0000      -0.932329       -25.3700 
  15   2.0000      -0.885345       -24.0915 
  16   2.0000      -0.791956       -21.5502 
  17   2.0000      -0.787384       -21.4258 
  18   2.0000      -0.738657       -20.0999 
  19   2.0000      -0.706915       -19.2361 
  20   2.0000      -0.688871       -18.7451 
  21   2.0000      -0.664168       -18.0729 
  22   2.0000      -0.631737       -17.1904 
  23   2.0000      -0.625242       -17.0137 
  24   2.0000      -0.606622       -16.5070 
  25   2.0000      -0.603051       -16.4098 
  26   2.0000      -0.565097       -15.3771 
  27   2.0000      -0.529057       -14.3964 
  28   2.0000      -0.524341       -14.2680 
  29   2.0000      -0.513942       -13.9851 
  30   2.0000      -0.491547       -13.3757 
  31   2.0000      -0.463125       -12.6023 
  32   2.0000      -0.458266       -12.4701 
  33   2.0000      -0.448350       -12.2002 
  34   2.0000      -0.435328       -11.8459 
  35   2.0000      -0.399571       -10.8729 
  36   0.0000      -0.391316       -10.6483 
  37   0.0000      -0.233279        -6.3479 
  38   0.0000      -0.182537        -4.9671 
  39   0.0000      -0.177398        -4.8272 
  40   0.0000      -0.143778        -3.9124 
  41   0.0000      -0.102609        -2.7921 
  42   0.0000      -0.081688        -2.2228 
  43   0.0000      -0.072480        -1.9723 
  44   0.0000      -0.040523        -1.1027 
  45   0.0000      -0.034375        -0.9354 
  46   0.0000      -0.017793        -0.4842 
  47   0.0000      -0.013374        -0.3639 
  48   0.0000      -0.002909        -0.0792 
  49   0.0000       0.005800         0.1578 
  50   0.0000       0.030912         0.8412 
  51   0.0000       0.039105         1.0641 
  52   0.0000       0.052226         1.4211 
  53   0.0000       0.058197         1.5836 
  54   0.0000       0.081649         2.2218 
  55   0.0000       0.083488         2.2718 
  56   0.0000       0.090709         2.4683 
  57   0.0000       0.095443         2.5971 
  58   0.0000       0.115803         3.1512 
  59   0.0000       0.124994         3.4013 
  60   0.0000       0.130363         3.5473 
  61   0.0000       0.133005         3.6193 
  62   0.0000       0.133805         3.6410 
  63   0.0000       0.152471         4.1490 
  64   0.0000       0.160702         4.3729 
  65   0.0000       0.174153         4.7389 
  66   0.0000       0.184494         5.0203 
  67   0.0000       0.191486         5.2106 
  68   0.0000       0.197233         5.3670 
  69   0.0000       0.200245         5.4490 
  70   0.0000       0.206820         5.6279 
  71   0.0000       0.218255         5.9390 
  72   0.0000       0.222965         6.0672 
  73   0.0000       0.237150         6.4532 
  74   0.0000       0.249493         6.7891 
  75   0.0000       0.262038         7.1304 
  76   0.0000       0.266550         7.2532 
  77   0.0000       0.274699         7.4750 
  78   0.0000       0.283303         7.7091 
  79   0.0000       0.286032         7.7833 
  80   0.0000       0.298406         8.1201 
  81   0.0000       0.299323         8.1450 
  82   0.0000       0.334048         9.0899 
  83   0.0000       0.335454         9.1282 
  84   0.0000       0.339678         9.2431 
  85   0.0000       0.347280         9.4500 
  86   0.0000       0.363768         9.8986 
  87   0.0000       0.378395        10.2967 
  88   0.0000       0.384986        10.4760 
  89   0.0000       0.394118        10.7245 
  90   0.0000       0.404749        11.0138 
  91   0.0000       0.412480        11.2241 
  92   0.0000       0.434948        11.8355 
  93   0.0000       0.443597        12.0709 
  94   0.0000       0.471335        12.8257 
  95   0.0000       0.476210        12.9583 
  96   0.0000       0.490012        13.3339 
  97   0.0000       0.497943        13.5497 
  98   0.0000       0.509692        13.8694 
  99   0.0000       0.519593        14.1388 
 100   0.0000       0.533163        14.5081 
 101   0.0000       0.544196        14.8083 
 102   0.0000       0.564716        15.3667 
 103   0.0000       0.582716        15.8565 
 104   0.0000       0.595156        16.1950 
 105   0.0000       0.611818        16.6484 
 106   0.0000       0.620713        16.8905 
 107   0.0000       0.627867        17.0851 
 108   0.0000       0.657154        17.8821 
 109   0.0000       0.681037        18.5320 
 110   0.0000       0.700207        19.0536 
 111   0.0000       0.709699        19.3119 
 112   0.0000       0.741538        20.1783 
 113   0.0000       0.759837        20.6762 
 114   0.0000       0.770937        20.9783 
 115   0.0000       0.778942        21.1961 
 116   0.0000       0.821773        22.3616 
 117   0.0000       0.826884        22.5006 
 118   0.0000       0.853115        23.2144 
 119   0.0000       0.869048        23.6480 
 120   0.0000       0.898350        24.4454 
 121   0.0000       0.899537        24.4776 
 122   0.0000       0.911064        24.7913 
 123   0.0000       0.927036        25.2259 
 124   0.0000       0.941362        25.6158 
 125   0.0000       0.975186        26.5362 
 126   0.0000       1.016867        27.6703 
 127   0.0000       1.020006        27.7558 
 128   0.0000       1.055258        28.7150 
 129   0.0000       1.064143        28.9568 
 130   0.0000       1.069009        29.0892 
 131   0.0000       1.089425        29.6447 
 132   0.0000       1.095807        29.8184 
 133   0.0000       1.115406        30.3517 
 134   0.0000       1.128972        30.7209 
 135   0.0000       1.141921        31.0733 
 136   0.0000       1.181837        32.1594 
 137   0.0000       1.187176        32.3047 
 138   0.0000       1.205997        32.8168 
 139   0.0000       1.206020        32.8175 
 140   0.0000       1.206022        32.8175 
 141   0.0000       1.211213        32.9588 
 142   0.0000       1.219920        33.1957 
 143   0.0000       1.261936        34.3390 
 144   0.0000       1.273359        34.6499 
 145   0.0000       1.306738        35.5582 
 146   0.0000       1.320408        35.9301 
 147   0.0000       1.324178        36.0327 
 148   0.0000       1.339988        36.4629 
 149   0.0000       1.348247        36.6877 
 150   0.0000       1.360117        37.0107 
 151   0.0000       1.376663        37.4609 
 152   0.0000       1.391080        37.8532 
 153   0.0000       1.402089        38.1528 
 154   0.0000       1.410897        38.3925 
 155   0.0000       1.417686        38.5772 
 156   0.0000       1.433215        38.9998 
 157   0.0000       1.449451        39.4416 
 158   0.0000       1.455778        39.6137 
 159   0.0000       1.480870        40.2965 
 160   0.0000       1.490350        40.5545 
 161   0.0000       1.499163        40.7943 
 162   0.0000       1.529540        41.6209 
 163   0.0000       1.534751        41.7627 
 164   0.0000       1.561561        42.4922 
 165   0.0000       1.580189        42.9991 
 166   0.0000       1.620866        44.1060 
 167   0.0000       1.639598        44.6157 
 168   0.0000       1.654078        45.0098 
 169   0.0000       1.678003        45.6608 
 170   0.0000       1.697058        46.1793 
 171   0.0000       1.704242        46.3748 
 172   0.0000       1.733451        47.1696 
 173   0.0000       1.750961        47.6461 
 174   0.0000       1.782609        48.5072 
 175   0.0000       1.790664        48.7264 
 176   0.0000       1.820471        49.5375 
 177   0.0000       1.831405        49.8351 
 178   0.0000       1.840188        50.0741 
 179   0.0000       1.862283        50.6753 
 180   0.0000       1.884887        51.2904 
 181   0.0000       1.898246        51.6539 
 182   0.0000       1.912375        52.0384 
 183   0.0000       1.946521        52.9675 
 184   0.0000       1.958922        53.3050 
 185   0.0000       1.971261        53.6407 
 186   0.0000       1.995835        54.3094 
 187   0.0000       2.011546        54.7370 
 188   0.0000       2.012378        54.7596 
 189   0.0000       2.014461        54.8163 
 190   0.0000       2.034241        55.3545 
 191   0.0000       2.060186        56.0605 
 192   0.0000       2.088402        56.8283 
 193   0.0000       2.101617        57.1879 
 194   0.0000       2.125840        57.8471 
 195   0.0000       2.137758        58.1714 
 196   0.0000       2.182444        59.3873 
 197   0.0000       2.209587        60.1259 
 198   0.0000       2.218373        60.3650 
 199   0.0000       2.252292        61.2880 
 200   0.0000       2.265510        61.6477 
 201   0.0000       2.326240        63.3002 
 202   0.0000       2.353951        64.0543 
 203   0.0000       2.359195        64.1970 
 204   0.0000       2.384666        64.8901 
 205   0.0000       2.403316        65.3975 
 206   0.0000       2.411195        65.6119 
 207   0.0000       2.427773        66.0631 
 208   0.0000       2.460047        66.9413 
 209   0.0000       2.470709        67.2314 
 210   0.0000       2.478753        67.4503 
 211   0.0000       2.498447        67.9862 
 212   0.0000       2.503303        68.1183 
 213   0.0000       2.510702        68.3197 
 214   0.0000       2.515673        68.4549 
 215   0.0000       2.541702        69.1632 
 216   0.0000       2.566248        69.8312 
 217   0.0000       2.580164        70.2098 
 218   0.0000       2.588126        70.4265 
 219   0.0000       2.592625        70.5489 
 220   0.0000       2.613788        71.1248 
 221   0.0000       2.629851        71.5619 
 222   0.0000       2.657089        72.3031 
 223   0.0000       2.678480        72.8851 
 224   0.0000       2.689533        73.1859 
 225   0.0000       2.697413        73.4003 
 226   0.0000       2.723567        74.1120 
 227   0.0000       2.732166        74.3460 
 228   0.0000       2.760913        75.1283 
 229   0.0000       2.794747        76.0489 
 230   0.0000       2.810684        76.4826 
 231   0.0000       2.834008        77.1173 
 232   0.0000       2.835983        77.1710 
 233   0.0000       2.847940        77.4964 
 234   0.0000       2.866366        77.9978 
 235   0.0000       2.884805        78.4995 
 236   0.0000       2.908048        79.1320 
 237   0.0000       2.925865        79.6168 
 238   0.0000       2.935408        79.8765 
 239   0.0000       2.964018        80.6550 
 240   0.0000       2.973144        80.9034 
 241   0.0000       2.976891        81.0053 
 242   0.0000       2.983827        81.1941 
 243   0.0000       2.994490        81.4842 
 244   0.0000       3.035965        82.6128 
 245   0.0000       3.041270        82.7572 
 246   0.0000       3.054727        83.1233 
 247   0.0000       3.069167        83.5163 
 248   0.0000       3.076365        83.7122 
 249   0.0000       3.092685        84.1562 
 250   0.0000       3.126194        85.0681 
 251   0.0000       3.136635        85.3522 
 252   0.0000       3.143680        85.5439 
 253   0.0000       3.158316        85.9422 
 254   0.0000       3.174371        86.3790 
 255   0.0000       3.187590        86.7387 
 256   0.0000       3.199737        87.0693 
 257   0.0000       3.204284        87.1930 
 258   0.0000       3.225942        87.7824 
 259   0.0000       3.264277        88.8255 
 260   0.0000       3.273772        89.0839 
 261   0.0000       3.278410        89.2101 
 262   0.0000       3.295329        89.6705 
 263   0.0000       3.307570        90.0036 
 264   0.0000       3.316435        90.2448 
 265   0.0000       3.339614        90.8755 
 266   0.0000       3.372632        91.7740 
 267   0.0000       3.389764        92.2402 
 268   0.0000       3.404702        92.6466 
 269   0.0000       3.434024        93.4446 
 270   0.0000       3.461565        94.1940 
 271   0.0000       3.543192        96.4152 
 272   0.0000       3.561496        96.9132 
 273   0.0000       3.587282        97.6149 
 274   0.0000       3.596140        97.8559 
 275   0.0000       3.635137        98.9171 
 276   0.0000       3.667847        99.8072 
 277   0.0000       3.680484       100.1511 
 278   0.0000       3.720120       101.2296 
 279   0.0000       3.723978       101.3346 
 280   0.0000       3.733685       101.5987 
 281   0.0000       3.776555       102.7653 
 282   0.0000       3.847773       104.7032 
 283   0.0000       3.853755       104.8660 
 284   0.0000       3.890292       105.8602 
 285   0.0000       3.934228       107.0558 
 286   0.0000       3.947339       107.4126 
 287   0.0000       3.973934       108.1362 
 288   0.0000       3.991051       108.6020 
 289   0.0000       3.993833       108.6777 
 290   0.0000       4.025611       109.5425 
 291   0.0000       4.038631       109.8967 
 292   0.0000       4.056610       110.3860 
 293   0.0000       4.062073       110.5346 
 294   0.0000       4.073302       110.8402 
 295   0.0000       4.139669       112.6461 
 296   0.0000       4.184875       113.8762 
 297   0.0000       4.233489       115.1991 
 298   0.0000       4.300434       117.0208 
 299   0.0000       4.333084       117.9092 
 300   0.0000       4.353854       118.4744 
 301   0.0000       4.370937       118.9392 
 302   0.0000       4.454941       121.2251 
 303   0.0000       4.472101       121.6921 
 304   0.0000       4.517150       122.9179 
 305   0.0000       4.542193       123.5994 
 306   0.0000       4.557493       124.0157 
 307   0.0000       4.567701       124.2935 
 308   0.0000       4.632332       126.0522 
 309   0.0000       4.639425       126.2452 
 310   0.0000       4.680188       127.3544 
 311   0.0000       4.722221       128.4982 
 312   0.0000       4.744138       129.0946 
 313   0.0000       4.877572       132.7255 
 314   0.0000       4.909729       133.6005 
 315   0.0000       4.928269       134.1050 
 316   0.0000       4.970883       135.2646 
 317   0.0000       4.988901       135.7549 
 318   0.0000       4.998740       136.0226 
 319   0.0000       5.016947       136.5181 
 320   0.0000       5.035762       137.0301 
 321   0.0000       5.101022       138.8059 
 322   0.0000       5.111255       139.0843 
 323   0.0000       5.185793       141.1126 
 324   0.0000       5.213587       141.8689 
 325   0.0000       5.247426       142.7897 
 326   0.0000       5.313797       144.5958 
 327   0.0000       5.351044       145.6093 
 328   0.0000       5.416650       147.3945 
 329   0.0000       5.469003       148.8191 
 330   0.0000       5.624264       153.0440 
 331   0.0000       5.640347       153.4817 
 332   0.0000       5.821161       158.4018 
 333   0.0000       6.102110       166.0468 
 334   0.0000       6.175356       168.0400 
 335   0.0000       6.216665       169.1641 
 336   0.0000       6.226007       169.4183 
 337   0.0000       6.238496       169.7581 
 338   0.0000       6.327745       172.1867 
 339   0.0000       6.538805       177.9299 
 340   0.0000       6.727738       183.0710 
 341   0.0000       6.748609       183.6390 
 342   0.0000       6.789803       184.7599 
 343   0.0000       6.947475       189.0504 
 344   0.0000       7.132454       194.0839 
 345   0.0000       7.181566       195.4203 
 346   0.0000       7.250554       197.2976 
 347   0.0000       7.266579       197.7337 
 348   0.0000      21.829500       594.0109 
 349   0.0000      21.942925       597.0973 
 350   0.0000      22.436567       610.5300 
 351   0.0000      22.528665       613.0362 
 352   0.0000      22.546667       613.5260 
 353   0.0000      22.631678       615.8393 
 354   0.0000      23.015662       626.2880 
 355   0.0000      32.374173       880.9460 
 356   0.0000      43.830095      1192.6775 
 357   0.0000      43.834849      1192.8069 

                    ********************************
                    * MULLIKEN POPULATION ANALYSIS *
                    ********************************

-----------------------
MULLIKEN ATOMIC CHARGES
-----------------------
   0 C :    0.203306
   1 C :   -0.095263
   2 C :   -0.154431
   3 C :    0.186050
   4 C :   -0.141600
   5 C :   -0.102341
   6 C :   -0.405706
   7 H :    0.182789
   8 H :    0.201615
   9 H :    0.172083
  10 H :    0.162339
  11 H :    0.187106
  12 H :    0.186335
  13 H :    0.166243
  14 N :    0.411265
  15 O :   -0.234167
  16 O :   -0.230604
  17 H :    0.304983
Sum of atomic charges:    1.0000000

--------------------------------
MULLIKEN REDUCED ORBITAL CHARGES
--------------------------------
  0 C s       :     3.188994  s :     3.188994
      pz      :     0.790329  p :     2.470090
      px      :     0.839672
      py      :     0.840088
      dz2     :     0.032439  d :     0.127954
      dxz     :     0.018710
      dyz     :     0.025273
      dx2y2   :     0.029707
      dxy     :     0.021826
      f0      :     0.001049  f :     0.009656
      f+1     :     0.001333
      f-1     :     0.001418
      f+2     :     0.001753
      f-2     :     0.001452
      f+3     :     0.001396
      f-3     :     0.001254
  1 C s       :     3.199509  s :     3.199509
      pz      :     0.926438  p :     2.812321
      px      :     0.905152
      py      :     0.980732
      dz2     :     0.017082  d :     0.076250
      dxz     :     0.013585
      dyz     :     0.016034
      dx2y2   :     0.015909
      dxy     :     0.013640
      f0      :     0.001041  f :     0.007182
      f+1     :     0.001145
      f-1     :     0.000785
      f+2     :     0.001416
      f-2     :     0.001225
      f+3     :     0.000930
      f-3     :     0.000640
  2 C s       :     3.258613  s :     3.258613
      pz      :     0.932462  p :     2.804891
      px      :     0.973514
      py      :     0.898915
      dz2     :     0.017558  d :     0.083532
      dxz     :     0.014734
      dyz     :     0.018778
      dx2y2   :     0.017570
      dxy     :     0.014891
      f0      :     0.001186  f :     0.007395
      f+1     :     0.000680
      f-1     :     0.000932
      f+2     :     0.001409
      f-2     :     0.001348
      f+3     :     0.000708
      f-3     :     0.001132
  3 C s       :     3.108908  s :     3.108908
      pz      :     0.818250  p :     2.566399
      px      :     0.869998
      py      :     0.878151
      dz2     :     0.025043  d :     0.126676
      dxz     :     0.018678
      dyz     :     0.027607
      dx2y2   :     0.027719
      dxy     :     0.027629
      f0      :     0.001108  f :     0.011967
      f+1     :     0.001853
      f-1     :     0.002017
      f+2     :     0.001980
      f-2     :     0.001953
      f+3     :     0.001638
      f-3     :     0.001418
  4 C s       :     3.256335  s :     3.256335
      pz      :     0.914635  p :     2.794442
      px      :     0.891212
      py      :     0.988595
      dz2     :     0.018669  d :     0.083414
      dxz     :     0.015446
      dyz     :     0.017464
      dx2y2   :     0.018531
      dxy     :     0.013304
      f0      :     0.001030  f :     0.007409
      f+1     :     0.001176
      f-1     :     0.000781
      f+2     :     0.001515
      f-2     :     0.001224
      f+3     :     0.000981
      f-3     :     0.000704
  5 C s       :     3.212884  s :     3.212884
      pz      :     0.939637  p :     2.808367
      px      :     0.968226
      py      :     0.900504
      dz2     :     0.015367  d :     0.073920
      dxz     :     0.013021
      dyz     :     0.015775
      dx2y2   :     0.014327
      dxy     :     0.015430
      f0      :     0.001098  f :     0.007170
      f+1     :     0.000665
      f-1     :     0.001031
      f+2     :     0.001337
      f-2     :     0.001297
      f+3     :     0.000739
      f-3     :     0.001003
  6 C s       :     3.499292  s :     3.499292
      pz      :     0.899365  p :     2.846653
      px      :     0.978812
      py      :     0.968476
      dz2     :     0.013874  d :     0.056062
      dxz     :     0.011027
      dyz     :     0.010121
      dx2y2   :     0.012971
      dxy     :     0.008069
      f0      :     0.000453  f :     0.003700
      f+1     :     0.000781
      f-1     :     0.000652
      f+2     :     0.000556
      f-2     :     0.000451
      f+3     :     0.000388
      f-3     :     0.000419
  7 H s       :     0.802320  s :     0.802320
      pz      :     0.001955  p :     0.014891
      px      :     0.010735
      py      :     0.002200
  8 H s       :     0.787274  s :     0.787274
      pz      :     0.006089  p :     0.011112
      px      :     0.002886
      py      :     0.002136
  9 H s       :     0.816951  s :     0.816951
      pz      :     0.001276  p :     0.010967
      px      :     0.001393
      py      :     0.008297
 10 H s       :     0.814725  s :     0.814725
      pz      :     0.004795  p :     0.022936
      px      :     0.004873
      py      :     0.013269
 11 H s       :     0.790057  s :     0.790057
      pz      :     0.006952  p :     0.022837
      px      :     0.010198
      py      :     0.005687
 12 H s       :     0.790798  s :     0.790798
      pz      :     0.004710  p :     0.022867
      px      :     0.004555
      py      :     0.013602
 13 H s       :     0.810987  s :     0.810987
      pz      :     0.006405  p :     0.022770
      px      :     0.010389
      py      :     0.005977
 14 N s       :     3.262239  s :     3.262239
      pz      :     1.017932  p :     3.056225
      px      :     1.123312
      py      :     0.914981
      dz2     :     0.053254  d :     0.256648
      dxz     :     0.030569
      dyz     :     0.079976
      dx2y2   :     0.033930
      dxy     :     0.058919
      f0      :     0.002720  f :     0.013622
      f+1     :     0.001331
      f-1     :     0.001861
      f+2     :     0.002736
      f-2     :     0.001342
      f+3     :     0.001996
      f-3     :     0.001635
 15 O s       :     3.905012  s :     3.905012
      pz      :     1.696951  p :     4.282701
      px      :     1.461721
      py      :     1.124028
      dz2     :     0.005456  d :     0.043192
      dxz     :     0.000644
      dyz     :     0.009569
      dx2y2   :     0.014969
      dxy     :     0.012554
      f0      :     0.000327  f :     0.003262
      f+1     :     0.000082
      f-1     :     0.000623
      f+2     :     0.000442
      f-2     :     0.000095
      f+3     :     0.000826
      f-3     :     0.000866
 16 O s       :     3.905817  s :     3.905817
      pz      :     1.303548  p :     4.278103
      px      :     1.419460
      py      :     1.555095
      dz2     :     0.012094  d :     0.043408
      dxz     :     0.008927
      dyz     :     0.013738
      dx2y2   :     0.003819
      dxy     :     0.004830
      f0      :     0.000551  f :     0.003276
      f+1     :     0.000300
      f-1     :     0.001013
      f+2     :     0.000533
      f-2     :     0.000634
      f+3     :     0.000128
      f-3     :     0.000118
 17 H s       :     0.695017  s :     0.695017
      pz      :     0.000000  p :     0.000000
      px      :     0.000000
      py      :     0.000000


                     *******************************
                     * LOEWDIN POPULATION ANALYSIS *
                     *******************************

----------------------
LOEWDIN ATOMIC CHARGES
----------------------
   0 C :   -0.129493
   1 C :   -0.049315
   2 C :   -0.054198
   3 C :   -0.081595
   4 C :   -0.049295
   5 C :   -0.052969
   6 C :   -0.254022
   7 H :    0.194569
   8 H :    0.222682
   9 H :    0.194799
  10 H :    0.163760
  11 H :    0.172048
  12 H :    0.171595
  13 H :    0.165569
  14 N :   -0.030807
  15 O :    0.053787
  16 O :    0.057900
  17 H :    0.304983

-------------------------------
LOEWDIN REDUCED ORBITAL CHARGES
-------------------------------
  0 C s       :     2.737311  s :     2.737311
      pz      :     0.922623  p :     2.808935
      px      :     0.896590
      py      :     0.989722
      dz2     :     0.104624  d :     0.527657
      dxz     :     0.087445
      dyz     :     0.118224
      dx2y2   :     0.108703
      dxy     :     0.108660
      f0      :     0.006448  f :     0.055591
      f+1     :     0.007656
      f-1     :     0.008573
      f+2     :     0.010873
      f-2     :     0.005851
      f+3     :     0.009256
      f-3     :     0.006933
  1 C s       :     2.764697  s :     2.764697
      pz      :     0.965593  p :     2.877080
      px      :     0.940012
      py      :     0.971475
      dz2     :     0.073746  d :     0.365780
      dxz     :     0.082039
[...]
    30. A(C   4,C   3,N  14)          118.26 -0.000541    0.00    118.26 C 
    31. A(C   2,C   3,C   4)          123.07  0.000152   -0.00    123.07 C 
    32. A(C   2,C   3,N  14)          118.67  0.000389    0.00    118.67 C 
    33. A(C   5,C   4,H  12)          122.02 -0.000034   -0.00    122.02   
    34. A(C   3,C   4,C   5)          118.23  0.000067    0.00    118.23 C 
    35. A(C   3,C   4,H  12)          119.75 -0.000033    0.00    119.75   
    36. A(C   0,C   5,H  13)          119.30  0.000130   -0.00    119.30   
    37. A(C   4,C   5,H  13)          119.95  0.000127    0.00    119.95   
    38. A(C   0,C   5,C   4)          120.75 -0.000258    0.00    120.75 C 
    39. A(C   0,C   6,H   7)          112.54  0.000005   -0.00    112.54   
    40. A(C   0,C   6,H   9)          111.37  0.000001    0.00    111.37   
    41. A(H   7,C   6,H   9)          109.92 -0.000003    0.00    109.92   
    42. A(C   0,C   6,H   8)          109.21 -0.000003   -0.00    109.20   
    43. A(H   7,C   6,H   8)          107.76 -0.000001   -0.01    107.76   
    44. A(H   8,C   6,H   9)          105.75 -0.000000    0.00    105.75   
    45. A(C   3,N  14,O  15)          116.78 -0.000226   -0.00    116.78 C 
    46. A(C   3,N  14,O  16)          117.20  0.000171   -0.00    117.20 C 
    47. A(O  15,N  14,O  16)          126.02  0.000055    0.00    126.02 C 
    48. A(C   3,N  14,H  17)          166.25 -0.000088    0.06    166.31   
    49. A(O  15,N  14,H  17)           49.50  0.000139    0.06     49.56   
    50. A(O  16,N  14,H  17)           76.52 -0.000084   -0.06     76.47   
    51. A(N  14,O  15,H  17)          126.65 -0.000187   -0.03    126.62   
    52. A(N  14,O  16,H  17)           98.75  0.000056    0.09     98.84   
    53. A(N  14,H  17,O  15)            3.84  0.000048   -0.02      3.82   
    54. A(N  14,H  17,O  16)            4.73  0.000028   -0.03      4.70   
    55. A(O  15,H  17,O  16)            8.57  0.000077   -0.05      8.51   
    56. D(C   2,C   1,C   0,C   5)      0.01 -0.000077   -0.00      0.01 C 
    57. D(C   2,C   1,C   0,C   6)   -177.12  0.000547    0.00   -177.12 C 
    58. D(H  10,C   1,C   0,C   5)    179.95 -0.000191    0.00    179.95   
    59. D(H  10,C   1,C   0,C   6)      2.82  0.000433    0.00      2.82   
    60. D(C   3,C   2,C   1,C   0)      0.39  0.000037   -0.00      0.39 C 
    61. D(H  11,C   2,C   1,C   0)   -179.47 -0.000027    0.00   -179.47   
    62. D(H  11,C   2,C   1,H  10)      0.59  0.000089   -0.00      0.59   
    63. D(C   3,C   2,C   1,H  10)   -179.55  0.000152   -0.00   -179.55   
    64. D(C   4,C   3,C   2,C   1)     -0.36 -0.000014    0.00     -0.36 C 
    65. D(C   4,C   3,C   2,H  11)    179.50  0.000048   -0.00    179.50   
    66. D(N  14,C   3,C   2,C   1)    179.47 -0.000047    0.00    179.47 C 
    67. D(N  14,C   3,C   2,H  11)     -0.66  0.000015   -0.00     -0.67   
    68. D(H  12,C   4,C   3,C   2)    179.68 -0.000058   -0.00    179.68   
    69. D(C   5,C   4,C   3,C   2)     -0.09  0.000033   -0.00     -0.09 C 
    70. D(C   5,C   4,C   3,N  14)   -179.93  0.000063   -0.00   -179.93 C 
    71. D(H  12,C   4,C   3,N  14)     -0.15 -0.000027   -0.00     -0.15   
    72. D(C   4,C   5,C   0,C   1)     -0.48  0.000096    0.00     -0.48 C 
    73. D(H  13,C   5,C   0,C   1)    179.79  0.000218   -0.00    179.79   
    74. D(H  13,C   5,C   4,C   3)   -179.76 -0.000197    0.00   -179.76   
    75. D(H  13,C   5,C   0,C   6)     -3.14 -0.000521   -0.00     -3.14   
    76. D(C   4,C   5,C   0,C   6)    176.59 -0.000644   -0.00    176.59 C 
    77. D(C   0,C   5,C   4,C   3)      0.51 -0.000074    0.00      0.51 C 
    78. D(C   0,C   5,C   4,H  12)   -179.26  0.000020    0.00   -179.26   
    79. D(H  13,C   5,C   4,H  12)      0.47 -0.000104    0.00      0.47   
    80. D(H   7,C   6,C   0,C   1)   -167.48 -0.000344    0.06   -167.43   
    81. D(H   7,C   6,C   0,C   5)     15.46  0.000343    0.06     15.52   
    82. D(H   9,C   6,C   0,C   1)    -43.53 -0.000343    0.06    -43.47   
    83. D(H   9,C   6,C   0,C   5)    139.42  0.000343    0.06    139.48   
    84. D(H   8,C   6,C   0,C   1)     72.89 -0.000344    0.06     72.95   
    85. D(H   8,C   6,C   0,C   5)   -104.16  0.000342    0.06   -104.10   
    86. D(O  15,N  14,C   3,C   2)   -139.62  0.000073    0.00   -139.62 C 
    87. D(O  15,N  14,C   3,C   4)     40.22  0.000043    0.00     40.22 C 
    88. D(O  16,N  14,C   3,C   2)     40.29  0.000095    0.00     40.29 C 
    89. D(O  16,N  14,C   3,C   4)   -139.87  0.000065    0.00   -139.87 C 
    90. D(H  17,N  14,C   3,C   2)   -143.40  0.000049    0.03   -143.38   
    91. D(H  17,N  14,C   3,C   4)     36.44  0.000019    0.03     36.47   
    92. D(H  17,O  15,N  14,C   3)   -178.82  0.000013   -0.01   -178.83   
    93. D(H  17,O  15,N  14,O  16)      1.28 -0.000012   -0.02      1.26   
    94. D(H  17,O  16,N  14,C   3)    179.10 -0.000017    0.01    179.11   
    95. D(H  17,O  16,N  14,O  15)     -1.00  0.000007    0.01     -0.99   
    96. D(O  15,H  17,N  14,C   3)      4.44  0.000028   -0.04      4.40   
    97. D(O  15,H  17,N  14,O  16)   -178.94 -0.000010   -0.01   -178.95   
    98. D(O  16,H  17,N  14,C   3)   -176.62  0.000038   -0.03   -176.65   
    99. D(O  16,H  17,N  14,O  15)    178.94  0.000010    0.01    178.95   
   100. D(O  16,H  17,O  15,N  14)     -0.59  0.000007    0.01     -0.58   
   101. D(O  15,H  17,O  16,N  14)      0.48 -0.000003   -0.01      0.47   
    ----------------------------------------------------------------------------

         *************************************************************
         *                GEOMETRY OPTIMIZATION CYCLE  54            *
         *************************************************************
---------------------------------
CARTESIAN COORDINATES (ANGSTROEM)
---------------------------------
  C     -5.606716    0.983076    0.187093
  C     -6.702356    1.610798   -0.473966
  C     -7.355656    0.987376   -1.505481
  C     -6.918035   -0.288298   -1.883203
  C     -5.845103   -0.945116   -1.261218
  C     -5.195571   -0.301366   -0.235165
  C     -4.967197    1.661721    1.340070
  H     -4.021143    1.204027    1.620984
  H     -5.637777    1.606451    2.209711
  H     -4.821934    2.727030    1.144667
  H     -7.017280    2.593699   -0.149840
  H     -8.182663    1.449105   -2.025211
  H     -5.555731   -1.931792   -1.592731
  H     -4.362542   -0.780250    0.261189
  N     -7.608847   -0.971379   -2.970935
  O     -7.803396   -2.166757   -2.833121
  O     -7.939033   -0.298420   -3.929691
  H    -13.960030  -10.691104  -11.969382

----------------------------
CARTESIAN COORDINATES (A.U.)
----------------------------
  NO LB      ZA    FRAG     MASS         X           Y           Z
   0 C     6.0000    0    12.011  -10.595157    1.857744    0.353555
   1 C     6.0000    0    12.011  -12.665618    3.043966   -0.895667
   2 C     6.0000    0    12.011  -13.900176    1.865869   -2.844947
   3 C     6.0000    0    12.011  -13.073192   -0.544804   -3.558738
   4 C     6.0000    0    12.011  -11.045644   -1.786011   -2.383357
   5 C     6.0000    0    12.011   -9.818206   -0.569500   -0.444397
   6 C     6.0000    0    12.011   -9.386642    3.140198    2.532365
   7 H     1.0000    0     1.008   -7.598859    2.275282    3.063216
   8 H     1.0000    0     1.008  -10.653854    3.035753    4.175749
   9 H     1.0000    0     1.008   -9.112135    5.153340    2.163108
  10 H     1.0000    0     1.008  -13.260737    4.901381   -0.283156
  11 H     1.0000    0     1.008  -15.462993    2.738412   -3.827095
  12 H     1.0000    0     1.008  -10.498811   -3.650558   -3.009826
  13 H     1.0000    0     1.008   -8.244009   -1.474459    0.493575
  14 N     7.0000    0    14.007  -14.378637   -1.835640   -5.614254
  15 O     8.0000    0    15.999  -14.746282   -4.094578   -5.353823
  16 O     8.0000    0    15.999  -15.002597   -0.563932   -7.426039
  17 H     1.0000    0     1.008  -26.380634  -20.203259  -22.618854

--------------------------------
INTERNAL COORDINATES (ANGSTROEM)
--------------------------------
 C      0   0   0     0.000000000000     0.00000000     0.00000000
 C      1   0   0     1.425294036592     0.00000000     0.00000000
 C      2   1   0     1.370940621278   120.99856215     0.00000000
 C      3   2   1     1.400545996122   117.91874394     0.39212598
 C      4   3   2     1.403373866163   123.06966498   359.63929166
 C      5   4   3     1.374442525450   118.22644631   359.90833881
 C      1   2   3     1.482868712932   119.37919957   182.88193531
 H      7   1   2     1.087848614944   112.53743719   192.57225881
 H      7   1   2     1.099549086596   109.20397614    72.95453849
 H      7   1   2     1.092779073218   111.37367279   316.52826071
 H      2   1   3     1.081817886775   119.00987807   179.94014172
 H      3   2   1     1.080395493237   122.16649134   180.53288384
 H      5   4   3     1.080354806188   119.75055058   179.68150208
 H      6   5   4     1.081496068786   119.94911545   180.23875684
 N      4   3   2     1.458417291548   118.66929685   179.47238315
 O     15   4   3     1.218922277983   116.78226699   220.37662300
 O     15   4   3     1.217007918665   117.19906594    40.29073615
 H     16  15   4    13.929820401008   126.62086265   181.16621415

---------------------------
INTERNAL COORDINATES (A.U.)
---------------------------
 C      0   0   0     0.000000000000     0.00000000     0.00000000
 C      1   0   0     2.693415389470     0.00000000     0.00000000
 C      2   1   0     2.590702320084   120.99856215     0.00000000
 C      3   2   1     2.646648370630   117.91874394     0.39212598
 C      4   3   2     2.651992270551   123.06966498   359.63929166
 C      5   4   3     2.597319959916   118.22644631   359.90833881
 C      1   2   3     2.802215760001   119.37919957   182.88193531
 H      7   1   2     2.055735957409   112.53743719   192.57225881
 H      7   1   2     2.077846644471   109.20397614    72.95453849
 H      7   1   2     2.065053173262   111.37367279   316.52826071
 H      2   1   3     2.044339532781   119.00987807   179.94014172
 H      3   2   1     2.041651598540   122.16649134   180.53288384
 H      5   4   3     2.041574711161   119.75055058   179.68150208
 H      6   5   4     2.043731384918   119.94911545   180.23875684
 N      4   3   2     2.756009270001   118.66929685   179.47238315
 O     15   4   3     2.303429283923   116.78226699   220.37662300
 O     15   4   3     2.299811669090   117.19906594    40.29073615
 H     16  15   4    26.323545652615   126.62086265   181.16621415

------------------------------------------------------------------------------
                   ___                                                        
                  /   \      - P O W E R E D   B Y -                         
                 /     \                                                     
                 |  |  |   _    _      __       _____    __    __             
                 |  |  |  | |  | |    /  \     |  _  \  |  |  /  |          
                  \  \/   | |  | |   /    \    | | | |  |  | /  /          
                 / \  \   | |__| |  /  /\  \   | |_| |  |  |/  /          
                |  |  |   |  __  | /  /__\  \  |    /   |      \           
                |  |  |   | |  | | |   __   |  |    \   |  |\   \          
                \     /   | |  | | |  |  |  |  | |\  \  |  | \   \       
                 \___/    |_|  |_| |__|  |__|  |_| \__\ |__|  \__/        
                                                                              
                      - O R C A' S   B I G   F R I E N D -                    
                                      &                                       
                       - I N T E G R A L  F E E D E R -                       
                                                                              
 v1 FN, 2020, v2 2021                                                         
------------------------------------------------------------------------------


Reading SHARK input file para_products_optfreq3.SHARKINP.tmp ... ok
----------------------
SHARK INTEGRAL PACKAGE
----------------------

Number of atoms                             ...     18
Number of basis functions                   ...    358
Number of shells                            ...    142
Maximum angular momentum                    ...      3
Integral batch strategy                     ... SHARK/LIBINT Hybrid
RI-J (if used) integral strategy            ... SPLIT-RIJ (Revised 2003 algorithm where possible)
Printlevel                                  ...      1
Contraction scheme used                     ... SEGMENTED contraction
Coulomb Range Separation                    ... NOT USED
Exchange Range Separation                   ... NOT USED
Finite Nucleus Model                        ... NOT USED
Auxiliary Coulomb fitting basis             ... AVAILABLE
   # of basis functions in Aux-J            ...    578
   # of shells in Aux-J                     ...    190
   Maximum angular momentum in Aux-J        ...      4
Auxiliary J/K fitting basis                 ... NOT available
Auxiliary Correlation fitting basis         ... NOT available
Auxiliary 'external' fitting basis          ... NOT available
Integral threshold                          ...     2.500000e-11
Primitive cut-off                           ...     2.500000e-12
Primitive pair pre-selection threshold      ...     2.500000e-12

Calculating pre-screening integrals         ... done (  0.1 sec) Dimension = 142
Organizing shell pair data                  ... done (  0.1 sec)
Shell pair information
Total number of shell pairs                 ...     10153
Shell pairs after pre-screening             ...      8363
Total number of primitive shell pairs       ...     31120
Primitive shell pairs kept                  ...     18968
          la=0 lb=0:   2122 shell pairs
          la=1 lb=0:   2337 shell pairs
          la=1 lb=1:    649 shell pairs
          la=2 lb=0:   1227 shell pairs
          la=2 lb=1:    677 shell pairs
          la=2 lb=2:    192 shell pairs
          la=3 lb=0:    597 shell pairs
          la=3 lb=1:    337 shell pairs
          la=3 lb=2:    177 shell pairs
          la=3 lb=3:     48 shell pairs

Calculating one electron integrals          ... done (  0.1 sec)
Calculating RI/J V-Matrix + Cholesky decomp.... done (  0.1 sec)
Calculating Nuclear repulsion               ... done (  0.0 sec) ENN=    496.050693594088 Eh

SHARK setup successfully completed in   0.7 seconds

Maximum memory used throughout the entire GTOINT-calculation: 127.4 MB

Diagonalization of the overlap matrix:
Smallest eigenvalue                        ... 8.230e-06
Time for diagonalization                   ...    0.036 sec
Threshold for overlap eigenvalues          ... 1.000e-08
Number of eigenvalues below threshold      ... 0
Time for construction of square roots      ...    0.024 sec
Total time needed                          ...    0.062 sec

-------------------
DFT GRID GENERATION
-------------------

General Integration Accuracy     IntAcc      ... 4.388
Radial Grid Type                 RadialGrid  ... OptM3 with GC (2021)
Angular Grid (max. ang.)         AngularGrid ... 4 (Lebedev-302)
Angular grid pruning method      GridPruning ... 4 (adaptive)
Weight generation scheme         WeightScheme... Becke
Basis function cutoff            BFCut       ... 1.0000e-11
Integration weight cutoff        WCut        ... 1.0000e-14
Angular grids for H and He will be reduced by one unit
Partially contracted basis set               ... off
Rotationally invariant grid construction     ... off

Total number of grid points                  ...    86206
Total number of batches                      ...     1356
Average number of points per batch           ...       63
Average number of grid points per atom       ...     4789
Time for grid setup =    2.963 sec

--------------------
COSX GRID GENERATION
--------------------

GRIDX 1
-------
General Integration Accuracy     IntAcc      ... 3.816
Radial Grid Type                 RadialGrid  ... OptM3 with GC (2021)
Angular Grid (max. ang.)         AngularGrid ... 1 (Lebedev-50)
Angular grid pruning method      GridPruning ... 4 (adaptive)
Weight generation scheme         WeightScheme... Becke
Basis function cutoff            BFCut       ... 1.0000e-11
Integration weight cutoff        WCut        ... 1.0000e-14
Angular grids for H and He will be reduced by one unit
Partially contracted basis set               ... on
Rotationally invariant grid construction     ... off

Total number of grid points                  ...    10978
Total number of batches                      ...      181
Average number of points per batch           ...       60
Average number of grid points per atom       ...      610
UseSFitting                                  ... on

GRIDX 2
-------
General Integration Accuracy     IntAcc      ... 4.020
Radial Grid Type                 RadialGrid  ... OptM3 with GC (2021)
Angular Grid (max. ang.)         AngularGrid ... 2 (Lebedev-110)
Angular grid pruning method      GridPruning ... 4 (adaptive)
Weight generation scheme         WeightScheme... Becke
Basis function cutoff            BFCut       ... 1.0000e-11
Integration weight cutoff        WCut        ... 1.0000e-14
Angular grids for H and He will be reduced by one unit
Partially contracted basis set               ... on
Rotationally invariant grid construction     ... off

Total number of grid points                  ...    24182
Total number of batches                      ...      387
Average number of points per batch           ...       62
Average number of grid points per atom       ...     1343
UseSFitting                                  ... on

GRIDX 3
-------
General Integration Accuracy     IntAcc      ... 4.338
Radial Grid Type                 RadialGrid  ... OptM3 with GC (2021)
Angular Grid (max. ang.)         AngularGrid ... 3 (Lebedev-194)
Angular grid pruning method      GridPruning ... 4 (adaptive)
Weight generation scheme         WeightScheme... Becke
Basis function cutoff            BFCut       ... 1.0000e-11
Integration weight cutoff        WCut        ... 1.0000e-14
Angular grids for H and He will be reduced by one unit
Partially contracted basis set               ... on
Rotationally invariant grid construction     ... off

Total number of grid points                  ...    53301
Total number of batches                      ...      841
Average number of points per batch           ...       63
Average number of grid points per atom       ...     2961
UseSFitting                                  ... on

Time for X-Grid setup             =    3.145 sec

--------------
SCF ITERATIONS
--------------
ITER       Energy         Delta-E        Max-DP      RMS-DP      [F,P]     Damp
               ***  Starting incremental Fock matrix formation  ***
                      *** Initiating the SOSCF procedure ***
                      *** Re-Reading the Fockian *** 
                      *** Removing any level shift *** 
ITER      Energy       Delta-E        Grad      Rot      Max-DP    RMS-DP
  0   -476.37686138 -476.3768613828  0.000094  0.000094  0.000129  0.000003
               *** Restarting incremental Fock matrix formation ***
  1   -476.37686227  -0.0000008915  0.000028  0.000567  0.000259  0.000002
  2   -476.37686200   0.0000002761  0.000304  0.000645  0.000275  0.000002
  3   -476.37686225  -0.0000002496  0.000064  0.000317  0.000153  0.000003
  4   -476.37686204   0.0000002038  0.000211  0.000320  0.000126  0.000002
