
                                 *****************
                                 * O   R   C   A *
                                 *****************

                                            #,                                       
                                            ###                                      
                                            ####                                     
                                            #####                                    
                                            ######                                   
                                           ########,                                 
                                     ,,################,,,,,                         
                               ,,#################################,,                 
                          ,,##########################################,,             
                       ,#########################################, ''#####,          
                    ,#############################################,,   '####,        
                  ,##################################################,,,,####,       
                ,###########''''           ''''###############################       
              ,#####''   ,,,,##########,,,,          '''####'''          '####       
            ,##' ,,,,###########################,,,                        '##       
           ' ,,###''''                  '''############,,,                           
         ,,##''                                '''############,,,,        ,,,,,,###''
      ,#''                                            '''#######################'''  
     '                                                          ''''####''''         
             ,#######,   #######,   ,#######,      ##                                
            ,#'     '#,  ##    ##  ,#'     '#,    #''#        ######   ,####,        
            ##       ##  ##   ,#'  ##            #'  '#       #        #'  '#        
            ##       ##  #######   ##           ,######,      #####,   #    #        
            '#,     ,#'  ##    ##  '#,     ,#' ,#      #,         ##   #,  ,#        
             '#######'   ##     ##  '#######'  #'      '#     #####' # '####'        



                  #######################################################
                  #                        -***-                        #
                  #          Department of theory and spectroscopy      #
                  #    Directorship and core code : Frank Neese         #
                  #        Max Planck Institute fuer Kohlenforschung    #
                  #                Kaiser Wilhelm Platz 1               #
                  #                 D-45470 Muelheim/Ruhr               #
                  #                      Germany                        #
                  #                                                     #
                  #                  All rights reserved                #
                  #                        -***-                        #
                  #######################################################



                         Program Version 5.0.4 -  RELEASE  -

 With contributions from (in alphabetic order):
   Daniel Aravena         : Magnetic Suceptibility
   Michael Atanasov       : Ab Initio Ligand Field Theory (pilot matlab implementation)
   Alexander A. Auer      : GIAO ZORA, VPT2 properties, NMR spectrum
   Ute Becker             : Parallelization
   Giovanni Bistoni       : ED, misc. LED, open-shell LED, HFLD
   Martin Brehm           : Molecular dynamics
   Dmytro Bykov           : SCF Hessian
   Vijay G. Chilkuri      : MRCI spin determinant printing, contributions to CSF-ICE
   Dipayan Datta          : RHF DLPNO-CCSD density
   Achintya Kumar Dutta   : EOM-CC, STEOM-CC
   Dmitry Ganyushin       : Spin-Orbit,Spin-Spin,Magnetic field MRCI
   Miquel Garcia          : C-PCM and meta-GGA Hessian, CC/C-PCM, Gaussian charge scheme
   Yang Guo               : DLPNO-NEVPT2, F12-NEVPT2, CIM, IAO-localization
   Andreas Hansen         : Spin unrestricted coupled pair/coupled cluster methods
   Benjamin Helmich-Paris : MC-RPA, TRAH-SCF, COSX integrals
   Lee Huntington         : MR-EOM, pCC
   Robert Izsak           : Overlap fitted RIJCOSX, COSX-SCS-MP3, EOM
   Marcus Kettner         : VPT2
   Christian Kollmar      : KDIIS, OOCD, Brueckner-CCSD(T), CCSD density, CASPT2, CASPT2-K
   Simone Kossmann        : Meta GGA functionals, TD-DFT gradient, OOMP2, MP2 Hessian
   Martin Krupicka        : Initial AUTO-CI
   Lucas Lang             : DCDCAS
   Marvin Lechner         : AUTO-CI (C++ implementation), FIC-MRCC
   Dagmar Lenk            : GEPOL surface, SMD
   Dimitrios Liakos       : Extrapolation schemes; Compound Job, initial MDCI parallelization
   Dimitrios Manganas     : Further ROCIS development; embedding schemes
   Dimitrios Pantazis     : SARC Basis sets
   Anastasios Papadopoulos: AUTO-CI, single reference methods and gradients
   Taras Petrenko         : DFT Hessian,TD-DFT gradient, ASA, ECA, R-Raman, ABS, FL, XAS/XES, NRVS
   Peter Pinski           : DLPNO-MP2, DLPNO-MP2 Gradient
   Christoph Reimann      : Effective Core Potentials
   Marius Retegan         : Local ZFS, SOC
   Christoph Riplinger    : Optimizer, TS searches, QM/MM, DLPNO-CCSD(T), (RO)-DLPNO pert. Triples
   Tobias Risthaus        : Range-separated hybrids, TD-DFT gradient, RPA, STAB
   Michael Roemelt        : Original ROCIS implementation
   Masaaki Saitow         : Open-shell DLPNO-CCSD energy and density
   Barbara Sandhoefer     : DKH picture change effects
   Avijit Sen             : IP-ROCIS
   Kantharuban Sivalingam : CASSCF convergence, NEVPT2, FIC-MRCI
   Bernardo de Souza      : ESD, SOC TD-DFT
   Georgi Stoychev        : AutoAux, RI-MP2 NMR, DLPNO-MP2 response
   Willem Van den Heuvel  : Paramagnetic NMR
   Boris Wezisla          : Elementary symmetry handling
   Frank Wennmohs         : Technical directorship


 We gratefully acknowledge several colleagues who have allowed us to
 interface, adapt or use parts of their codes:
   Stefan Grimme, W. Hujo, H. Kruse, P. Pracht,  : VdW corrections, initial TS optimization,
                  C. Bannwarth, S. Ehlert          DFT functionals, gCP, sTDA/sTD-DF
   Ed Valeev, F. Pavosevic, A. Kumar             : LibInt (2-el integral package), F12 methods
   Garnet Chan, S. Sharma, J. Yang, R. Olivares  : DMRG
   Ulf Ekstrom                                   : XCFun DFT Library
   Mihaly Kallay                                 : mrcc  (arbitrary order and MRCC methods)
   Jiri Pittner, Ondrej Demel                    : Mk-CCSD
   Frank Weinhold                                : gennbo (NPA and NBO analysis)
   Christopher J. Cramer and Donald G. Truhlar   : smd solvation model
   Lars Goerigk                                  : TD-DFT with DH, B97 family of functionals
   V. Asgeirsson, H. Jonsson                     : NEB implementation
   FAccTs GmbH                                   : IRC, NEB, NEB-TS, DLPNO-Multilevel, CI-OPT
                                                   MM, QMMM, 2- and 3-layer-ONIOM, Crystal-QMMM,
                                                   LR-CPCM, SF, NACMEs, symmetry and pop. for TD-DFT,
                                                   nearIR, NL-DFT gradient (VV10), updates on ESD,
                                                   ML-optimized integration grids
   S Lehtola, MJT Oliveira, MAL Marques          : LibXC Library
   Liviu Ungur et al                             : ANISO software


 Your calculation uses the libint2 library for the computation of 2-el integrals
 For citations please refer to: http://libint.valeyev.net

 Your ORCA version has been built with support for libXC version: 5.1.0
 For citations please refer to: https://tddft.org/programs/libxc/

 This ORCA versions uses:
   CBLAS   interface :  Fast vector & matrix operations
   LAPACKE interface :  Fast linear algebra routines
   Shared memory     :  Shared parallel matrices


================================================================================

----- Orbital basis set information -----
Your calculation utilizes the basis: def2-QZVPP
   F. Weigend and R. Ahlrichs, Phys. Chem. Chem. Phys. 7, 3297 (2005).

----- AuxJ basis set information -----
Your calculation utilizes the auxiliary basis: def2/J
   F. Weigend, Phys. Chem. Chem. Phys. 8, 1057 (2006).

================================================================================
                                        WARNINGS
                       Please study these warnings very carefully!
================================================================================


WARNING: your system is open-shell and RHF/RKS was chosen
  ===> : WILL SWITCH to UHF/UKS


INFO   : the flag for use of the SHARK integral package has been found!

================================================================================
                                       INPUT FILE
================================================================================
NAME = kation.inp
|  1> !B3LYP DEF2-QZVPP
|  2> 
|  3> %scf
|  4> convergence tight
|  5> end
|  6> 
|  7> * xyz 1 2
|  8>   C   -5.45725684070453      1.95593336212858     -0.00001817707546
|  9>   C   -6.54811022711722      1.08628615246483     -0.00001324749663
| 10>   C   -6.30396401004928     -0.28759056034773     -0.00000139831282
| 11>   C   -4.98984572580346     -0.76859455452417      0.00000695999258
| 12>   C   -3.91114170937565      0.12282314461918     -0.00000121662840
| 13>   C   -4.13915123157836      1.49943411470939     -0.00001304778994
| 14>   H   -7.55740354307554      1.49667400814645     -0.00001684062526
| 15>   H   -7.14404322624445     -0.98601755880687      0.00000397226961
| 16>   H   -4.80509894481999     -1.84567629943337      0.00002057733944
| 17>   H   -2.88642805442052     -0.25584437271434      0.00000437523983
| 18>   H   -3.32449720747170      2.22296833592123     -0.00001644865895
| 19>   N   -5.70656998714359      3.41332965011033     -0.00000742911383
| 20>   O   -6.86822400877657      3.78641654026404      0.00002696429634
| 21>   O   -4.73500528341910      4.15158803746246      0.00002495656351
| 22> **                         ****END OF INPUT****
================================================================================

                       ****************************
                       * Single Point Calculation *
                       ****************************

---------------------------------
CARTESIAN COORDINATES (ANGSTROEM)
---------------------------------
  C     -5.457257    1.955933   -0.000018
  C     -6.548110    1.086286   -0.000013
  C     -6.303964   -0.287591   -0.000001
  C     -4.989846   -0.768595    0.000007
  C     -3.911142    0.122823   -0.000001
  C     -4.139151    1.499434   -0.000013
  H     -7.557404    1.496674   -0.000017
  H     -7.144043   -0.986018    0.000004
  H     -4.805099   -1.845676    0.000021
  H     -2.886428   -0.255844    0.000004
  H     -3.324497    2.222968   -0.000016
  N     -5.706570    3.413330   -0.000007
  O     -6.868224    3.786417    0.000027
  O     -4.735005    4.151588    0.000025

----------------------------
CARTESIAN COORDINATES (A.U.)
----------------------------
  NO LB      ZA    FRAG     MASS         X           Y           Z
   0 C     6.0000    0    12.011  -10.312721    3.696178   -0.000034
   1 C     6.0000    0    12.011  -12.374135    2.052783   -0.000025
   2 C     6.0000    0    12.011  -11.912766   -0.543467   -0.000003
   3 C     6.0000    0    12.011   -9.429442   -1.452433    0.000013
   4 C     6.0000    0    12.011   -7.390987    0.232102   -0.000002
   5 C     6.0000    0    12.011   -7.821862    2.833520   -0.000025
   6 H     1.0000    0     1.008  -14.281423    2.828304   -0.000032
   7 H     1.0000    0     1.008  -13.500285   -1.863303    0.000008
   8 H     1.0000    0     1.008   -9.080321   -3.487823    0.000039
   9 H     1.0000    0     1.008   -5.454559   -0.483476    0.000008
  10 H     1.0000    0     1.008   -6.282389    4.200801   -0.000031
  11 N     7.0000    0    14.007  -10.783854    6.450258   -0.000014
  12 O     8.0000    0    15.999  -12.979062    7.155290    0.000051
  13 O     8.0000    0    15.999   -8.947863    7.845364    0.000047

--------------------------------
INTERNAL COORDINATES (ANGSTROEM)
--------------------------------
 C      0   0   0     0.000000000000     0.00000000     0.00000000
 C      1   0   0     1.395079703798     0.00000000     0.00000000
 C      2   1   0     1.395401231710   118.48584445     0.00000000
 C      3   2   1     1.399382616539   120.18065164     0.00000000
 C      4   3   2     1.399366953115   120.32637122     0.00000000
 C      1   2   3     1.394917187410   122.33504685     0.00000000
 H      2   1   3     1.089537144728   119.31043403   179.99988667
 H      3   2   1     1.092489524750   119.66292133   179.99991929
 H      4   3   2     1.092811263890   119.83699994   179.99973703
 H      5   4   3     1.092440919852   120.14937450   180.00005869
 H      6   1   2     1.089570074970   119.28765415   180.00004977
 N      1   2   3     1.478567206902   118.85497877   180.00103078
 O     12   1   2     1.220095854744   117.51287202     0.00000000
 O     12   1   2     1.220230888426   117.52246431   179.99804165

---------------------------
INTERNAL COORDINATES (A.U.)
---------------------------
 C      0   0   0     0.000000000000     0.00000000     0.00000000
 C      1   0   0     2.636318575170     0.00000000     0.00000000
 C      2   1   0     2.636926174868   118.48584445     0.00000000
 C      3   2   1     2.644449901830   120.18065164     0.00000000
 C      4   3   2     2.644420302247   120.32637122     0.00000000
 C      1   2   3     2.636011463704   122.33504685     0.00000000
 H      2   1   3     2.058926816270   119.31043403   179.99988667
 H      3   2   1     2.064506005955   119.66292133   179.99991929
 H      4   3   2     2.065114004817   119.83699994   179.99973703
 H      5   4   3     2.064414156009   120.14937450   180.00005869
 H      6   1   2     2.058989045409   119.28765415   180.00004977
 N      1   2   3     2.794087091642   118.85497877   180.00103078
 O     12   1   2     2.305647022599   117.51287202     0.00000000
 O     12   1   2     2.305902199276   117.52246431   179.99804165

---------------------
BASIS SET INFORMATION
---------------------
There are 4 groups of distinct atoms

 Group   1 Type C   : 15s8p3d2f1g contracted to 7s4p3d2f1g pattern {8211111/5111/111/11/1}
 Group   2 Type H   : 7s3p2d1f contracted to 4s3p2d1f pattern {4111/111/11/1}
 Group   3 Type N   : 15s8p3d2f1g contracted to 7s4p3d2f1g pattern {8211111/5111/111/11/1}
 Group   4 Type O   : 15s8p3d2f1g contracted to 7s4p3d2f1g pattern {8211111/5111/111/11/1}

Atom   0C    basis set group =>   1
Atom   1C    basis set group =>   1
Atom   2C    basis set group =>   1
Atom   3C    basis set group =>   1
Atom   4C    basis set group =>   1
Atom   5C    basis set group =>   1
Atom   6H    basis set group =>   2
Atom   7H    basis set group =>   2
Atom   8H    basis set group =>   2
Atom   9H    basis set group =>   2
Atom  10H    basis set group =>   2
Atom  11N    basis set group =>   3
Atom  12O    basis set group =>   4
Atom  13O    basis set group =>   4
---------------------------------
AUXILIARY/J BASIS SET INFORMATION
---------------------------------
There are 4 groups of distinct atoms

 Group   1 Type C   : 12s5p4d2f1g contracted to 6s4p3d1f1g pattern {711111/2111/211/2/1}
 Group   2 Type H   : 5s2p1d contracted to 3s1p1d pattern {311/2/1}
 Group   3 Type N   : 12s5p4d2f1g contracted to 6s4p3d1f1g pattern {711111/2111/211/2/1}
 Group   4 Type O   : 12s5p4d2f1g contracted to 6s4p3d1f1g pattern {711111/2111/211/2/1}

Atom   0C    basis set group =>   1
Atom   1C    basis set group =>   1
Atom   2C    basis set group =>   1
Atom   3C    basis set group =>   1
Atom   4C    basis set group =>   1
Atom   5C    basis set group =>   1
Atom   6H    basis set group =>   2
Atom   7H    basis set group =>   2
Atom   8H    basis set group =>   2
Atom   9H    basis set group =>   2
Atom  10H    basis set group =>   2
Atom  11N    basis set group =>   3
Atom  12O    basis set group =>   4
Atom  13O    basis set group =>   4
------------------------------------------------------------------------------
                           ORCA GTO INTEGRAL CALCULATION
                           -- RI-GTO INTEGRALS CHOSEN --
------------------------------------------------------------------------------
------------------------------------------------------------------------------
                   ___                                                        
                  /   \      - P O W E R E D   B Y -                         
                 /     \                                                     
                 |  |  |   _    _      __       _____    __    __             
                 |  |  |  | |  | |    /  \     |  _  \  |  |  /  |          
                  \  \/   | |  | |   /    \    | | | |  |  | /  /          
                 / \  \   | |__| |  /  /\  \   | |_| |  |  |/  /          
                |  |  |   |  __  | /  /__\  \  |    /   |      \           
                |  |  |   | |  | | |   __   |  |    \   |  |\   \          
                \     /   | |  | | |  |  |  |  | |\  \  |  | \   \       
                 \___/    |_|  |_| |__|  |__|  |_| \__\ |__|  \__/        
                                                                              
                      - O R C A' S   B I G   F R I E N D -                    
                                      &                                       
                       - I N T E G R A L  F E E D E R -                       
                                                                              
 v1 FN, 2020, v2 2021                                                         
------------------------------------------------------------------------------


Reading SHARK input file kation.SHARKINP.tmp ... ok
----------------------
SHARK INTEGRAL PACKAGE
----------------------

Number of atoms                             ...     14
Number of basis functions                   ...    663
Number of shells                            ...    203
Maximum angular momentum                    ...      4
Integral batch strategy                     ... SHARK/LIBINT Hybrid
RI-J (if used) integral strategy            ... SPLIT-RIJ (Revised 2003 algorithm where possible)
Printlevel                                  ...      1
Contraction scheme used                     ... SEGMENTED contraction
Coulomb Range Separation                    ... NOT USED
Exchange Range Separation                   ... NOT USED
Finite Nucleus Model                        ... NOT USED
Auxiliary Coulomb fitting basis             ... AVAILABLE
   # of basis functions in Aux-J            ...    496
   # of shells in Aux-J                     ...    160
   Maximum angular momentum in Aux-J        ...      4
Auxiliary J/K fitting basis                 ... NOT available
Auxiliary Correlation fitting basis         ... NOT available
Auxiliary 'external' fitting basis          ... NOT available
Integral threshold                          ...     2.500000e-11
Primitive cut-off                           ...     2.500000e-12
Primitive pair pre-selection threshold      ...     2.500000e-12

Calculating pre-screening integrals         ... done (  2.5 sec) Dimension = 203
Organizing shell pair data                  ... done (  2.3 sec)
Shell pair information
Total number of shell pairs                 ...     20706
Shell pairs after pre-screening             ...     17254
Total number of primitive shell pairs       ...     53682
Primitive shell pairs kept                  ...     33711
          la=0 lb=0:   2619 shell pairs
          la=1 lb=0:   3636 shell pairs
          la=1 lb=1:   1222 shell pairs
          la=2 lb=0:   2465 shell pairs
          la=2 lb=1:   1690 shell pairs
          la=2 lb=2:    597 shell pairs
          la=3 lb=0:   1515 shell pairs
          la=3 lb=1:   1031 shell pairs
          la=3 lb=2:    718 shell pairs
          la=3 lb=3:    230 shell pairs
          la=4 lb=0:    618 shell pairs
          la=4 lb=1:    414 shell pairs
          la=4 lb=2:    280 shell pairs
          la=4 lb=3:    180 shell pairs
          la=4 lb=4:     39 shell pairs

Calculating one electron integrals          ... done (  0.8 sec)
Calculating RI/J V-Matrix + Cholesky decomp.... done (  0.1 sec)
Calculating Nuclear repulsion               ... done (  0.0 sec) ENN=    411.906933328615 Eh

SHARK setup successfully completed in  10.7 seconds

Maximum memory used throughout the entire GTOINT-calculation: 621.7 MB
-------------------------------------------------------------------------------
                                 ORCA SCF
-------------------------------------------------------------------------------

------------
SCF SETTINGS
------------
Hamiltonian:
 Density Functional     Method          .... DFT(GTOs)
 Exchange Functional    Exchange        .... B88
   X-Alpha parameter    XAlpha          ....  0.666667
   Becke's b parameter  XBeta           ....  0.004200
 Correlation Functional Correlation     .... LYP
 LDA part of GGA corr.  LDAOpt          .... VWN-5
 Gradients option       PostSCFGGA      .... off
 Hybrid DFT is turned on
   Fraction HF Exchange ScalHFX         ....  0.200000
   Scaling of DF-GGA-X  ScalDFX         ....  0.720000
   Scaling of DF-GGA-C  ScalDFC         ....  0.810000
   Scaling of DF-LDA-C  ScalLDAC        ....  1.000000
   Perturbative correction              ....  0.000000
   Density functional embedding theory  .... OFF
   NL short-range parameter             ....  4.800000
 RI-approximation to the Coulomb term is turned on
   Number of AuxJ basis functions       .... 496
   RIJ-COSX (HFX calculated with COS-X)).... on


General Settings:
 Integral files         IntName         .... kation
 Hartree-Fock type      HFTyp           .... UHF
 Total Charge           Charge          ....    1
 Multiplicity           Mult            ....    2
 Number of Electrons    NEL             ....   63
 Basis Dimension        Dim             ....  663
 Nuclear Repulsion      ENuc            ....    411.9069333286 Eh

Convergence Acceleration:
 DIIS                   CNVDIIS         .... on
   Start iteration      DIISMaxIt       ....    12
   Startup error        DIISStart       ....  0.200000
   # of expansion vecs  DIISMaxEq       ....     5
   Bias factor          DIISBfac        ....   1.050
   Max. coefficient     DIISMaxC        ....  10.000
 Trust-Rad. Augm. Hess. CNVTRAH         .... auto
   Auto Start mean grad. ratio tolernc. ....  1.125000
   Auto Start start iteration           ....    20
   Auto Start num. interpolation iter.  ....    10
   Max. Number of Micro iterations      ....    16
   Max. Number of Macro iterations      .... Maxiter - #DIIS iter
   Number of Davidson start vectors     ....     2
   Converg. threshold I  (grad. norm)   ....   1.000e-05
   Converg. threshold II (energy diff.) ....   1.000e-08
   Grad. Scal. Fac. for Micro threshold ....   0.100
   Minimum threshold for Micro iter.    ....   0.010
   NR start threshold (gradient norm)   ....   0.001
   Initial trust radius                 ....   0.400
   Minimum AH scaling param. (alpha)    ....   1.000
   Maximum AH scaling param. (alpha)    .... 1000.000
   Orbital update algorithm             .... Taylor
   White noise on init. David. guess    .... on
   Maximum white noise                  ....   0.010
   Quad. conv. algorithm                .... NR
 SOSCF                  CNVSOSCF        .... off
 Level Shifting         CNVShift        .... on
   Level shift para.    LevelShift      ....    0.2500
   Turn off err/grad.   ShiftErr        ....    0.0010
 Zerner damping         CNVZerner       .... off
 Static damping         CNVDamp         .... on
   Fraction old density DampFac         ....    0.7000
   Max. Damping (<1)    DampMax         ....    0.9800
   Min. Damping (>=0)   DampMin         ....    0.0000
   Turn off err/grad.   DampErr         ....    0.1000
 Fernandez-Rico         CNVRico         .... off

SCF Procedure:
 Maximum # iterations   MaxIter         ....   125
 SCF integral mode      SCFMode         .... Direct
   Integral package                     .... SHARK and LIBINT hybrid scheme
 Reset frequency        DirectResetFreq ....    20
 Integral Threshold     Thresh          ....  2.500e-11 Eh
 Primitive CutOff       TCut            ....  2.500e-12 Eh

Convergence Tolerance:
 Convergence Check Mode ConvCheckMode   .... Total+1el-Energy
 Convergence forced     ConvForced      .... 0
 Energy Change          TolE            ....  1.000e-08 Eh
 1-El. energy change                    ....  1.000e-05 Eh
 DIIS Error             TolErr          ....  5.000e-07


Diagonalization of the overlap matrix:
Smallest eigenvalue                        ... 6.686e-06
Time for diagonalization                   ...    0.867 sec
Threshold for overlap eigenvalues          ... 1.000e-08
Number of eigenvalues below threshold      ... 0
Time for construction of square roots      ...    0.229 sec
Total time needed                          ...    1.098 sec

Time for model grid setup =    1.827 sec

------------------------------
INITIAL GUESS: MODEL POTENTIAL
------------------------------
Loading Hartree-Fock densities                     ... done
Calculating cut-offs                               ... done
Initializing the effective Hamiltonian             ... done
Setting up the integral package (SHARK)            ... done
Starting the Coulomb interaction                   ... done (   7.2 sec)
Reading the grid                                   ... done
Mapping shells                                     ... done
Starting the XC term evaluation                    ... done (  16.0 sec)
  promolecular density results
     # of electrons  =     63.996915917
     EX              =    -55.276896412
     EC              =     -2.209849109
     EX+EC           =    -57.486745521
Transforming the Hamiltonian                       ... done (   0.3 sec)
Diagonalizing the Hamiltonian                      ... done (   0.5 sec)
Back transforming the eigenvectors                 ... done (   0.2 sec)
Now organizing SCF variables                       ... done
                      ------------------
                      INITIAL GUESS DONE (  26.1 sec)
                      ------------------
-------------------
DFT GRID GENERATION
-------------------

General Integration Accuracy     IntAcc      ... 4.388
Radial Grid Type                 RadialGrid  ... OptM3 with GC (2021)
Angular Grid (max. ang.)         AngularGrid ... 4 (Lebedev-302)
Angular grid pruning method      GridPruning ... 4 (adaptive)
Weight generation scheme         WeightScheme... Becke
Basis function cutoff            BFCut       ... 1.0000e-11
Integration weight cutoff        WCut        ... 1.0000e-14
Angular grids for H and He will be reduced by one unit
Partially contracted basis set               ... off
Rotationally invariant grid construction     ... off

Total number of grid points                  ...    72884
Total number of batches                      ...     1146
Average number of points per batch           ...       63
Average number of grid points per atom       ...     5206
Time for grid setup =   10.652 sec

--------------------
COSX GRID GENERATION
--------------------

GRIDX 1
-------
General Integration Accuracy     IntAcc      ... 3.816
Radial Grid Type                 RadialGrid  ... OptM3 with GC (2021)
Angular Grid (max. ang.)         AngularGrid ... 1 (Lebedev-50)
Angular grid pruning method      GridPruning ... 4 (adaptive)
Weight generation scheme         WeightScheme... Becke
Basis function cutoff            BFCut       ... 1.0000e-11
Integration weight cutoff        WCut        ... 1.0000e-14
Angular grids for H and He will be reduced by one unit
Partially contracted basis set               ... on
Rotationally invariant grid construction     ... off

Total number of grid points                  ...     9298
Total number of batches                      ...      154
Average number of points per batch           ...       60
Average number of grid points per atom       ...      664
UseSFitting                                  ... on

GRIDX 2
-------
General Integration Accuracy     IntAcc      ... 4.020
Radial Grid Type                 RadialGrid  ... OptM3 with GC (2021)
Angular Grid (max. ang.)         AngularGrid ... 2 (Lebedev-110)
Angular grid pruning method      GridPruning ... 4 (adaptive)
Weight generation scheme         WeightScheme... Becke
Basis function cutoff            BFCut       ... 1.0000e-11
Integration weight cutoff        WCut        ... 1.0000e-14
Angular grids for H and He will be reduced by one unit
Partially contracted basis set               ... on
Rotationally invariant grid construction     ... off

Total number of grid points                  ...    23048
Total number of batches                      ...      369
Average number of points per batch           ...       62
Average number of grid points per atom       ...     1646
UseSFitting                                  ... on

GRIDX 3
-------
General Integration Accuracy     IntAcc      ... 4.338
Radial Grid Type                 RadialGrid  ... OptM3 with GC (2021)
Angular Grid (max. ang.)         AngularGrid ... 3 (Lebedev-194)
Angular grid pruning method      GridPruning ... 4 (adaptive)
Weight generation scheme         WeightScheme... Becke
Basis function cutoff            BFCut       ... 1.0000e-11
Integration weight cutoff        WCut        ... 1.0000e-14
Angular grids for H and He will be reduced by one unit
Partially contracted basis set               ... on
Rotationally invariant grid construction     ... off

Total number of grid points                  ...    49698
Total number of batches                      ...      784
Average number of points per batch           ...       63
Average number of grid points per atom       ...     3550
UseSFitting                                  ... on

Time for X-Grid setup             =   23.339 sec

--------------
SCF ITERATIONS
--------------
ITER       Energy         Delta-E        Max-DP      RMS-DP      [F,P]     Damp
               ***  Starting incremental Fock matrix formation  ***
  0   -436.1301694035   0.000000000000 0.02370818  0.00016606  0.1215210 0.7000
  1   -436.2375570693  -0.107387665737 0.01402021  0.00010188  0.0438884 0.7000
                               ***Turning on DIIS***
  2   -436.2699901587  -0.032433089399 0.01527897  0.00016046  0.0185865 0.0000
  3   -436.3421628218  -0.072172663171 0.00966736  0.00007098  0.0186789 0.0000
  4   -436.3474820358  -0.005319213981 0.00300418  0.00002579  0.0141442 0.0000
  5   -436.3494754726  -0.001993436818 0.00153265  0.00000950  0.0024113 0.0000
  6   -436.3495703967  -0.000094924066 0.00044392  0.00000401  0.0010326 0.0000
  7   -436.3496006614  -0.000030264661 0.00046970  0.00000327  0.0005581 0.0000
               *** Restarting incremental Fock matrix formation ***
                                   *** Resetting DIIS ***
  8   -436.3496080510  -0.000007389612 0.00044715  0.00000360  0.0004839 0.0000
  9   -436.3495958989   0.000012152087 0.00017515  0.00000128  0.0011795 0.0000
 10   -436.3496095140  -0.000013615126 0.00012112  0.00000109  0.0005478 0.0000
 11   -436.3496124031  -0.000002889078 0.00009101  0.00000064  0.0001461 0.0000
 12   -436.3496124559  -0.000000052787 0.00006768  0.00000049  0.0002069 0.0000
 13   -436.3496127713  -0.000000315406 0.00005125  0.00000035  0.0001035 0.0000
 14   -436.3496128704  -0.000000099097 0.00003381  0.00000039  0.0000695 0.0000
 15   -436.3496130034  -0.000000133017 0.00003392  0.00000034  0.0000400 0.0000
 16   -436.3496130923  -0.000000088845 0.00001183  0.00000012  0.0000442 0.0000
 17   -436.3496131148  -0.000000022501 0.00000620  0.00000007  0.0000447 0.0000
                 **** Energy Check signals convergence ****

               *****************************************************
               *                     SUCCESS                       *
               *           SCF CONVERGED AFTER  18 CYCLES          *
               *****************************************************

Old exchange energy                            =    -11.099403887 Eh
New exchange energy                            =    -11.099401908 Eh
Exchange energy change after final integration =      0.000001979 Eh
Total energy after final integration           =   -436.349611134 Eh
Final COS-X integration done in                =   315.998 sec

----------------
TOTAL SCF ENERGY
----------------

Total Energy       :         -436.34961113 Eh          -11873.67657 eV

Components:
Nuclear Repulsion  :          411.90693333 Eh           11208.55749 eV
Electronic Energy  :         -848.25654446 Eh          -23082.23405 eV
One Electron Energy:        -1395.91972759 Eh          -37984.90690 eV
Two Electron Energy:          547.66318313 Eh           14902.67285 eV
Max COSX asymmetry :            0.00000023 Eh               0.00001 eV

Virial components:
Potential Energy   :         -870.97685926 Eh          -23700.48525 eV
Kinetic Energy     :          434.62724813 Eh           11826.80868 eV
Virial Ratio       :            2.00396285


DFT components:
N(Alpha)           :       31.999940998071 electrons
N(Beta)            :       30.999938650755 electrons
N(Total)           :       62.999879648825 electrons
E(X)               :      -44.234949071388 Eh       
E(C)               :       -2.566053544927 Eh       
E(XC)              :      -46.801002616315 Eh       
DFET-embed. en.    :        0.000000000000 Eh       

---------------
SCF CONVERGENCE
---------------

  Last Energy change         ...    2.1544e-09  Tolerance :   1.0000e-08
  Last MAX-Density change    ...    0.0000e+00  Tolerance :   1.0000e-07
  Last RMS-Density change    ...    0.0000e+00  Tolerance :   5.0000e-09
  Last DIIS Error            ...    3.3583e-05  Tolerance :   5.0000e-07

             **** THE GBW FILE WAS UPDATED (kation.gbw) ****
             **** DENSITY kation.scfp WAS UPDATED ****
             **** ENERGY FILE WAS UPDATED (kation.en.tmp) ****
----------------------
UHF SPIN CONTAMINATION
----------------------

Warning: in a DFT calculation there is little theoretical justification to 
         calculate <S**2> as in Hartree-Fock theory. We will do it anyways
         but you should keep in mind that the values have only limited relevance

Expectation value of <S**2>     :     0.762907
Ideal value S*(S+1) for S=0.5   :     0.750000
Deviation                       :     0.012907

             **** THE GBW FILE WAS UPDATED (kation.gbw) ****
             **** DENSITY kation.scfp WAS UPDATED ****
----------------
ORBITAL ENERGIES
----------------
                 SPIN UP ORBITALS
  NO   OCC          E(Eh)            E(eV) 
   0   1.0000     -19.346488      -526.4447 
   1   1.0000     -19.346140      -526.4352 
   2   1.0000     -14.743592      -401.1935 
   3   1.0000     -10.499741      -285.7125 
   4   1.0000     -10.463659      -284.7306 
   5   1.0000     -10.430986      -283.8416 
   6   1.0000     -10.430505      -283.8285 
   7   1.0000     -10.429844      -283.8105 
   8   1.0000     -10.429586      -283.8035 
   9   1.0000      -1.420498       -38.6537 
  10   1.0000      -1.245821       -33.9005 
  11   1.0000      -1.126117       -30.6432 
  12   1.0000      -1.040162       -28.3042 
  13   1.0000      -0.994879       -27.0720 
  14   1.0000      -0.921595       -25.0779 
  15   1.0000      -0.858930       -23.3727 
  16   1.0000      -0.812477       -22.1086 
  17   1.0000      -0.761535       -20.7224 
  18   1.0000      -0.731615       -19.9083 
  19   1.0000      -0.722777       -19.6678 
  20   1.0000      -0.718394       -19.5485 
  21   1.0000      -0.683131       -18.5889 
  22   1.0000      -0.677767       -18.4430 
  23   1.0000      -0.659268       -17.9396 
  24   1.0000      -0.628388       -17.0993 
  25   1.0000      -0.609680       -16.5902 
  26   1.0000      -0.589465       -16.0402 
  27   1.0000      -0.533974       -14.5302 
  28   1.0000      -0.504405       -13.7256 
  29   1.0000      -0.501497       -13.6464 
  30   1.0000      -0.494419       -13.4538 
  31   1.0000      -0.480648       -13.0791 
  32   0.0000      -0.302906        -8.2425 
  33   0.0000      -0.254268        -6.9190 
  34   0.0000      -0.224380        -6.1057 
  35   0.0000      -0.147036        -4.0011 
  36   0.0000      -0.109192        -2.9713 
  37   0.0000      -0.108174        -2.9436 
  38   0.0000      -0.106374        -2.8946 
  39   0.0000      -0.098703        -2.6859 
  40   0.0000      -0.072749        -1.9796 
  41   0.0000      -0.070198        -1.9102 
  42   0.0000      -0.061955        -1.6859 
  43   0.0000      -0.050078        -1.3627 
  44   0.0000      -0.034023        -0.9258 
  45   0.0000      -0.015911        -0.4330 
  46   0.0000      -0.015286        -0.4159 
  47   0.0000      -0.011014        -0.2997 
  48   0.0000      -0.006082        -0.1655 
  49   0.0000       0.013794         0.3753 
  50   0.0000       0.032417         0.8821 
  51   0.0000       0.036525         0.9939 
  52   0.0000       0.043188         1.1752 
  53   0.0000       0.055053         1.4981 
  54   0.0000       0.056801         1.5456 
  55   0.0000       0.057695         1.5700 
  56   0.0000       0.081150         2.2082 
  57   0.0000       0.081721         2.2238 
  58   0.0000       0.083621         2.2754 
  59   0.0000       0.093631         2.5478 
  60   0.0000       0.123112         3.3500 
  61   0.0000       0.128433         3.4948 
  62   0.0000       0.129763         3.5310 
  63   0.0000       0.138609         3.7717 
  64   0.0000       0.142871         3.8877 
  65   0.0000       0.145746         3.9659 
  66   0.0000       0.158810         4.3214 
  67   0.0000       0.186464         5.0740 
  68   0.0000       0.192873         5.2483 
  69   0.0000       0.198246         5.3945 
  70   0.0000       0.198852         5.4110 
  71   0.0000       0.208331         5.6690 
  72   0.0000       0.218295         5.9401 
  73   0.0000       0.237206         6.4547 
  74   0.0000       0.245370         6.6769 
  75   0.0000       0.249365         6.7856 
  76   0.0000       0.271913         7.3991 
  77   0.0000       0.274647         7.4735 
  78   0.0000       0.292592         7.9618 
  79   0.0000       0.305630         8.3166 
  80   0.0000       0.306177         8.3315 
  81   0.0000       0.306920         8.3517 
  82   0.0000       0.307656         8.3717 
  83   0.0000       0.322825         8.7845 
  84   0.0000       0.328671         8.9436 
  85   0.0000       0.330831         9.0024 
  86   0.0000       0.336749         9.1634 
  87   0.0000       0.336940         9.1686 
  88   0.0000       0.357472         9.7273 
  89   0.0000       0.365622         9.9491 
  90   0.0000       0.395977        10.7751 
  91   0.0000       0.409757        11.1501 
  92   0.0000       0.413944        11.2640 
  93   0.0000       0.425077        11.5669 
  94   0.0000       0.451685        12.2910 
  95   0.0000       0.461529        12.5588 
  96   0.0000       0.473525        12.8853 
  97   0.0000       0.496161        13.5012 
  98   0.0000       0.497649        13.5417 
  99   0.0000       0.512507        13.9460 
 100   0.0000       0.512865        13.9558 
 101   0.0000       0.524596        14.2750 
 102   0.0000       0.533558        14.5188 
 103   0.0000       0.534297        14.5389 
 104   0.0000       0.542837        14.7713 
 105   0.0000       0.549901        14.9636 
 106   0.0000       0.553609        15.0645 
 107   0.0000       0.583568        15.8797 
 108   0.0000       0.600891        16.3511 
 109   0.0000       0.610315        16.6075 
 110   0.0000       0.639415        17.3994 
 111   0.0000       0.661997        18.0139 
 112   0.0000       0.662279        18.0215 
 113   0.0000       0.667235        18.1564 
 114   0.0000       0.676044        18.3961 
 115   0.0000       0.682289        18.5660 
 116   0.0000       0.691189        18.8082 
 117   0.0000       0.698099        18.9962 
 118   0.0000       0.702803        19.1243 
 119   0.0000       0.703926        19.1548 
 120   0.0000       0.708611        19.2823 
 121   0.0000       0.738982        20.1087 
 122   0.0000       0.768323        20.9071 
 123   0.0000       0.774907        21.0863 
 124   0.0000       0.782523        21.2935 
 125   0.0000       0.782847        21.3023 
 126   0.0000       0.782961        21.3054 
 127   0.0000       0.807486        21.9728 
 128   0.0000       0.807995        21.9867 
 129   0.0000       0.837448        22.7881 
 130   0.0000       0.838613        22.8198 
 131   0.0000       0.850869        23.1533 
 132   0.0000       0.865351        23.5474 
 133   0.0000       0.881046        23.9745 
 134   0.0000       0.895779        24.3754 
 135   0.0000       0.912290        24.8247 
 136   0.0000       0.914466        24.8839 
 137   0.0000       0.925770        25.1915 
 138   0.0000       0.934904        25.4400 
 139   0.0000       0.937641        25.5145 
 140   0.0000       0.970390        26.4057 
 141   0.0000       0.989155        26.9163 
 142   0.0000       0.993761        27.0416 
 143   0.0000       1.003620        27.3099 
 144   0.0000       1.023885        27.8613 
 145   0.0000       1.043108        28.3844 
 146   0.0000       1.059452        28.8292 
 147   0.0000       1.073922        29.2229 
 148   0.0000       1.078775        29.3550 
 149   0.0000       1.126171        30.6447 
 150   0.0000       1.126339        30.6492 
 151   0.0000       1.148196        31.2440 
 152   0.0000       1.166230        31.7347 
 153   0.0000       1.191629        32.4259 
 154   0.0000       1.230109        33.4730 
 155   0.0000       1.237888        33.6847 
 156   0.0000       1.239627        33.7320 
 157   0.0000       1.248492        33.9732 
 158   0.0000       1.250056        34.0157 
 159   0.0000       1.293519        35.1984 
 160   0.0000       1.307720        35.5849 
 161   0.0000       1.312773        35.7224 
 162   0.0000       1.321549        35.9612 
 163   0.0000       1.323672        36.0189 
 164   0.0000       1.335088        36.3296 
 165   0.0000       1.341559        36.5057 
 166   0.0000       1.350332        36.7444 
 167   0.0000       1.359999        37.0075 
 168   0.0000       1.382004        37.6062 
 169   0.0000       1.400954        38.1219 
 170   0.0000       1.403408        38.1887 
 171   0.0000       1.430322        38.9210 
 172   0.0000       1.447361        39.3847 
 173   0.0000       1.460250        39.7354 
 174   0.0000       1.490057        40.5465 
 175   0.0000       1.502633        40.8887 
 176   0.0000       1.508634        41.0520 
 177   0.0000       1.523062        41.4446 
 178   0.0000       1.528058        41.5806 
 179   0.0000       1.530785        41.6548 
 180   0.0000       1.549054        42.1519 
 181   0.0000       1.556379        42.3512 
 182   0.0000       1.584488        43.1161 
 183   0.0000       1.593102        43.3505 
 184   0.0000       1.599472        43.5238 
 185   0.0000       1.608237        43.7624 
 186   0.0000       1.624743        44.2115 
 187   0.0000       1.632840        44.4318 
 188   0.0000       1.662168        45.2299 
 189   0.0000       1.682823        45.7919 
 190   0.0000       1.696504        46.1642 
 191   0.0000       1.704402        46.3791 
 192   0.0000       1.705302        46.4036 
 193   0.0000       1.718630        46.7663 
 194   0.0000       1.745915        47.5088 
 195   0.0000       1.752717        47.6938 
 196   0.0000       1.756966        47.8095 
 197   0.0000       1.769252        48.1438 
 198   0.0000       1.789805        48.7031 
 199   0.0000       1.792446        48.7749 
 200   0.0000       1.796311        48.8801 
 201   0.0000       1.827216        49.7211 
 202   0.0000       1.835899        49.9573 
 203   0.0000       1.854197        50.4553 
 204   0.0000       1.857105        50.5344 
 205   0.0000       1.872243        50.9463 
 206   0.0000       1.880542        51.1721 
 207   0.0000       1.913157        52.0597 
 208   0.0000       1.925301        52.3901 
 209   0.0000       1.934245        52.6335 
 210   0.0000       1.972287        53.6687 
 211   0.0000       1.984503        54.0011 
 212   0.0000       1.992701        54.2242 
 213   0.0000       1.993331        54.2413 
 214   0.0000       2.002986        54.5040 
 215   0.0000       2.019828        54.9623 
 216   0.0000       2.023310        55.0571 
 217   0.0000       2.035181        55.3801 
 218   0.0000       2.042963        55.5918 
 219   0.0000       2.044617        55.6369 
 220   0.0000       2.067521        56.2601 
 221   0.0000       2.070577        56.3433 
 222   0.0000       2.092259        56.9333 
 223   0.0000       2.097930        57.0876 
 224   0.0000       2.109035        57.3898 
 225   0.0000       2.144437        58.3531 
 226   0.0000       2.179957        59.3196 
 227   0.0000       2.181515        59.3620 
 228   0.0000       2.189144        59.5696 
 229   0.0000       2.195133        59.7326 
 230   0.0000       2.206236        60.0347 
 231   0.0000       2.232182        60.7408 
 232   0.0000       2.233404        60.7740 
 233   0.0000       2.235374        60.8276 
 234   0.0000       2.261910        61.5497 
 235   0.0000       2.265241        61.6404 
 236   0.0000       2.290489        62.3274 
 237   0.0000       2.315100        62.9971 
 238   0.0000       2.323444        63.2241 
 239   0.0000       2.332037        63.4580 
 240   0.0000       2.335643        63.5561 
 241   0.0000       2.374695        64.6187 
 242   0.0000       2.397198        65.2311 
 243   0.0000       2.405425        65.4549 
 244   0.0000       2.406995        65.4977 
 245   0.0000       2.419078        65.8265 
 246   0.0000       2.421697        65.8977 
 247   0.0000       2.424712        65.9798 
 248   0.0000       2.444523        66.5189 
 249   0.0000       2.446655        66.5769 
 250   0.0000       2.462435        67.0063 
 251   0.0000       2.470511        67.2260 
 252   0.0000       2.472224        67.2726 
 253   0.0000       2.500454        68.0408 
 254   0.0000       2.513859        68.4056 
 255   0.0000       2.519368        68.5555 
 256   0.0000       2.529375        68.8278 
 257   0.0000       2.546117        69.2834 
 258   0.0000       2.557292        69.5875 
 259   0.0000       2.584025        70.3149 
 260   0.0000       2.586019        70.3692 
 261   0.0000       2.593549        70.5741 
 262   0.0000       2.632394        71.6311 
 263   0.0000       2.657911        72.3254 
 264   0.0000       2.660973        72.4088 
 265   0.0000       2.681925        72.9789 
 266   0.0000       2.696526        73.3762 
 267   0.0000       2.701020        73.4985 
 268   0.0000       2.702182        73.5301 
 269   0.0000       2.754907        74.9648 
 270   0.0000       2.755395        74.9781 
 271   0.0000       2.762633        75.1751 
 272   0.0000       2.768211        75.3268 
 273   0.0000       2.787107        75.8410 
 274   0.0000       2.850538        77.5671 
 275   0.0000       2.851009        77.5799 
 276   0.0000       2.886419        78.5434 
 277   0.0000       2.888035        78.5874 
 278   0.0000       2.898559        78.8738 
 279   0.0000       2.906568        79.0917 
 280   0.0000       2.909787        79.1793 
 281   0.0000       2.949148        80.2504 
 282   0.0000       2.978869        81.0592 
 283   0.0000       3.028301        82.4043 
 284   0.0000       3.044380        82.8418 
 285   0.0000       3.054441        83.1156 
 286   0.0000       3.067981        83.4840 
 287   0.0000       3.072455        83.6057 
 288   0.0000       3.125198        85.0410 
 289   0.0000       3.134998        85.3076 
 290   0.0000       3.139646        85.4341 
 291   0.0000       3.156803        85.9010 
 292   0.0000       3.162665        86.0605 
 293   0.0000       3.169007        86.2331 
 294   0.0000       3.205634        87.2297 
 295   0.0000       3.210646        87.3661 
 296   0.0000       3.217925        87.5642 
 297   0.0000       3.226532        87.7984 
 298   0.0000       3.252763        88.5122 
 299   0.0000       3.272532        89.0501 
 300   0.0000       3.283173        89.3397 
 301   0.0000       3.287532        89.4583 
 302   0.0000       3.293540        89.6218 
 303   0.0000       3.297830        89.7385 
 304   0.0000       3.333652        90.7133 
 305   0.0000       3.343995        90.9947 
 306   0.0000       3.417745        93.0016 
 307   0.0000       3.422371        93.1275 
 308   0.0000       3.493042        95.0505 
 309   0.0000       3.495776        95.1249 
 310   0.0000       3.504087        95.3511 
 311   0.0000       3.526674        95.9657 
 312   0.0000       3.572575        97.2147 
 313   0.0000       3.589203        97.6672 
 314   0.0000       3.592784        97.7646 
 315   0.0000       3.601276        97.9957 
 316   0.0000       3.620222        98.5113 
 317   0.0000       3.665693        99.7486 
 318   0.0000       3.688889       100.3798 
 319   0.0000       3.737841       101.7118 
 320   0.0000       3.746079       101.9360 
 321   0.0000       3.783976       102.9672 
 322   0.0000       3.798779       103.3700 
 323   0.0000       3.826949       104.1366 
 324   0.0000       3.837382       104.4205 
 325   0.0000       3.842374       104.5563 
 326   0.0000       3.866421       105.2107 
 327   0.0000       3.871115       105.3384 
 328   0.0000       3.901690       106.1704 
 329   0.0000       3.914244       106.5120 
 330   0.0000       3.942543       107.2820 
 331   0.0000       4.030806       109.6838 
 332   0.0000       4.031559       109.7043 
 333   0.0000       4.035983       109.8247 
 334   0.0000       4.057115       110.3997 
 335   0.0000       4.123105       112.1954 
 336   0.0000       4.146945       112.8441 
 337   0.0000       4.159650       113.1898 
 338   0.0000       4.165725       113.3551 
 339   0.0000       4.202592       114.3583 
 340   0.0000       4.240827       115.3988 
 341   0.0000       4.253727       115.7498 
 342   0.0000       4.316124       117.4477 
 343   0.0000       4.336900       118.0130 
 344   0.0000       4.346422       118.2722 
 345   0.0000       4.357876       118.5838 
 346   0.0000       4.413386       120.0943 
 347   0.0000       4.459678       121.3540 
 348   0.0000       4.464034       121.4725 
 349   0.0000       4.496423       122.3539 
 350   0.0000       4.509718       122.7157 
 351   0.0000       4.565595       124.2362 
 352   0.0000       4.576105       124.5221 
 353   0.0000       4.580783       124.6494 
 354   0.0000       4.614844       125.5763 
 355   0.0000       4.622439       125.7830 
 356   0.0000       4.647722       126.4709 
 357   0.0000       4.690940       127.6470 
 358   0.0000       4.707212       128.0898 
 359   0.0000       4.735751       128.8663 
 360   0.0000       4.773619       129.8968 
 361   0.0000       4.785283       130.2142 
 362   0.0000       4.794205       130.4569 
 363   0.0000       4.796988       130.5327 
 364   0.0000       4.810910       130.9115 
 365   0.0000       4.833027       131.5133 
 366   0.0000       4.837265       131.6287 
 367   0.0000       4.876512       132.6966 
 368   0.0000       4.928769       134.1186 
 369   0.0000       4.963972       135.0766 
 370   0.0000       4.970126       135.2440 
 371   0.0000       4.978489       135.4716 
 372   0.0000       4.983108       135.5973 
 373   0.0000       5.001906       136.1088 
 374   0.0000       5.012673       136.4018 
 375   0.0000       5.022842       136.6785 
 376   0.0000       5.036286       137.0443 
 377   0.0000       5.088192       138.4568 
 378   0.0000       5.100369       138.7881 
 379   0.0000       5.112554       139.1197 
 380   0.0000       5.141673       139.9120 
 381   0.0000       5.147547       140.0719 
 382   0.0000       5.149103       140.1142 
 383   0.0000       5.160596       140.4269 
 384   0.0000       5.193100       141.3114 
 385   0.0000       5.200708       141.5185 
 386   0.0000       5.271266       143.4384 
 387   0.0000       5.279787       143.6703 
 388   0.0000       5.294110       144.0601 
 389   0.0000       5.297225       144.1448 
 390   0.0000       5.310335       144.5016 
 391   0.0000       5.367501       146.0571 
 392   0.0000       5.389065       146.6439 
 393   0.0000       5.408165       147.1637 
 394   0.0000       5.427814       147.6983 
 395   0.0000       5.450278       148.3096 
 396   0.0000       5.474115       148.9583 
 397   0.0000       5.521915       150.2590 
 398   0.0000       5.549548       151.0109 
 399   0.0000       5.558683       151.2595 
 400   0.0000       5.560103       151.2981 
 401   0.0000       5.615978       152.8185 
 402   0.0000       5.625099       153.0667 
 403   0.0000       5.638641       153.4352 
 404   0.0000       5.664606       154.1418 
 405   0.0000       5.665821       154.1748 
 406   0.0000       5.671656       154.3336 
 407   0.0000       5.710964       155.4032 
 408   0.0000       5.731633       155.9657 
 409   0.0000       5.758268       156.6904 
 410   0.0000       5.771066       157.0387 
 411   0.0000       5.782103       157.3390 
 412   0.0000       5.790084       157.5562 
 413   0.0000       5.819377       158.3533 
 414   0.0000       5.832581       158.7126 
 415   0.0000       5.849175       159.1642 
 416   0.0000       5.853512       159.2821 
 417   0.0000       5.862880       159.5371 
 418   0.0000       5.874061       159.8413 
 419   0.0000       5.883313       160.0931 
 420   0.0000       5.898727       160.5125 
 421   0.0000       5.912309       160.8821 
 422   0.0000       5.915981       160.9820 
 423   0.0000       5.931956       161.4167 
 424   0.0000       5.957890       162.1224 
 425   0.0000       5.972390       162.5170 
 426   0.0000       5.991483       163.0365 
 427   0.0000       6.023763       163.9149 
 428   0.0000       6.023827       163.9167 
 429   0.0000       6.040493       164.3702 
 430   0.0000       6.046643       164.5375 
 431   0.0000       6.052040       164.6844 
 432   0.0000       6.060901       164.9255 
 433   0.0000       6.063153       164.9868 
 434   0.0000       6.087045       165.6369 
 435   0.0000       6.123474       166.6282 
 436   0.0000       6.124345       166.6519 
 437   0.0000       6.138807       167.0454 
 438   0.0000       6.184742       168.2954 
 439   0.0000       6.189023       168.4119 
 440   0.0000       6.207388       168.9116 
 441   0.0000       6.232920       169.6064 
 442   0.0000       6.240739       169.8191 
 443   0.0000       6.252863       170.1491 
 444   0.0000       6.278076       170.8351 
 445   0.0000       6.306795       171.6166 
 446   0.0000       6.342466       172.5873 
 447   0.0000       6.353618       172.8907 
 448   0.0000       6.362755       173.1394 
 449   0.0000       6.382454       173.6754 
 450   0.0000       6.386649       173.7896 
 451   0.0000       6.401454       174.1924 
 452   0.0000       6.402009       174.2075 
 453   0.0000       6.424485       174.8191 
 454   0.0000       6.451364       175.5505 
 455   0.0000       6.455226       175.6556 
 456   0.0000       6.473557       176.1544 
 457   0.0000       6.493421       176.6950 
 458   0.0000       6.504754       177.0034 
 459   0.0000       6.524463       177.5397 
 460   0.0000       6.528018       177.6364 
 461   0.0000       6.643470       180.7780 
 462   0.0000       6.646692       180.8657 
 463   0.0000       6.652513       181.0241 
 464   0.0000       6.679249       181.7516 
 465   0.0000       6.686390       181.9459 
 466   0.0000       6.700847       182.3393 
 467   0.0000       6.713749       182.6904 
 468   0.0000       6.729321       183.1141 
 469   0.0000       6.764877       184.0817 
 470   0.0000       6.790380       184.7756 
 471   0.0000       6.808727       185.2749 
 472   0.0000       6.887090       187.4072 
 473   0.0000       6.891538       187.5283 
 474   0.0000       6.894444       187.6073 
 475   0.0000       6.896744       187.6699 
 476   0.0000       7.001434       190.5187 
 477   0.0000       7.038942       191.5394 
 478   0.0000       7.049041       191.8142 
 479   0.0000       7.049148       191.8171 
 480   0.0000       7.066566       192.2910 
 481   0.0000       7.136226       194.1866 
 482   0.0000       7.140632       194.3065 
 483   0.0000       7.179396       195.3613 
 484   0.0000       7.194286       195.7665 
 485   0.0000       7.216649       196.3750 
 486   0.0000       7.221638       196.5107 
 487   0.0000       7.243424       197.1036 
 488   0.0000       7.252487       197.3502 
 489   0.0000       7.261214       197.5877 
 490   0.0000       7.271686       197.8726 
 491   0.0000       7.294188       198.4849 
 492   0.0000       7.294745       198.5001 
 493   0.0000       7.305230       198.7854 
 494   0.0000       7.324304       199.3044 
 495   0.0000       7.330151       199.4636 
 496   0.0000       7.389493       201.0783 
 497   0.0000       7.399205       201.3426 
 498   0.0000       7.411475       201.6765 
 499   0.0000       7.464338       203.1150 
 500   0.0000       7.485841       203.7001 
 501   0.0000       7.498620       204.0478 
 502   0.0000       7.565429       205.8658 
 503   0.0000       7.573241       206.0784 
 504   0.0000       7.623080       207.4346 
 505   0.0000       7.635251       207.7657 
 506   0.0000       7.670000       208.7113 
 507   0.0000       7.673844       208.8159 
 508   0.0000       7.697694       209.4649 
 509   0.0000       7.713880       209.9054 
 510   0.0000       7.726094       210.2377 
 511   0.0000       7.747925       210.8318 
 512   0.0000       7.754328       211.0060 
 513   0.0000       7.776283       211.6034 
 514   0.0000       7.877830       214.3666 
 515   0.0000       7.878044       214.3725 
 516   0.0000       7.894954       214.8326 
 517   0.0000       7.912868       215.3201 
 518   0.0000       7.940979       216.0850 
 519   0.0000       7.949343       216.3126 
 520   0.0000       7.967622       216.8100 
 521   0.0000       7.969040       216.8486 
 522   0.0000       8.003700       217.7918 
 523   0.0000       8.005173       217.8318 
 524   0.0000       8.015634       218.1165 
 525   0.0000       8.051011       219.0791 
 526   0.0000       8.059540       219.3112 
 527   0.0000       8.060561       219.3390 
 528   0.0000       8.072893       219.6746 
 529   0.0000       8.087847       220.0815 
 530   0.0000       8.106377       220.5857 
 531   0.0000       8.123582       221.0539 
 532   0.0000       8.142311       221.5635 
 533   0.0000       8.163776       222.1476 
 534   0.0000       8.169243       222.2964 
 535   0.0000       8.191531       222.9029 
 536   0.0000       8.200483       223.1465 
 537   0.0000       8.228021       223.8958 
 538   0.0000       8.230101       223.9524 
 539   0.0000       8.300440       225.8664 
 540   0.0000       8.302804       225.9308 
 541   0.0000       8.325923       226.5599 
 542   0.0000       8.332116       226.7284 
 543   0.0000       8.357281       227.4132 
 544   0.0000       8.364034       227.5969 
 545   0.0000       8.429414       229.3760 
 546   0.0000       8.433930       229.4989 
 547   0.0000       8.449748       229.9293 
 548   0.0000       8.461917       230.2605 
 549   0.0000       8.475712       230.6358 
 550   0.0000       8.539264       232.3652 
 551   0.0000       8.540171       232.3899 
 552   0.0000       8.575994       233.3647 
 553   0.0000       8.642826       235.1832 
 554   0.0000       8.656437       235.5536 
 555   0.0000       8.671037       235.9509 
 556   0.0000       8.671672       235.9682 
 557   0.0000       8.674848       236.0546 
 558   0.0000       8.685034       236.3318 
 559   0.0000       8.694860       236.5992 
 560   0.0000       8.716413       237.1856 
 561   0.0000       8.724575       237.4078 
 562   0.0000       8.765081       238.5100 
 563   0.0000       8.813943       239.8396 
 564   0.0000       8.817883       239.9468 
 565   0.0000       8.821055       240.0331 
 566   0.0000       8.889409       241.8931 
 567   0.0000       8.954872       243.6744 
 568   0.0000       8.956293       243.7131 
 569   0.0000       9.004344       245.0206 
 570   0.0000       9.068109       246.7558 
 571   0.0000       9.157105       249.1775 
 572   0.0000       9.174599       249.6535 
 573   0.0000       9.214046       250.7269 
 574   0.0000       9.240869       251.4568 
 575   0.0000       9.321734       253.6573 
 576   0.0000       9.359595       254.6875 
 577   0.0000       9.378739       255.2085 
 578   0.0000       9.430689       256.6221 
 579   0.0000       9.454447       257.2686 
 580   0.0000       9.497653       258.4443 
 581   0.0000       9.544098       259.7081 
 582   0.0000       9.544704       259.7246 
 583   0.0000       9.585286       260.8289 
 584   0.0000       9.593857       261.0621 
 585   0.0000       9.653094       262.6740 
 586   0.0000       9.729057       264.7411 
 587   0.0000       9.730495       264.7802 
 588   0.0000       9.759088       265.5583 
 589   0.0000       9.779657       266.1180 
 590   0.0000       9.791584       266.4426 
 591   0.0000       9.799551       266.6593 
 592   0.0000       9.892188       269.1801 
 593   0.0000       9.970823       271.3199 
 594   0.0000       9.999875       272.1104 
 595   0.0000      10.007796       272.3260 
 596   0.0000      10.017918       272.6014 
 597   0.0000      10.084251       274.4064 
 598   0.0000      10.172863       276.8177 
 599   0.0000      10.255770       279.0737 
 600   0.0000      10.267510       279.3931 
 601   0.0000      10.398977       282.9705 
 602   0.0000      10.425507       283.6925 
 603   0.0000      10.446596       284.2663 
 604   0.0000      10.526435       286.4389 
 605   0.0000      10.588024       288.1148 
 606   0.0000      10.601186       288.4729 
 607   0.0000      10.606581       288.6197 
 608   0.0000      10.642024       289.5842 
 609   0.0000      10.654067       289.9119 
 610   0.0000      10.778127       293.2877 
 611   0.0000      10.780725       293.3584 
 612   0.0000      10.839587       294.9602 
 613   0.0000      10.864965       295.6507 
 614   0.0000      11.031486       300.1820 
 615   0.0000      11.121983       302.6445 
 616   0.0000      11.148525       303.3668 
 617   0.0000      11.150803       303.4288 
 618   0.0000      11.211578       305.0825 
 619   0.0000      11.273779       306.7751 
 620   0.0000      11.545870       314.1791 
 621   0.0000      11.546966       314.2089 
 622   0.0000      11.556331       314.4637 
 623   0.0000      11.569157       314.8128 
 624   0.0000      11.819889       321.6355 
 625   0.0000      11.853315       322.5451 
 626   0.0000      11.864898       322.8603 
 627   0.0000      11.902532       323.8844 
 628   0.0000      11.972097       325.7773 
 629   0.0000      11.986224       326.1617 
 630   0.0000      12.028748       327.3189 
 631   0.0000      12.128339       330.0289 
 632   0.0000      12.287189       334.3514 
 633   0.0000      12.349986       336.0602 
 634   0.0000      12.469284       339.3065 
 635   0.0000      12.652497       344.2920 
 636   0.0000      12.893835       350.8591 
 637   0.0000      13.021565       354.3348 
 638   0.0000      13.119251       356.9930 
 639   0.0000      13.389335       364.3423 
 640   0.0000      13.503310       367.4437 
 641   0.0000      13.941895       379.3782 
 642   0.0000      13.976373       380.3164 
 643   0.0000      14.881486       404.9458 
 644   0.0000      14.919561       405.9819 
 645   0.0000      27.598293       750.9877 
 646   0.0000      28.090977       764.3943 
 647   0.0000      28.257722       768.9317 
 648   0.0000      28.595965       778.1358 
 649   0.0000      28.726712       781.6936 
 650   0.0000      29.041715       790.2652 
 651   0.0000      37.445322      1018.9390 
 652   0.0000      47.897172      1303.3483 
 653   0.0000      47.964834      1305.1895 
 654   0.0000     146.665471      3990.9704 
 655   0.0000     147.140143      4003.8869 
 656   0.0000     147.306406      4008.4111 
 657   0.0000     147.603439      4016.4938 
 658   0.0000     147.730936      4019.9632 
 659   0.0000     148.072478      4029.2570 
 660   0.0000     196.729464      5353.2809 
 661   0.0000     252.917943      6882.2471 
 662   0.0000     252.990046      6884.2091 

                 SPIN DOWN ORBITALS
  NO   OCC          E(Eh)            E(eV) 
   0   1.0000     -19.345658      -526.4221 
   1   1.0000     -19.345449      -526.4164 
   2   1.0000     -14.744189      -401.2098 
   3   1.0000     -10.493037      -285.5301 
   4   1.0000     -10.457254      -284.5564 
   5   1.0000     -10.430335      -283.8239 
   6   1.0000     -10.430249      -283.8215 
   7   1.0000     -10.429534      -283.8021 
   8   1.0000     -10.429242      -283.7941 
   9   1.0000      -1.419404       -38.6240 
  10   1.0000      -1.244167       -33.8555 
  11   1.0000      -1.114900       -30.3380 
  12   1.0000      -1.024191       -27.8697 
  13   1.0000      -0.992665       -27.0118 
  14   1.0000      -0.915353       -24.9080 
  15   1.0000      -0.853026       -23.2120 
  16   1.0000      -0.807370       -21.9696 
  17   1.0000      -0.759903       -20.6780 
  18   1.0000      -0.725121       -19.7316 
  19   1.0000      -0.719894       -19.5893 
  20   1.0000      -0.714957       -19.4550 
  21   1.0000      -0.681633       -18.5482 
  22   1.0000      -0.674122       -18.3438 
  23   1.0000      -0.659084       -17.9346 
  24   1.0000      -0.607675       -16.5357 
  25   1.0000      -0.597920       -16.2702 
  26   1.0000      -0.586474       -15.9588 
  27   1.0000      -0.499572       -13.5940 
  28   1.0000      -0.499406       -13.5895 
  29   1.0000      -0.488579       -13.2949 
  30   1.0000      -0.479981       -13.0609 
  31   0.0000      -0.441822       -12.0226 
  32   0.0000      -0.282613        -7.6903 
  33   0.0000      -0.241500        -6.5715 
  34   0.0000      -0.203467        -5.5366 
  35   0.0000      -0.146034        -3.9738 
  36   0.0000      -0.108116        -2.9420 
  37   0.0000      -0.106173        -2.8891 
  38   0.0000      -0.103792        -2.8243 
  39   0.0000      -0.077419        -2.1067 
  40   0.0000      -0.072402        -1.9702 
  41   0.0000      -0.067013        -1.8235 
  42   0.0000      -0.058613        -1.5949 
  43   0.0000      -0.044757        -1.2179 
  44   0.0000      -0.032064        -0.8725 
  45   0.0000      -0.015595        -0.4244 
  46   0.0000      -0.011013        -0.2997 
  47   0.0000      -0.010693        -0.2910 
  48   0.0000      -0.005780        -0.1573 
  49   0.0000       0.015784         0.4295 
  50   0.0000       0.033933         0.9234 
  51   0.0000       0.040328         1.0974 
  52   0.0000       0.044166         1.2018 
  53   0.0000       0.059206         1.6111 
  54   0.0000       0.060508         1.6465 
  55   0.0000       0.060677         1.6511 
  56   0.0000       0.085420         2.3244 
  57   0.0000       0.085438         2.3249 
  58   0.0000       0.085804         2.3349 
  59   0.0000       0.097115         2.6426 
  60   0.0000       0.123669         3.3652 
  61   0.0000       0.131128         3.5682 
  62   0.0000       0.132382         3.6023 
  63   0.0000       0.143161         3.8956 
  64   0.0000       0.145391         3.9563 
  65   0.0000       0.147557         4.0152 
  66   0.0000       0.159868         4.3502 
  67   0.0000       0.190149         5.1742 
  68   0.0000       0.193441         5.2638 
  69   0.0000       0.199098         5.4177 
  70   0.0000       0.200000         5.4423 
  71   0.0000       0.209809         5.7092 
  72   0.0000       0.218550         5.9471 
  73   0.0000       0.237666         6.4672 
  74   0.0000       0.247670         6.7395 
  75   0.0000       0.249761         6.7963 
  76   0.0000       0.274795         7.4776 
  77   0.0000       0.275051         7.4845 
  78   0.0000       0.295901         8.0519 
  79   0.0000       0.307354         8.3635 
  80   0.0000       0.307651         8.3716 
  81   0.0000       0.309579         8.4241 
  82   0.0000       0.313363         8.5270 
  83   0.0000       0.324325         8.8253 
  84   0.0000       0.328666         8.9435 
  85   0.0000       0.331376         9.0172 
  86   0.0000       0.338233         9.2038 
  87   0.0000       0.343352         9.3431 
  88   0.0000       0.360854         9.8193 
  89   0.0000       0.366790         9.9809 
  90   0.0000       0.401252        10.9186 
  91   0.0000       0.414779        11.2867 
  92   0.0000       0.416465        11.3326 
  93   0.0000       0.426024        11.5927 
  94   0.0000       0.452544        12.3143 
  95   0.0000       0.466373        12.6906 
  96   0.0000       0.474432        12.9099 
  97   0.0000       0.500355        13.6153 
  98   0.0000       0.503332        13.6963 
  99   0.0000       0.513398        13.9703 
 100   0.0000       0.515889        14.0380 
 101   0.0000       0.526471        14.3260 
 102   0.0000       0.536168        14.5899 
 103   0.0000       0.541339        14.7306 
 104   0.0000       0.551977        15.0201 
 105   0.0000       0.555411        15.1135 
 106   0.0000       0.556564        15.1449 
 107   0.0000       0.587917        15.9980 
 108   0.0000       0.608371        16.5546 
 109   0.0000       0.610942        16.6246 
 110   0.0000       0.641469        17.4552 
 111   0.0000       0.663819        18.0634 
 112   0.0000       0.664812        18.0905 
 113   0.0000       0.668389        18.1878 
 114   0.0000       0.679699        18.4955 
 115   0.0000       0.682569        18.5736 
 116   0.0000       0.700024        19.0486 
 117   0.0000       0.701066        19.0770 
 118   0.0000       0.703662        19.1476 
 119   0.0000       0.707755        19.2590 
 120   0.0000       0.709487        19.3061 
 121   0.0000       0.745896        20.2969 
 122   0.0000       0.769276        20.9331 
 123   0.0000       0.776524        21.1303 
 124   0.0000       0.784760        21.3544 
 125   0.0000       0.785313        21.3695 
 126   0.0000       0.791186        21.5293 
 127   0.0000       0.810225        22.0474 
 128   0.0000       0.811961        22.0946 
 129   0.0000       0.838993        22.8302 
 130   0.0000       0.841167        22.8893 
 131   0.0000       0.852006        23.1843 
 132   0.0000       0.867360        23.6021 
 133   0.0000       0.887145        24.1404 
 134   0.0000       0.899825        24.4855 
 135   0.0000       0.914594        24.8874 
 136   0.0000       0.916936        24.9511 
 137   0.0000       0.927812        25.2470 
 138   0.0000       0.939553        25.5665 
 139   0.0000       0.940954        25.6047 
 140   0.0000       0.972859        26.4728 
 141   0.0000       0.991305        26.9748 
 142   0.0000       0.998300        27.1651 
 143   0.0000       1.006397        27.3855 
 144   0.0000       1.026920        27.9439 
 145   0.0000       1.046477        28.4761 
 146   0.0000       1.062544        28.9133 
 147   0.0000       1.077392        29.3173 
 148   0.0000       1.080240        29.3948 
 149   0.0000       1.127036        30.6682 
 150   0.0000       1.128225        30.7006 
 151   0.0000       1.149792        31.2874 
 152   0.0000       1.168446        31.7950 
 153   0.0000       1.194826        32.5129 
 154   0.0000       1.233095        33.5542 
 155   0.0000       1.240267        33.7494 
 156   0.0000       1.240362        33.7520 
 157   0.0000       1.249692        34.0059 
 158   0.0000       1.251298        34.0496 
 159   0.0000       1.296342        35.2753 
 160   0.0000       1.310970        35.6733 
 161   0.0000       1.313271        35.7359 
 162   0.0000       1.324737        36.0479 
 163   0.0000       1.326871        36.1060 
 164   0.0000       1.343712        36.5643 
 165   0.0000       1.347725        36.6734 
 166   0.0000       1.351024        36.7632 
 167   0.0000       1.363069        37.0910 
 168   0.0000       1.384438        37.6725 
 169   0.0000       1.403150        38.1817 
 170   0.0000       1.406795        38.2808 
 171   0.0000       1.431749        38.9599 
 172   0.0000       1.450424        39.4680 
 173   0.0000       1.460689        39.7474 
 174   0.0000       1.493789        40.6481 
 175   0.0000       1.508733        41.0547 
 176   0.0000       1.510379        41.0995 
 177   0.0000       1.528823        41.6014 
 178   0.0000       1.530635        41.6507 
 179   0.0000       1.540328        41.9144 
 180   0.0000       1.561283        42.4847 
 181   0.0000       1.562992        42.5312 
 182   0.0000       1.586984        43.1840 
 183   0.0000       1.594776        43.3961 
 184   0.0000       1.606564        43.7168 
 185   0.0000       1.610126        43.8137 
 186   0.0000       1.629339        44.3366 
 187   0.0000       1.633720        44.4558 
 188   0.0000       1.664499        45.2933 
 189   0.0000       1.684049        45.8253 
 190   0.0000       1.705813        46.4175 
 191   0.0000       1.706955        46.4486 
 192   0.0000       1.711894        46.5830 
 193   0.0000       1.731313        47.1114 
 194   0.0000       1.750511        47.6338 
 195   0.0000       1.753238        47.7080 
 196   0.0000       1.759927        47.8900 
 197   0.0000       1.778113        48.3849 
 198   0.0000       1.793310        48.7984 
 199   0.0000       1.798908        48.9508 
 200   0.0000       1.798941        48.9517 
 201   0.0000       1.830516        49.8109 
 202   0.0000       1.840032        50.0698 
 203   0.0000       1.858904        50.5834 
 204   0.0000       1.863420        50.7062 
 205   0.0000       1.875308        51.0297 
 206   0.0000       1.892417        51.4953 
 207   0.0000       1.915785        52.1312 
 208   0.0000       1.929363        52.5006 
 209   0.0000       1.939206        52.7685 
 210   0.0000       1.976332        53.7787 
 211   0.0000       1.987844        54.0920 
 212   0.0000       1.995505        54.3004 
 213   0.0000       1.996171        54.3186 
 214   0.0000       2.008361        54.6503 
 215   0.0000       2.022685        55.0400 
 216   0.0000       2.028109        55.1876 
 217   0.0000       2.037114        55.4327 
 218   0.0000       2.047318        55.7103 
 219   0.0000       2.052010        55.8380 
 220   0.0000       2.071632        56.3720 
 221   0.0000       2.075358        56.4734 
 222   0.0000       2.095094        57.0104 
 223   0.0000       2.102742        57.2185 
 224   0.0000       2.114079        57.5270 
 225   0.0000       2.152227        58.5651 
 226   0.0000       2.182074        59.3772 
 227   0.0000       2.192333        59.6564 
 228   0.0000       2.196728        59.7760 
 229   0.0000       2.199259        59.8449 
 230   0.0000       2.218278        60.3624 
 231   0.0000       2.237748        60.8922 
 232   0.0000       2.240046        60.9547 
 233   0.0000       2.240283        60.9612 
 234   0.0000       2.265297        61.6419 
 235   0.0000       2.269755        61.7632 
 236   0.0000       2.294933        62.4483 
 237   0.0000       2.317479        63.0618 
 238   0.0000       2.333978        63.5108 
 239   0.0000       2.334862        63.5348 
 240   0.0000       2.340288        63.6825 
 241   0.0000       2.376594        64.6704 
 242   0.0000       2.403809        65.4110 
 243   0.0000       2.407915        65.5227 
 244   0.0000       2.409392        65.5629 
 245   0.0000       2.424323        65.9692 
 246   0.0000       2.427342        66.0513 
 247   0.0000       2.428019        66.0697 
 248   0.0000       2.446486        66.5723 
 249   0.0000       2.447469        66.5990 
 250   0.0000       2.466389        67.1139 
 251   0.0000       2.474629        67.3381 
 252   0.0000       2.479703        67.4762 
 253   0.0000       2.503519        68.1242 
 254   0.0000       2.516065        68.4656 
 255   0.0000       2.521552        68.6149 
 256   0.0000       2.531897        68.8964 
 257   0.0000       2.549295        69.3698 
 258   0.0000       2.559235        69.6403 
 259   0.0000       2.586253        70.3755 
 260   0.0000       2.588222        70.4291 
 261   0.0000       2.595897        70.6380 
 262   0.0000       2.634176        71.6796 
 263   0.0000       2.661595        72.4257 
 264   0.0000       2.661919        72.4345 
 265   0.0000       2.683622        73.0251 
 266   0.0000       2.699232        73.4498 
 267   0.0000       2.704189        73.5847 
 268   0.0000       2.707380        73.6716 
 269   0.0000       2.760109        75.1064 
 270   0.0000       2.760896        75.1278 
 271   0.0000       2.764612        75.2289 
 272   0.0000       2.771262        75.4099 
 273   0.0000       2.791265        75.9542 
 274   0.0000       2.852445        77.6190 
 275   0.0000       2.856694        77.7346 
 276   0.0000       2.893579        78.7383 
 277   0.0000       2.896607        78.8207 
 278   0.0000       2.899967        78.9121 
 279   0.0000       2.913433        79.2786 
 280   0.0000       2.915177        79.3260 
 281   0.0000       2.950704        80.2927 
 282   0.0000       2.984267        81.2060 
 283   0.0000       3.031415        82.4890 
 284   0.0000       3.045864        82.8822 
 285   0.0000       3.055707        83.1500 
 286   0.0000       3.075186        83.6801 
 287   0.0000       3.076546        83.7171 
 288   0.0000       3.131482        85.2119 
 289   0.0000       3.136644        85.3524 
 290   0.0000       3.144114        85.5557 
 291   0.0000       3.163799        86.0913 
 292   0.0000       3.165017        86.1245 
[...]
      dyz     :     0.013851
      dx2y2   :     0.016526
      dxy     :     0.023446
      f0      :     0.000737  f :     0.008853
      f+1     :     0.000268
      f-1     :     0.000985
      f+2     :     0.001107
      f-2     :     0.000174
      f+3     :     0.003168
      f-3     :     0.002414
  9 H s       :     0.767810  s :     0.767810
      pz      :     0.042390  p :     0.178853
      px      :     0.090861
      py      :     0.045602
      dz2     :     0.004898  d :     0.061365
      dxz     :     0.015609
      dyz     :     0.002562
      dx2y2   :     0.018567
      dxy     :     0.019729
      f0      :     0.000921  f :     0.009031
      f+1     :     0.000908
      f-1     :     0.000325
      f+2     :     0.000850
      f-2     :     0.000707
      f+3     :     0.003001
      f-3     :     0.002320
 10 H s       :     0.759131  s :     0.759131
      pz      :     0.041354  p :     0.188232
      px      :     0.072673
      py      :     0.074206
      dz2     :     0.005065  d :     0.063405
      dxz     :     0.009738
      dyz     :     0.008588
      dx2y2   :     0.023764
      dxy     :     0.016249
      f0      :     0.000925  f :     0.009176
      f+1     :     0.000697
      f-1     :     0.000585
      f+2     :     0.000040
      f-2     :     0.001542
      f+3     :     0.002959
      f-3     :     0.002428
 11 N s       :     2.776734  s :     2.776734
      pz      :     0.975201  p :     3.228109
      px      :     1.145614
      py      :     1.107294
      dz2     :     0.071053  d :     1.017731
      dxz     :     0.217454
      dyz     :     0.047037
      dx2y2   :     0.366424
      dxy     :     0.315764
      f0      :     0.006067  f :     0.217674
      f+1     :     0.015869
      f-1     :     0.007612
      f+2     :     0.012703
      f-2     :     0.034859
      f+3     :     0.089041
      f-3     :     0.051524
      g0      :     0.000565  g :     0.019403
      g+1     :     0.004347
      g-1     :     0.000658
      g+2     :     0.002227
      g-2     :     0.002224
      g+3     :     0.000263
      g-3     :     0.000666
      g+4     :     0.004482
      g-4     :     0.003970
 12 O s       :     3.358125  s :     3.358125
      pz      :     1.265968  p :     4.229000
      px      :     1.352267
      py      :     1.610765
      dz2     :     0.018249  d :     0.147307
      dxz     :     0.033276
      dyz     :     0.003606
      dx2y2   :     0.046538
      dxy     :     0.045638
      f0      :     0.003931  f :     0.036349
      f+1     :     0.004232
      f-1     :     0.001180
      f+2     :     0.004901
      f-2     :     0.002088
      f+3     :     0.010290
      f-3     :     0.009727
      g0      :     0.000128  g :     0.002453
      g+1     :     0.000357
      g-1     :     0.000032
      g+2     :     0.000216
      g-2     :     0.000165
      g+3     :     0.000136
      g-3     :     0.000179
      g+4     :     0.000676
      g-4     :     0.000565
 13 O s       :     3.358266  s :     3.358266
      pz      :     1.265248  p :     4.228480
      px      :     1.445232
      py      :     1.517999
      dz2     :     0.018250  d :     0.147300
      dxz     :     0.023816
      dyz     :     0.013072
      dx2y2   :     0.038284
      dxy     :     0.053879
      f0      :     0.003931  f :     0.036342
      f+1     :     0.003190
      f-1     :     0.002221
      f+2     :     0.000833
      f-2     :     0.006155
      f+3     :     0.011053
      f-3     :     0.008958
      g0      :     0.000127  g :     0.002452
      g+1     :     0.000256
      g-1     :     0.000133
      g+2     :     0.000110
      g-2     :     0.000271
      g+3     :     0.000035
      g-3     :     0.000280
      g+4     :     0.000580
      g-4     :     0.000660

SPIN
  0 C s       :     0.007144  s :     0.007144
      pz      :     0.274523  p :     0.283922
      px      :     0.003860
      py      :     0.005539
      dz2     :    -0.000677  d :    -0.003084
      dxz     :    -0.000237
      dyz     :    -0.001672
      dx2y2   :    -0.000242
      dxy     :    -0.000256
      f0      :    -0.001400  f :    -0.001187
      f+1     :    -0.000287
      f-1     :    -0.000298
      f+2     :     0.001295
      f-2     :    -0.000140
      f+3     :    -0.000086
      f-3     :    -0.000269
      g0      :    -0.000006  g :    -0.000284
      g+1     :    -0.000051
      g-1     :    -0.000006
      g+2     :    -0.000033
      g-2     :    -0.000028
      g+3     :    -0.000023
      g-3     :    -0.000071
      g+4     :    -0.000035
      g-4     :    -0.000030
  1 C s       :    -0.000500  s :    -0.000500
      pz      :     0.014269  p :     0.010213
      px      :    -0.002132
      py      :    -0.001924
      dz2     :     0.000020  d :     0.037635
      dxz     :     0.009762
      dyz     :     0.026283
      dx2y2   :     0.000361
      dxy     :     0.001208
      f0      :     0.001000  f :     0.011949
      f+1     :    -0.000027
      f-1     :    -0.000031
      f+2     :     0.002102
      f-2     :     0.008493
      f+3     :     0.000124
      f-3     :     0.000286
      g0      :    -0.000004  g :     0.001017
      g+1     :     0.000289
      g-1     :     0.000478
      g+2     :     0.000008
      g-2     :    -0.000021
      g+3     :     0.000035
      g-3     :     0.000184
      g+4     :     0.000020
      g-4     :     0.000029
  2 C s       :     0.000378  s :     0.000378
      pz      :     0.053089  p :     0.050609
      px      :    -0.002650
      py      :     0.000170
      dz2     :    -0.000239  d :     0.033787
      dxz     :     0.021013
      dyz     :     0.012026
      dx2y2   :     0.000629
      dxy     :     0.000359
      f0      :     0.000699  f :     0.009553
      f+1     :    -0.000087
      f-1     :    -0.000067
      f+2     :     0.006748
      f-2     :     0.002034
      f+3     :     0.000115
      f-3     :     0.000111
      g0      :    -0.000005  g :     0.000782
      g+1     :     0.000469
      g-1     :     0.000151
      g+2     :    -0.000005
      g-2     :    -0.000015
      g+3     :     0.000069
      g-3     :     0.000085
      g+4     :     0.000024
      g-4     :     0.000008
  3 C s       :     0.005920  s :     0.005920
      pz      :     0.288737  p :     0.295557
      px      :     0.003019
      py      :     0.003801
      dz2     :    -0.001525  d :     0.001032
      dxz     :     0.003480
      dyz     :    -0.000694
      dx2y2   :    -0.000302
      dxy     :     0.000073
      f0      :    -0.000660  f :     0.000483
      f+1     :    -0.000312
      f-1     :    -0.000344
      f+2     :     0.001356
      f-2     :     0.000550
      f+3     :     0.000035
      f-3     :    -0.000143
      g0      :    -0.000005  g :     0.000011
      g+1     :     0.000022
      g-1     :     0.000060
      g+2     :    -0.000023
      g-2     :    -0.000028
      g+3     :    -0.000001
      g-3     :     0.000004
      g+4     :    -0.000009
      g-4     :    -0.000009
  4 C s       :     0.000237  s :     0.000237
      pz      :     0.046599  p :     0.043891
      px      :    -0.001643
      py      :    -0.001065
      dz2     :    -0.000204  d :     0.034685
      dxz     :     0.009698
      dyz     :     0.024170
      dx2y2   :    -0.000010
      dxy     :     0.001033
      f0      :     0.000737  f :     0.009802
      f+1     :    -0.000069
      f-1     :    -0.000071
      f+2     :     0.001285
      f-2     :     0.007686
      f+3     :     0.000033
      f-3     :     0.000202
      g0      :    -0.000005  g :     0.000803
      g+1     :     0.000256
      g-1     :     0.000378
      g+2     :     0.000006
      g-2     :    -0.000025
      g+3     :     0.000024
      g-3     :     0.000135
      g+4     :     0.000012
      g-4     :     0.000021
  5 C s       :    -0.000375  s :    -0.000375
      pz      :     0.019819  p :     0.015972
      px      :    -0.003170
      py      :    -0.000677
      dz2     :    -0.000010  d :     0.036625
      dxz     :     0.021269
      dyz     :     0.013840
      dx2y2   :     0.000895
      dxy     :     0.000631
      f0      :     0.000962  f :     0.011686
      f+1     :    -0.000043
      f-1     :    -0.000027
      f+2     :     0.008338
      f-2     :     0.002055
      f+3     :     0.000166
      f-3     :     0.000234
      g0      :    -0.000005  g :     0.000995
      g+1     :     0.000531
      g-1     :     0.000220
      g+2     :    -0.000004
      g-2     :    -0.000010
      g+3     :     0.000093
      g-3     :     0.000122
      g+4     :     0.000033
      g-4     :     0.000015
  6 H s       :    -0.000396  s :    -0.000396
      pz      :     0.000610  p :     0.000243
      px      :    -0.000134
      py      :    -0.000234
      dz2     :    -0.000007  d :     0.000289
      dxz     :     0.000654
      dyz     :    -0.000158
      dx2y2   :    -0.000114
      dxy     :    -0.000085
      f0      :     0.000015  f :     0.000028
      f+1     :    -0.000002
      f-1     :    -0.000002
      f+2     :     0.000077
      f-2     :    -0.000027
      f+3     :    -0.000025
      f-3     :    -0.000008
  7 H s       :    -0.001367  s :    -0.001367
      pz      :     0.003442  p :     0.003425
      px      :    -0.000028
      py      :     0.000012
      dz2     :    -0.000009  d :     0.001608
      dxz     :     0.001482
      dyz     :     0.000207
      dx2y2   :    -0.000138
      dxy     :     0.000066
      f0      :     0.000083  f :     0.000216
      f+1     :    -0.000002
      f-1     :    -0.000002
      f+2     :     0.000038
      f-2     :     0.000116
      f+3     :    -0.000020
      f-3     :     0.000004
  8 H s       :    -0.006781  s :    -0.006781
      pz      :     0.020509  p :     0.022824
      px      :     0.000018
      py      :     0.002297
      dz2     :    -0.000024  d :     0.009891
      dxz     :     0.000289
      dyz     :     0.009022
      dx2y2   :     0.000437
      dxy     :     0.000167
      f0      :     0.000487  f :     0.001383
      f+1     :    -0.000002
      f-1     :    -0.000009
      f+2     :     0.000744
      f-2     :     0.000097
      f+3     :     0.000031
      f-3     :     0.000035
  9 H s       :    -0.001228  s :    -0.001228
      pz      :     0.002963  p :     0.002888
      px      :     0.000118
      py      :    -0.000193
      dz2     :    -0.000009  d :     0.001380
      dxz     :     0.001557
      dyz     :    -0.000079
      dx2y2   :    -0.000029
      dxy     :    -0.000059
      f0      :     0.000071  f :     0.000184
      f+1     :    -0.000002
      f-1     :    -0.000002
      f+2     :     0.000132
      f-2     :     0.000003
      f+3     :    -0.000011
      f-3     :    -0.000007
 10 H s       :    -0.000517  s :    -0.000517
      pz      :     0.001012  p :     0.000694
      px      :    -0.000205
      py      :    -0.000112
      dz2     :    -0.000007  d :     0.000493
      dxz     :     0.000783
      dyz     :    -0.000098
      dx2y2   :    -0.000202
      dxy     :     0.000018
      f0      :     0.000025  f :     0.000057
      f+1     :    -0.000002
      f-1     :    -0.000001
      f+2     :     0.000029
      f-2     :     0.000038
      f+3     :    -0.000026
      f-3     :    -0.000005
 11 N s       :    -0.001155  s :    -0.001155
      pz      :    -0.008254  p :    -0.013420
      px      :    -0.000809
      py      :    -0.004357
      dz2     :     0.000121  d :     0.024081
      dxz     :    -0.000177
      dyz     :     0.022901
      dx2y2   :     0.000930
      dxy     :     0.000306
      f0      :     0.000372  f :     0.005110
      f+1     :     0.000013
      f-1     :     0.000010
      f+2     :     0.003759
      f-2     :     0.000641
      f+3     :     0.000106
      f-3     :     0.000209
      g0      :    -0.000002  g :     0.000265
      g+1     :     0.000022
      g-1     :     0.000217
      g+2     :    -0.000003
      g-2     :    -0.000002
      g+3     :     0.000010
      g-3     :     0.000036
      g+4     :    -0.000010
      g-4     :    -0.000003
 12 O s       :     0.000229  s :     0.000229
      pz      :     0.025152  p :     0.023653
      px      :     0.000248
      py      :    -0.001747
      dz2     :    -0.000001  d :    -0.000840
      dxz     :    -0.000489
      dyz     :    -0.000048
      dx2y2   :    -0.000054
      dxy     :    -0.000247
      f0      :    -0.000085  f :    -0.000293
      f+1     :    -0.000016
      f-1     :    -0.000007
      f+2     :    -0.000042
      f-2     :    -0.000046
      f+3     :    -0.000054
      f-3     :    -0.000043
      g0      :    -0.000000  g :    -0.000022
      g+1     :    -0.000007
      g-1     :    -0.000001
      g+2     :    -0.000001
      g-2     :    -0.000001
      g+3     :     0.000000
      g-3     :    -0.000004
      g+4     :    -0.000007
      g-4     :    -0.000001
 13 O s       :     0.000286  s :     0.000286
      pz      :     0.030048  p :     0.028656
      px      :     0.000396
      py      :    -0.001788
      dz2     :     0.000005  d :    -0.000809
      dxz     :    -0.000238
      dyz     :    -0.000273
      dx2y2   :    -0.000185
      dxy     :    -0.000117
      f0      :    -0.000083  f :    -0.000288
      f+1     :    -0.000013
      f-1     :    -0.000012
      f+2     :     0.000035
      f-2     :    -0.000118
      f+3     :    -0.000084
      f-3     :    -0.000014
      g0      :    -0.000000  g :    -0.000022
      g+1     :    -0.000004
      g-1     :    -0.000003
      g+2     :    -0.000001
      g-2     :    -0.000001
      g+3     :    -0.000000
      g-3     :    -0.000004
      g+4     :    -0.000002
      g-4     :    -0.000006


                      *****************************
                      * MAYER POPULATION ANALYSIS *
                      *****************************

  NA   - Mulliken gross atomic population
  ZA   - Total nuclear charge
  QA   - Mulliken gross atomic charge
  VA   - Mayer's total valence
  BVA  - Mayer's bonded valence
  FA   - Mayer's free valence

  ATOM       NA         ZA         QA         VA         BVA        FA
  0 C      5.8230     6.0000     0.1770     3.5584     3.4147     0.1437
  1 C      5.9355     6.0000     0.0645     3.6729     3.6708     0.0021
  2 C      5.9952     6.0000     0.0048     3.7538     3.7468     0.0069
  3 C      5.9229     6.0000     0.0771     3.7170     3.5654     0.1516
  4 C      5.9943     6.0000     0.0057     3.7531     3.7474     0.0058
  5 C      5.9350     6.0000     0.0650     3.6729     3.6705     0.0024
  6 H      0.8482     1.0000     0.1518     0.9896     0.9896     0.0000
  7 H      0.8662     1.0000     0.1338     0.9834     0.9834     0.0000
  8 H      0.8551     1.0000     0.1449     0.9742     0.9738     0.0004
  9 H      0.8677     1.0000     0.1323     0.9841     0.9841     0.0000
 10 H      0.8481     1.0000     0.1519     0.9892     0.9892     0.0000
 11 N      6.6946     7.0000     0.3054     4.1100     4.1094     0.0005
 12 O      8.2072     8.0000    -0.2072     2.0516     2.0508     0.0008
 13 O      8.2069     8.0000    -0.2069     2.0521     2.0509     0.0011

  Mayer bond orders larger than 0.100000
B(  0-C ,  1-C ) :   1.0977 B(  0-C ,  5-C ) :   1.0946 B(  0-C , 11-N ) :   0.8799 
B(  1-C ,  2-C ) :   1.4283 B(  1-C ,  6-H ) :   0.9279 B(  2-C ,  3-C ) :   1.1654 
B(  2-C ,  7-H ) :   0.9473 B(  3-C ,  4-C ) :   1.1680 B(  3-C ,  8-H ) :   0.9422 
B(  4-C ,  5-C ) :   1.4283 B(  4-C ,  9-H ) :   0.9478 B(  5-C , 10-H ) :   0.9280 
B( 11-N , 12-O ) :   1.6128 B( 11-N , 13-O ) :   1.6113 B( 12-O , 13-O ) :   0.2974 


-------
TIMINGS
-------

Total SCF time: 0 days 1 hours 7 min 10 sec 

Total time                  ....    4030.169 sec
Sum of individual times     ....    3935.937 sec  ( 97.7%)

Fock matrix formation       ....    3851.771 sec  ( 95.6%)
  Split-RI-J                ....     198.531 sec  (  5.2% of F)
  Chain of spheres X        ....    2941.440 sec  ( 76.4% of F)
  XC integration            ....     589.641 sec  ( 15.3% of F)
    Basis function eval.    ....      60.314 sec  ( 10.2% of XC)
    Density eval.           ....     217.740 sec  ( 36.9% of XC)
    XC-Functional eval.     ....       5.307 sec  (  0.9% of XC)
    XC-Potential eval.      ....     249.265 sec  ( 42.3% of XC)
Diagonalization             ....      15.925 sec  (  0.4%)
Density matrix formation    ....       0.898 sec  (  0.0%)
Population analysis         ....       0.573 sec  (  0.0%)
Initial guess               ....      24.239 sec  (  0.6%)
Orbital Transformation      ....       0.000 sec  (  0.0%)
Orbital Orthonormalization  ....       0.000 sec  (  0.0%)
DIIS solution               ....       6.713 sec  (  0.2%)
Grid generation             ....      35.818 sec  (  0.9%)

Maximum memory used throughout the entire SCF-calculation: 753.6 MB

-------------------------   --------------------
FINAL SINGLE POINT ENERGY      -436.349611133849
-------------------------   --------------------


                            ***************************************
                            *     ORCA property calculations      *
                            ***************************************

                                    ---------------------
                                    Active property flags
                                    ---------------------
   (+) Dipole Moment


------------------------------------------------------------------------------
                       ORCA ELECTRIC PROPERTIES CALCULATION
------------------------------------------------------------------------------

Dipole Moment Calculation                       ... on
Quadrupole Moment Calculation                   ... off
Polarizability Calculation                      ... off
GBWName                                         ... kation.gbw
Electron density                                ... kation.scfp
The origin for moment calculation is the CENTER OF MASS  = (-10.254167,  3.358331  0.000004)

-------------
DIPOLE MOMENT
-------------
                                X             Y             Z
Electronic contribution:     -0.74039       4.31734      -0.00002
Nuclear contribution   :      1.31383      -7.66954      -0.00001
                        -----------------------------------------
Total Dipole Moment    :      0.57344      -3.35220      -0.00003
                        -----------------------------------------
Magnitude (a.u.)       :      3.40090
Magnitude (Debye)      :      8.64439



--------------------
Rotational spectrum 
--------------------
 
Rotational constants in cm-1:     0.132276     0.042761     0.032315 
Rotational constants in MHz :  3965.541854  1281.952840   968.774232 

 Dipole components along the rotational axes: 
x,y,z [a.u.] :    -3.400896    -0.000734    -0.000021 
x,y,z [Debye]:    -8.644390    -0.001865    -0.000054 

 

Timings for individual modules:

Sum of individual times         ...     4043.085 sec (=  67.385 min)
GTO integral calculation        ...       11.763 sec (=   0.196 min)   0.3 %
SCF iterations                  ...     4031.322 sec (=  67.189 min)  99.7 %
                             ****ORCA TERMINATED NORMALLY****
TOTAL RUN TIME: 0 days 1 hours 7 minutes 26 seconds 215 msec
