
                                 *****************
                                 * O   R   C   A *
                                 *****************

                                            #,                                       
                                            ###                                      
                                            ####                                     
                                            #####                                    
                                            ######                                   
                                           ########,                                 
                                     ,,################,,,,,                         
                               ,,#################################,,                 
                          ,,##########################################,,             
                       ,#########################################, ''#####,          
                    ,#############################################,,   '####,        
                  ,##################################################,,,,####,       
                ,###########''''           ''''###############################       
              ,#####''   ,,,,##########,,,,          '''####'''          '####       
            ,##' ,,,,###########################,,,                        '##       
           ' ,,###''''                  '''############,,,                           
         ,,##''                                '''############,,,,        ,,,,,,###''
      ,#''                                            '''#######################'''  
     '                                                          ''''####''''         
             ,#######,   #######,   ,#######,      ##                                
            ,#'     '#,  ##    ##  ,#'     '#,    #''#        ######   ,####,        
            ##       ##  ##   ,#'  ##            #'  '#       #        #'  '#        
            ##       ##  #######   ##           ,######,      #####,   #    #        
            '#,     ,#'  ##    ##  '#,     ,#' ,#      #,         ##   #,  ,#        
             '#######'   ##     ##  '#######'  #'      '#     #####' # '####'        



                  #######################################################
                  #                        -***-                        #
                  #          Department of theory and spectroscopy      #
                  #    Directorship and core code : Frank Neese         #
                  #        Max Planck Institute fuer Kohlenforschung    #
                  #                Kaiser Wilhelm Platz 1               #
                  #                 D-45470 Muelheim/Ruhr               #
                  #                      Germany                        #
                  #                                                     #
                  #                  All rights reserved                #
                  #                        -***-                        #
                  #######################################################



                         Program Version 5.0.4 -  RELEASE  -

 With contributions from (in alphabetic order):
   Daniel Aravena         : Magnetic Suceptibility
   Michael Atanasov       : Ab Initio Ligand Field Theory (pilot matlab implementation)
   Alexander A. Auer      : GIAO ZORA, VPT2 properties, NMR spectrum
   Ute Becker             : Parallelization
   Giovanni Bistoni       : ED, misc. LED, open-shell LED, HFLD
   Martin Brehm           : Molecular dynamics
   Dmytro Bykov           : SCF Hessian
   Vijay G. Chilkuri      : MRCI spin determinant printing, contributions to CSF-ICE
   Dipayan Datta          : RHF DLPNO-CCSD density
   Achintya Kumar Dutta   : EOM-CC, STEOM-CC
   Dmitry Ganyushin       : Spin-Orbit,Spin-Spin,Magnetic field MRCI
   Miquel Garcia          : C-PCM and meta-GGA Hessian, CC/C-PCM, Gaussian charge scheme
   Yang Guo               : DLPNO-NEVPT2, F12-NEVPT2, CIM, IAO-localization
   Andreas Hansen         : Spin unrestricted coupled pair/coupled cluster methods
   Benjamin Helmich-Paris : MC-RPA, TRAH-SCF, COSX integrals
   Lee Huntington         : MR-EOM, pCC
   Robert Izsak           : Overlap fitted RIJCOSX, COSX-SCS-MP3, EOM
   Marcus Kettner         : VPT2
   Christian Kollmar      : KDIIS, OOCD, Brueckner-CCSD(T), CCSD density, CASPT2, CASPT2-K
   Simone Kossmann        : Meta GGA functionals, TD-DFT gradient, OOMP2, MP2 Hessian
   Martin Krupicka        : Initial AUTO-CI
   Lucas Lang             : DCDCAS
   Marvin Lechner         : AUTO-CI (C++ implementation), FIC-MRCC
   Dagmar Lenk            : GEPOL surface, SMD
   Dimitrios Liakos       : Extrapolation schemes; Compound Job, initial MDCI parallelization
   Dimitrios Manganas     : Further ROCIS development; embedding schemes
   Dimitrios Pantazis     : SARC Basis sets
   Anastasios Papadopoulos: AUTO-CI, single reference methods and gradients
   Taras Petrenko         : DFT Hessian,TD-DFT gradient, ASA, ECA, R-Raman, ABS, FL, XAS/XES, NRVS
   Peter Pinski           : DLPNO-MP2, DLPNO-MP2 Gradient
   Christoph Reimann      : Effective Core Potentials
   Marius Retegan         : Local ZFS, SOC
   Christoph Riplinger    : Optimizer, TS searches, QM/MM, DLPNO-CCSD(T), (RO)-DLPNO pert. Triples
   Tobias Risthaus        : Range-separated hybrids, TD-DFT gradient, RPA, STAB
   Michael Roemelt        : Original ROCIS implementation
   Masaaki Saitow         : Open-shell DLPNO-CCSD energy and density
   Barbara Sandhoefer     : DKH picture change effects
   Avijit Sen             : IP-ROCIS
   Kantharuban Sivalingam : CASSCF convergence, NEVPT2, FIC-MRCI
   Bernardo de Souza      : ESD, SOC TD-DFT
   Georgi Stoychev        : AutoAux, RI-MP2 NMR, DLPNO-MP2 response
   Willem Van den Heuvel  : Paramagnetic NMR
   Boris Wezisla          : Elementary symmetry handling
   Frank Wennmohs         : Technical directorship


 We gratefully acknowledge several colleagues who have allowed us to
 interface, adapt or use parts of their codes:
   Stefan Grimme, W. Hujo, H. Kruse, P. Pracht,  : VdW corrections, initial TS optimization,
                  C. Bannwarth, S. Ehlert          DFT functionals, gCP, sTDA/sTD-DF
   Ed Valeev, F. Pavosevic, A. Kumar             : LibInt (2-el integral package), F12 methods
   Garnet Chan, S. Sharma, J. Yang, R. Olivares  : DMRG
   Ulf Ekstrom                                   : XCFun DFT Library
   Mihaly Kallay                                 : mrcc  (arbitrary order and MRCC methods)
   Jiri Pittner, Ondrej Demel                    : Mk-CCSD
   Frank Weinhold                                : gennbo (NPA and NBO analysis)
   Christopher J. Cramer and Donald G. Truhlar   : smd solvation model
   Lars Goerigk                                  : TD-DFT with DH, B97 family of functionals
   V. Asgeirsson, H. Jonsson                     : NEB implementation
   FAccTs GmbH                                   : IRC, NEB, NEB-TS, DLPNO-Multilevel, CI-OPT
                                                   MM, QMMM, 2- and 3-layer-ONIOM, Crystal-QMMM,
                                                   LR-CPCM, SF, NACMEs, symmetry and pop. for TD-DFT,
                                                   nearIR, NL-DFT gradient (VV10), updates on ESD,
                                                   ML-optimized integration grids
   S Lehtola, MJT Oliveira, MAL Marques          : LibXC Library
   Liviu Ungur et al                             : ANISO software


 Your calculation uses the libint2 library for the computation of 2-el integrals
 For citations please refer to: http://libint.valeyev.net

 Your ORCA version has been built with support for libXC version: 5.1.0
 For citations please refer to: https://tddft.org/programs/libxc/

 This ORCA versions uses:
   CBLAS   interface :  Fast vector & matrix operations
   LAPACKE interface :  Fast linear algebra routines
   Shared memory     :  Shared parallel matrices


Your calculation utilizes the atom-pairwise dispersion correction
based on tight binding partial charges (D4)
Cite in your paper:
E.Caldeweyher, C.Bannwarth, S.Grimme, J.Chem.Phys., (2017), 147, 034112.
E.Caldeweyher, S.Ehlert, A.Hansen, H.Neugebauer, S.Grimme, J.Chem.Phys., (2018), in progress.
   

================================================================================

----- Orbital basis set information -----
Your calculation utilizes the basis: def2-SVP
   F. Weigend and R. Ahlrichs, Phys. Chem. Chem. Phys. 7, 3297 (2005).

----- AuxJ basis set information -----
Your calculation utilizes the auxiliary basis: def2/J
   F. Weigend, Phys. Chem. Chem. Phys. 8, 1057 (2006).

================================================================================
                                        WARNINGS
                       Please study these warnings very carefully!
================================================================================


WARNING: Geometry Optimization
  ===> : Switching off AutoStart
         For restart on a previous wavefunction, please use MOREAD

INFO   : the flag for use of the SHARK integral package has been found!

================================================================================
                                       INPUT FILE
================================================================================
NAME = educts_optfreq_7.inp
|  1> !B3LYP DEF2-SVP OPT FREQ D4 SOSCF
|  2> 
|  3> %geom 
|  4> convergence tight
|  5> end
|  6> 
|  7> * xyz 1 1
|  8>   C   -6.13365314899140      0.61505152661642      1.90541479158520
|  9>   C   -6.66110307230404      1.10373424329405      0.68052420305059
| 10>   C   -6.46067066299769      0.41484594766513     -0.48884545505384
| 11>   C   -5.73420726329419     -0.78970004876894     -0.47093385034143
| 12>   C   -5.17358420487416     -1.27878912803937      0.72781908918293
| 13>   C   -5.36999337091810     -0.59293442966711      1.89463095928105
| 14>   C   -6.35694970564776      1.32834589286431      3.17586501142460
| 15>   H   -5.39366711150410      1.66290970381082      3.58925603964312
| 16>   H   -6.76140842564602      0.64703158910716      3.93854154707129
| 17>   H   -7.01043094200828      2.18953824113676      3.07214938968517
| 18>   H   -7.22335619906079      2.02704785702307      0.68306722560751
| 19>   H   -6.86125488776009      0.79178029387370     -1.41917248246674
| 20>   H   -5.62244642507858     -1.36617781098927     -1.37843902218044
| 21>   H   -4.60536373604865     -2.19769961568911      0.71748235719348
| 22>   H   -4.95856463350885     -0.95710017241882      2.82653574401320
| 23>   N   -9.09926683238473     -0.85626174087526    -13.94132873212742
| 24>   O   -8.71052921950867     -0.91822187045438    -12.75201446975389
| 25>   O   -7.96797772543029     -0.93160726352387    -14.49047533794576
| 26> **                         ****END OF INPUT****
================================================================================

                       *****************************
                       * Geometry Optimization Run *
                       *****************************

Geometry optimization settings:
Update method            Update   .... BFGS
Choice of coordinates    CoordSys .... Z-matrix Internals
Initial Hessian          InHess   .... Almoef's Model

Convergence Tolerances:
Energy Change            TolE     ....  1.0000e-06 Eh
Max. Gradient            TolMAXG  ....  1.0000e-04 Eh/bohr
RMS Gradient             TolRMSG  ....  3.0000e-05 Eh/bohr
Max. Displacement        TolMAXD  ....  1.0000e-03 bohr
RMS Displacement         TolRMSD  ....  6.0000e-04 bohr
Strict Convergence                ....  False
------------------------------------------------------------------------------
                        ORCA OPTIMIZATION COORDINATE SETUP
------------------------------------------------------------------------------

The optimization will be done in new redundant internal coordinates
Making redundant internal coordinates   ...  (new redundants) done
Evaluating the initial hessian          ...  (Almloef) done
Evaluating the coordinates              ...  done
Calculating the B-matrix                .... done
Calculating the G-matrix                .... done
Diagonalizing the G-matrix              .... done
Small eigenvalue found = 2.527e-02
The first mode is                       ....   70
The number of degrees of freedom        ....   48

    -----------------------------------------------------------------
                    Redundant Internal Coordinates


    -----------------------------------------------------------------
         Definition                    Initial Value    Approx d2E/dq
    -----------------------------------------------------------------
      1. B(C   1,C   0)                  1.4203         0.558895   
      2. B(C   2,C   1)                  1.3719         0.667703   
      3. B(C   3,C   2)                  1.4068         0.587467   
      4. B(C   4,C   3)                  1.4109         0.578714   
      5. B(C   5,C   4)                  1.3676         0.678300   
      6. B(C   5,C   0)                  1.4292         0.541063   
      7. B(C   6,C   0)                  1.4740         0.458894   
      8. B(H   7,C   6)                  1.1003         0.346684   
      9. B(H   8,C   6)                  1.0998         0.347429   
     10. B(H   9,C   6)                  1.0860         0.365399   
     11. B(H  10,C   1)                  1.0810         0.372153   
     12. B(H  11,C   2)                  1.0808         0.372525   
     13. B(H  12,C   3)                  1.0809         0.372318   
     14. B(H  13,C   4)                  1.0805         0.372954   
     15. B(H  14,C   5)                  1.0818         0.371084   
     16. B(O  16,H  12)                 11.7939         0.000000   
     17. B(O  16,H  11)                 11.6094         0.000000   
     18. B(O  16,C   3)                 12.6372         0.000000   
     19. B(O  16,C   2)                 12.5389         0.000000   
     20. B(O  16,N  15)                  1.2528         0.829773   
     21. B(O  17,O  16)                  1.8905         0.079721   
     22. B(O  17,N  15)                  1.2598         0.808658   
     23. A(C   5,C   0,C   6)          119.7670         0.401563   
     24. A(C   1,C   0,C   5)          118.8641         0.415826   
     25. A(C   1,C   0,C   6)          121.3688         0.403866   
     26. A(C   0,C   1,H  10)          119.0109         0.348712   
     27. A(C   2,C   1,H  10)          120.4551         0.359381   
     28. A(C   0,C   1,C   2)          120.5340         0.431759   
     29. A(C   1,C   2,H  11)          120.2939         0.359442   
     30. A(C   1,C   2,O  16)          149.4049         0.089032   
     31. A(C   3,C   2,O  16)           90.8067         0.089031   
     32. A(C   1,C   2,C   3)          119.6397         0.435649   
     33. A(C   3,C   2,H  11)          120.0659         0.351718   
     34. A(H  11,C   2,O  16)           29.3899         0.089024   
     35. A(C   2,C   3,C   4)          120.8537         0.424606   
     36. A(C   4,C   3,H  12)          119.1688         0.350794   
     37. A(C   2,C   3,H  12)          119.9577         0.351685   
     38. A(C   4,C   3,O  16)          156.3165         0.089029   
     39. A(C   2,C   3,O  16)           82.8025         0.089029   
     40. A(H  12,C   3,O  16)           37.1574         0.089022   
     41. A(C   5,C   4,H  13)          120.6771         0.360479   
     42. A(C   3,C   4,H  13)          119.7146         0.350895   
     43. A(C   3,C   4,C   5)          119.6029         0.435707   
     44. A(C   0,C   5,C   4)          120.4677         0.430468   
     45. A(C   4,C   5,H  14)          120.7639         0.360170   
     46. A(C   0,C   5,H  14)          118.7665         0.346645   
     47. A(H   8,C   6,H   9)          109.6453         0.289873   
     48. A(H   7,C   6,H   9)          108.7561         0.289775   
     49. A(C   0,C   6,H   9)          113.1149         0.336350   
     50. A(H   7,C   6,H   8)          104.4650         0.287496   
     51. A(C   0,C   6,H   8)          110.7107         0.333543   
     52. A(C   0,C   6,H   7)          109.7751         0.333424   
     53. A(O  16,N  15,O  17)           97.5977         0.467586   
     54. A(C   2,O  16,N  15)          168.2071         0.089033   
     55. A(N  15,O  16,O  17)           41.3413         0.313092   
     56. A(C   2,O  16,C   3)            6.3907         0.089000   
     57. A(C   3,O  16,O  17)          143.2492         0.089018   
     58. A(C   3,O  16,N  15)          174.3685         0.089030   
     59. A(C   2,O  16,O  17)          146.0630         0.089019   
     60. A(N  15,O  17,O  16)           41.0611         0.311788   
     61. D(C   2,C   1,C   0,C   6)   -178.9654         0.021393   
     62. D(H  10,C   1,C   0,C   5)   -178.8631         0.021393   
     63. D(H  10,C   1,C   0,C   6)      1.0257         0.021393   
     64. D(C   2,C   1,C   0,C   5)      1.1458         0.021393   
     65. D(H  11,C   2,C   1,C   0)   -179.8167         0.033888   
     66. D(H  11,C   2,C   1,H  10)      0.1923         0.033888   
     67. D(O  16,C   2,C   1,C   0)    174.2189         0.033888   
     68. D(O  16,C   2,C   1,H  10)     -5.7721         0.033888   
     69. D(C   3,C   2,C   1,H  10)   -179.5642         0.033888   
     70. D(C   3,C   2,C   1,C   0)      0.4268         0.033888   
     71. D(C   4,C   3,C   2,O  16)   -178.7866         0.027703   
     72. D(C   4,C   3,C   2,C   1)     -1.9419         0.027703   
     73. D(H  12,C   3,C   2,C   1)    176.4261         0.027703   
     74. D(H  12,C   3,C   2,H  11)     -3.3309         0.027703   
     75. D(C   4,C   3,C   2,H  11)    178.3011         0.027703   
     76. D(O  16,C   3,C   2,H  11)     -2.9123         0.027703   
     77. D(O  16,C   3,C   2,C   1)    176.8447         0.027703   
     78. D(H  12,C   3,C   2,O  16)     -0.4186         0.027703   
     79. D(H  13,C   4,C   3,O  16)      3.9948         0.024980   
     80. D(H  13,C   4,C   3,H  12)      2.6159         0.024980   
     81. D(H  13,C   4,C   3,C   2)   -179.0035         0.024980   
     82. D(C   5,C   4,C   3,O  16)   -175.1672         0.024980   
     83. D(C   5,C   4,C   3,H  12)   -176.5461         0.024980   
     84. D(C   5,C   4,C   3,C   2)      1.8346         0.024980   
     85. D(C   0,C   5,C   4,H  13)   -179.3710         0.032238   
     86. D(C   0,C   5,C   4,C   3)     -0.2173         0.032238   
     87. D(H  14,C   5,C   0,C   6)     -0.6464         0.020005   
     88. D(C   4,C   5,C   0,C   6)    178.8570         0.020005   
     89. D(C   4,C   5,C   0,C   1)     -1.2523         0.020005   
     90. D(H  14,C   5,C   4,C   3)    179.2761         0.032238   
     91. D(H  14,C   5,C   0,C   1)    179.2442         0.020005   
     92. D(H  14,C   5,C   4,H  13)      0.1224         0.032238   
     93. D(H   9,C   6,C   0,C   5)   -175.7332         0.015526   
     94. D(H   9,C   6,C   0,C   1)      4.3790         0.015526   
     95. D(H   8,C   6,C   0,C   5)    -52.2166         0.015526   
     96. D(H   8,C   6,C   0,C   1)    127.8955         0.015526   
     97. D(H   7,C   6,C   0,C   5)     62.5998         0.015526   
     98. D(H   7,C   6,C   0,C   1)   -117.2880         0.015526   
     99. D(C   3,O  16,N  15,O  17)    146.5450         0.082534   
    100. D(C   2,O  16,C   3,H  12)    179.3996         0.001500   
    101. D(C   2,O  16,C   3,C   4)    177.4059         0.001500   
    102. D(O  17,O  16,C   3,H  12)    -60.5146         0.001500   
    103. D(O  17,O  16,C   3,C   4)    -62.5083         0.001500   
    104. D(O  17,O  16,C   3,C   2)    120.0858         0.001500   
    105. D(N  15,O  16,C   3,H  12)    156.9735         0.001500   
    106. D(N  15,O  16,C   3,C   4)    154.9798         0.001500   
    107. D(N  15,O  16,C   3,C   2)    -22.4261         0.001500   
    108. D(C   3,O  16,C   2,H  11)    174.8593         0.001500   
    109. D(C   3,O  16,C   2,C   1)   -174.6065         0.001500   
    110. D(O  17,O  16,C   2,H  11)    106.8327         0.001500   
    111. D(O  17,O  16,C   2,C   3)    -68.0266         0.001500   
    112. D(O  17,O  16,C   2,C   1)    117.3669         0.001500   
    113. D(N  15,O  16,C   2,H  11)    -15.6953         0.001500   
    114. D(C   2,O  16,N  15,O  17)    134.5532         0.082534   
    115. D(N  15,O  16,C   2,C   3)    169.4453         0.001500   
    116. D(N  15,O  16,C   2,C   1)     -5.1611         0.001500   
    117. D(N  15,O  17,O  16,C   3)   -174.8126         0.002004   
    118. D(N  15,O  17,O  16,C   2)   -164.8785         0.002004   
    -----------------------------------------------------------------

Number of atoms                         .... 18
Number of degrees of freedom            .... 118

         *************************************************************
         *                GEOMETRY OPTIMIZATION CYCLE   1            *
         *************************************************************
---------------------------------
CARTESIAN COORDINATES (ANGSTROEM)
---------------------------------
  C     -6.133653    0.615052    1.905415
  C     -6.661103    1.103734    0.680524
  C     -6.460671    0.414846   -0.488845
  C     -5.734207   -0.789700   -0.470934
  C     -5.173584   -1.278789    0.727819
  C     -5.369993   -0.592934    1.894631
  C     -6.356950    1.328346    3.175865
  H     -5.393667    1.662910    3.589256
  H     -6.761408    0.647032    3.938542
  H     -7.010431    2.189538    3.072149
  H     -7.223356    2.027048    0.683067
  H     -6.861255    0.791780   -1.419172
  H     -5.622446   -1.366178   -1.378439
  H     -4.605364   -2.197700    0.717482
  H     -4.958565   -0.957100    2.826536
  N     -9.099267   -0.856262  -13.941329
  O     -8.710529   -0.918222  -12.752014
  O     -7.967978   -0.931607  -14.490475

----------------------------
CARTESIAN COORDINATES (A.U.)
----------------------------
  NO LB      ZA    FRAG     MASS         X           Y           Z
   0 C     6.0000    0    12.011  -11.590925    1.162279    3.600712
   1 C     6.0000    0    12.011  -12.587661    2.085755    1.286004
   2 C     6.0000    0    12.011  -12.208898    0.783945   -0.923784
   3 C     6.0000    0    12.011  -10.836081   -1.492317   -0.889936
   4 C     6.0000    0    12.011   -9.776657   -2.416561    1.375379
   5 C     6.0000    0    12.011  -10.147817   -1.120484    3.580334
   6 C     6.0000    0    12.011  -12.012894    2.510210    6.001515
   7 H     1.0000    0     1.008  -10.192554    3.142444    6.782711
   8 H     1.0000    0     1.008  -12.777210    1.222713    7.442765
   9 H     1.0000    0     1.008  -13.247795    4.137628    5.805521
  10 H     1.0000    0     1.008  -13.650165    3.830565    1.290810
  11 H     1.0000    0     1.008  -12.965893    1.496248   -2.681847
  12 H     1.0000    0     1.008  -10.624884   -2.581702   -2.604872
  13 H     1.0000    0     1.008   -8.702876   -4.153050    1.355845
  14 H     1.0000    0     1.008   -9.370329   -1.808657    5.341378
  15 N     7.0000    0    14.007  -17.195122   -1.618100  -26.345293
  16 O     8.0000    0    15.999  -16.460515   -1.735188  -24.097815
  17 O     8.0000    0    15.999  -15.057296   -1.760483  -27.383030

--------------------------------
INTERNAL COORDINATES (ANGSTROEM)
--------------------------------
 C      0   0   0     0.000000000000     0.00000000     0.00000000
 C      1   0   0     1.420341921180     0.00000000     0.00000000
 C      2   1   0     1.371920417462   120.53402102     0.00000000
 C      3   2   1     1.406769687695   119.63972262     0.42680734
 C      4   3   2     1.410856105743   120.85369189   358.05811455
 C      5   4   3     1.367634149905   119.60291974     1.83461547
 C      1   2   3     1.474006094365   121.36884664   181.03460837
 H      7   1   2     1.100335604253   109.77514707   242.71199760
 H      7   1   2     1.099750669340   110.71067759   127.89553137
 H      7   1   2     1.086023442284   113.11490169     4.37896362
 H      2   1   3     1.081037961780   119.01088231   179.99113135
 H      3   2   1     1.080766209878   120.29394202   180.18326374
 H      4   3   2     1.080917541817   119.95772933   176.42609514
 H      5   4   3     1.080452605871   119.71455982   180.99653759
 H      6   5   4     1.081821067444   120.76388715   179.27609956
 N     12   3   2    12.826891172591   149.34040613   186.79328875
 O     16  12   3     1.252766699752    12.94578367   346.57508396
 O     16  12   3     1.259783309136   106.05452936   296.20100393

---------------------------
INTERNAL COORDINATES (A.U.)
---------------------------
 C      0   0   0     0.000000000000     0.00000000     0.00000000
 C      1   0   0     2.684057247559     0.00000000     0.00000000
 C      2   1   0     2.592553866539   120.53402102     0.00000000
 C      3   2   1     2.658409443245   119.63972262     0.42680734
 C      4   3   2     2.666131654225   120.85369189   358.05811455
 C      5   4   3     2.584453994719   119.60291974     1.83461547
 C      1   2   3     2.785467838081   121.36884664   181.03460837
 H      7   1   2     2.079332947441   109.77514707   242.71199760
 H      7   1   2     2.078227580648   110.71067759   127.89553137
 H      7   1   2     2.052286880936   113.11490169     4.37896362
 H      2   1   3     2.042865688136   119.01088231   179.99113135
 H      3   2   1     2.042352151466   120.29394202   180.18326374
 H      4   3   2     2.042638127386   119.95772933   176.42609514
 H      5   4   3     2.041759525778   119.71455982   180.99653759
 H      6   5   4     2.044345543376   120.76388715   179.27609956
 N     12   3   2    24.239311465809   149.34040613   186.79328875
 O     16  12   3     2.367385972227    12.94578367   346.57508396
 O     16  12   3     2.380645442353   106.05452936   296.20100393

---------------------
BASIS SET INFORMATION
---------------------
There are 4 groups of distinct atoms

 Group   1 Type C   : 7s4p1d contracted to 3s2p1d pattern {511/31/1}
 Group   2 Type H   : 4s1p contracted to 2s1p pattern {31/1}
 Group   3 Type N   : 7s4p1d contracted to 3s2p1d pattern {511/31/1}
 Group   4 Type O   : 7s4p1d contracted to 3s2p1d pattern {511/31/1}

Atom   0C    basis set group =>   1
Atom   1C    basis set group =>   1
Atom   2C    basis set group =>   1
Atom   3C    basis set group =>   1
Atom   4C    basis set group =>   1
Atom   5C    basis set group =>   1
Atom   6C    basis set group =>   1
Atom   7H    basis set group =>   2
Atom   8H    basis set group =>   2
Atom   9H    basis set group =>   2
Atom  10H    basis set group =>   2
Atom  11H    basis set group =>   2
Atom  12H    basis set group =>   2
Atom  13H    basis set group =>   2
Atom  14H    basis set group =>   2
Atom  15N    basis set group =>   3
Atom  16O    basis set group =>   4
Atom  17O    basis set group =>   4
---------------------------------
AUXILIARY/J BASIS SET INFORMATION
---------------------------------
There are 4 groups of distinct atoms

 Group   1 Type C   : 12s5p4d2f1g contracted to 6s4p3d1f1g pattern {711111/2111/211/2/1}
 Group   2 Type H   : 5s2p1d contracted to 3s1p1d pattern {311/2/1}
 Group   3 Type N   : 12s5p4d2f1g contracted to 6s4p3d1f1g pattern {711111/2111/211/2/1}
 Group   4 Type O   : 12s5p4d2f1g contracted to 6s4p3d1f1g pattern {711111/2111/211/2/1}

Atom   0C    basis set group =>   1
Atom   1C    basis set group =>   1
Atom   2C    basis set group =>   1
Atom   3C    basis set group =>   1
Atom   4C    basis set group =>   1
Atom   5C    basis set group =>   1
Atom   6C    basis set group =>   1
Atom   7H    basis set group =>   2
Atom   8H    basis set group =>   2
Atom   9H    basis set group =>   2
Atom  10H    basis set group =>   2
Atom  11H    basis set group =>   2
Atom  12H    basis set group =>   2
Atom  13H    basis set group =>   2
Atom  14H    basis set group =>   2
Atom  15N    basis set group =>   3
Atom  16O    basis set group =>   4
Atom  17O    basis set group =>   4
------------------------------------------------------------------------------
                           ORCA GTO INTEGRAL CALCULATION
                           -- RI-GTO INTEGRALS CHOSEN --
------------------------------------------------------------------------------
------------------------------------------------------------------------------
                   ___                                                        
                  /   \      - P O W E R E D   B Y -                         
                 /     \                                                     
                 |  |  |   _    _      __       _____    __    __             
                 |  |  |  | |  | |    /  \     |  _  \  |  |  /  |          
                  \  \/   | |  | |   /    \    | | | |  |  | /  /          
                 / \  \   | |__| |  /  /\  \   | |_| |  |  |/  /          
                |  |  |   |  __  | /  /__\  \  |    /   |      \           
                |  |  |   | |  | | |   __   |  |    \   |  |\   \          
                \     /   | |  | | |  |  |  |  | |\  \  |  | \   \       
                 \___/    |_|  |_| |__|  |__|  |_| \__\ |__|  \__/        
                                                                              
                      - O R C A' S   B I G   F R I E N D -                    
                                      &                                       
                       - I N T E G R A L  F E E D E R -                       
                                                                              
 v1 FN, 2020, v2 2021                                                         
------------------------------------------------------------------------------


Reading SHARK input file educts_optfreq_7.SHARKINP.tmp ... ok
----------------------
SHARK INTEGRAL PACKAGE
----------------------

Number of atoms                             ...     18
Number of basis functions                   ...    180
Number of shells                            ...     84
Maximum angular momentum                    ...      2
Integral batch strategy                     ... SHARK/LIBINT Hybrid
RI-J (if used) integral strategy            ... SPLIT-RIJ (Revised 2003 algorithm where possible)
Printlevel                                  ...      1
Contraction scheme used                     ... SEGMENTED contraction
Coulomb Range Separation                    ... NOT USED
Exchange Range Separation                   ... NOT USED
Finite Nucleus Model                        ... NOT USED
Auxiliary Coulomb fitting basis             ... AVAILABLE
   # of basis functions in Aux-J            ...    578
   # of shells in Aux-J                     ...    190
   Maximum angular momentum in Aux-J        ...      4
Auxiliary J/K fitting basis                 ... NOT available
Auxiliary Correlation fitting basis         ... NOT available
Auxiliary 'external' fitting basis          ... NOT available
Integral threshold                          ...     2.500000e-11
Primitive cut-off                           ...     2.500000e-12
Primitive pair pre-selection threshold      ...     2.500000e-12

Calculating pre-screening integrals         ... done (  0.2 sec) Dimension = 84
Organizing shell pair data                  ... done (  0.1 sec)
Shell pair information
Total number of shell pairs                 ...      3570
Shell pairs after pre-screening             ...      2302
Total number of primitive shell pairs       ...     13034
Primitive shell pairs kept                  ...      6367
          la=0 lb=0:    721 shell pairs
          la=1 lb=0:    837 shell pairs
          la=1 lb=1:    262 shell pairs
          la=2 lb=0:    280 shell pairs
          la=2 lb=1:    168 shell pairs
          la=2 lb=2:     34 shell pairs

Calculating one electron integrals          ... done (  0.1 sec)
Calculating RI/J V-Matrix + Cholesky decomp.... done (  0.1 sec)
Calculating Nuclear repulsion               ... done (  0.0 sec) ENN=    374.941758619739 Eh

SHARK setup successfully completed in   0.8 seconds

Maximum memory used throughout the entire GTOINT-calculation: 19.4 MB
-------------------------------------------------------------------------------
                                 ORCA SCF
-------------------------------------------------------------------------------

------------
SCF SETTINGS
------------
Hamiltonian:
 Density Functional     Method          .... DFT(GTOs)
 Exchange Functional    Exchange        .... B88
   X-Alpha parameter    XAlpha          ....  0.666667
   Becke's b parameter  XBeta           ....  0.004200
 Correlation Functional Correlation     .... LYP
 LDA part of GGA corr.  LDAOpt          .... VWN-5
 Gradients option       PostSCFGGA      .... off
 Hybrid DFT is turned on
   Fraction HF Exchange ScalHFX         ....  0.200000
   Scaling of DF-GGA-X  ScalDFX         ....  0.720000
   Scaling of DF-GGA-C  ScalDFC         ....  0.810000
   Scaling of DF-LDA-C  ScalLDAC        ....  1.000000
   Perturbative correction              ....  0.000000
   Density functional embedding theory  .... OFF
   NL short-range parameter             ....  4.800000
 RI-approximation to the Coulomb term is turned on
   Number of AuxJ basis functions       .... 578
   RIJ-COSX (HFX calculated with COS-X)).... on


General Settings:
 Integral files         IntName         .... educts_optfreq_7
 Hartree-Fock type      HFTyp           .... RHF
 Total Charge           Charge          ....    1
 Multiplicity           Mult            ....    1
 Number of Electrons    NEL             ....   72
 Basis Dimension        Dim             ....  180
 Nuclear Repulsion      ENuc            ....    374.9417586197 Eh

Convergence Acceleration:
 DIIS                   CNVDIIS         .... on
   Start iteration      DIISMaxIt       ....    12
   Startup error        DIISStart       ....  0.200000
   # of expansion vecs  DIISMaxEq       ....     5
   Bias factor          DIISBfac        ....   1.050
   Max. coefficient     DIISMaxC        ....  10.000
 Trust-Rad. Augm. Hess. CNVTRAH         .... auto
   Auto Start mean grad. ratio tolernc. ....  1.125000
   Auto Start start iteration           ....    20
   Auto Start num. interpolation iter.  ....    10
   Max. Number of Micro iterations      ....    16
   Max. Number of Macro iterations      .... Maxiter - #DIIS iter
   Number of Davidson start vectors     ....     2
   Converg. threshold I  (grad. norm)   ....   1.000e-05
   Converg. threshold II (energy diff.) ....   1.000e-08
   Grad. Scal. Fac. for Micro threshold ....   0.100
   Minimum threshold for Micro iter.    ....   0.010
   NR start threshold (gradient norm)   ....   0.001
   Initial trust radius                 ....   0.400
   Minimum AH scaling param. (alpha)    ....   1.000
   Maximum AH scaling param. (alpha)    .... 1000.000
   Orbital update algorithm             .... Taylor
   White noise on init. David. guess    .... on
   Maximum white noise                  ....   0.010
   Quad. conv. algorithm                .... NR
 SOSCF                  CNVSOSCF        .... on
   Start iteration      SOSCFMaxIt      ....   150
   Startup grad/error   SOSCFStart      ....  0.003300
 Level Shifting         CNVShift        .... on
   Level shift para.    LevelShift      ....    0.2500
   Turn off err/grad.   ShiftErr        ....    0.0010
 Zerner damping         CNVZerner       .... off
 Static damping         CNVDamp         .... on
   Fraction old density DampFac         ....    0.7000
   Max. Damping (<1)    DampMax         ....    0.9800
   Min. Damping (>=0)   DampMin         ....    0.0000
   Turn off err/grad.   DampErr         ....    0.1000
 Fernandez-Rico         CNVRico         .... off

SCF Procedure:
 Maximum # iterations   MaxIter         ....   125
 SCF integral mode      SCFMode         .... Direct
   Integral package                     .... SHARK and LIBINT hybrid scheme
 Reset frequency        DirectResetFreq ....    20
 Integral Threshold     Thresh          ....  2.500e-11 Eh
 Primitive CutOff       TCut            ....  2.500e-12 Eh

Convergence Tolerance:
 Convergence Check Mode ConvCheckMode   .... Total+1el-Energy
 Convergence forced     ConvForced      .... 0
 Energy Change          TolE            ....  1.000e-08 Eh
 1-El. energy change                    ....  1.000e-05 Eh
 Orbital Gradient       TolG            ....  1.000e-05
 Orbital Rotation angle TolX            ....  1.000e-05
 DIIS Error             TolErr          ....  5.000e-07


Diagonalization of the overlap matrix:
Smallest eigenvalue                        ... 3.073e-04
Time for diagonalization                   ...    0.012 sec
Threshold for overlap eigenvalues          ... 1.000e-08
Number of eigenvalues below threshold      ... 0
Time for construction of square roots      ...    0.024 sec
Total time needed                          ...    0.037 sec

Time for model grid setup =    0.818 sec

------------------------------
INITIAL GUESS: MODEL POTENTIAL
------------------------------
Loading Hartree-Fock densities                     ... done
Calculating cut-offs                               ... done
Initializing the effective Hamiltonian             ... done
Setting up the integral package (SHARK)            ... done
Starting the Coulomb interaction                   ... done (   0.8 sec)
Reading the grid                                   ... done
Mapping shells                                     ... done
Starting the XC term evaluation                    ... done (   0.7 sec)
  promolecular density results
     # of electrons  =     72.997523964
     EX              =    -61.223475835
     EC              =     -2.467417745
     EX+EC           =    -63.690893580
Transforming the Hamiltonian                       ... done (   0.0 sec)
Diagonalizing the Hamiltonian                      ... done (   0.0 sec)
Back transforming the eigenvectors                 ... done (   0.0 sec)
Now organizing SCF variables                       ... done
                      ------------------
                      INITIAL GUESS DONE (   2.4 sec)
                      ------------------
-------------------
DFT GRID GENERATION
-------------------

General Integration Accuracy     IntAcc      ... 4.388
Radial Grid Type                 RadialGrid  ... OptM3 with GC (2021)
Angular Grid (max. ang.)         AngularGrid ... 4 (Lebedev-302)
Angular grid pruning method      GridPruning ... 4 (adaptive)
Weight generation scheme         WeightScheme... Becke
Basis function cutoff            BFCut       ... 1.0000e-11
Integration weight cutoff        WCut        ... 1.0000e-14
Angular grids for H and He will be reduced by one unit
Partially contracted basis set               ... off
Rotationally invariant grid construction     ... off

Total number of grid points                  ...    86323
Total number of batches                      ...     1359
Average number of points per batch           ...       63
Average number of grid points per atom       ...     4796
Time for grid setup =    3.918 sec

--------------------
COSX GRID GENERATION
--------------------

GRIDX 1
-------
General Integration Accuracy     IntAcc      ... 3.816
Radial Grid Type                 RadialGrid  ... OptM3 with GC (2021)
Angular Grid (max. ang.)         AngularGrid ... 1 (Lebedev-50)
Angular grid pruning method      GridPruning ... 4 (adaptive)
Weight generation scheme         WeightScheme... Becke
Basis function cutoff            BFCut       ... 1.0000e-11
Integration weight cutoff        WCut        ... 1.0000e-14
Angular grids for H and He will be reduced by one unit
Partially contracted basis set               ... on
Rotationally invariant grid construction     ... off

Total number of grid points                  ...    11022
Total number of batches                      ...      179
Average number of points per batch           ...       61
Average number of grid points per atom       ...      612
UseSFitting                                  ... on

GRIDX 2
-------
General Integration Accuracy     IntAcc      ... 4.020
Radial Grid Type                 RadialGrid  ... OptM3 with GC (2021)
Angular Grid (max. ang.)         AngularGrid ... 2 (Lebedev-110)
Angular grid pruning method      GridPruning ... 4 (adaptive)
Weight generation scheme         WeightScheme... Becke
Basis function cutoff            BFCut       ... 1.0000e-11
Integration weight cutoff        WCut        ... 1.0000e-14
Angular grids for H and He will be reduced by one unit
Partially contracted basis set               ... on
Rotationally invariant grid construction     ... off

Total number of grid points                  ...    24380
Total number of batches                      ...      388
Average number of points per batch           ...       62
Average number of grid points per atom       ...     1354
UseSFitting                                  ... on

GRIDX 3
-------
General Integration Accuracy     IntAcc      ... 4.338
Radial Grid Type                 RadialGrid  ... OptM3 with GC (2021)
Angular Grid (max. ang.)         AngularGrid ... 3 (Lebedev-194)
Angular grid pruning method      GridPruning ... 4 (adaptive)
Weight generation scheme         WeightScheme... Becke
Basis function cutoff            BFCut       ... 1.0000e-11
Integration weight cutoff        WCut        ... 1.0000e-14
Angular grids for H and He will be reduced by one unit
Partially contracted basis set               ... on
Rotationally invariant grid construction     ... off

Total number of grid points                  ...    53759
Total number of batches                      ...      849
Average number of points per batch           ...       63
Average number of grid points per atom       ...     2987
UseSFitting                                  ... on

Time for X-Grid setup             =    3.264 sec

--------------
SCF ITERATIONS
--------------
ITER       Energy         Delta-E        Max-DP      RMS-DP      [F,P]     Damp
               ***  Starting incremental Fock matrix formation  ***
  0   -475.2338951942   0.000000000000 0.26503480  0.00450807  0.1661058 0.7000
  1   -475.3314433598  -0.097548165523 0.07730166  0.00175111  0.1065210 0.7000
                               ***Turning on DIIS***
  2   -475.4559742882  -0.124530928479 0.18326424  0.00369549  0.0317471 0.0000
  3   -475.3954962951   0.060477993173 0.00905142  0.00022237  0.1282570 0.7000
  4   -475.4041953108  -0.008699015775 0.00907857  0.00022734  0.1193446 0.7000
  5   -475.4119156498  -0.007720338975 0.00896603  0.00020862  0.1108193 0.7000
  6   -475.4184689696  -0.006553319778 0.00958970  0.00020869  0.1010442 0.7000
  7   -475.4244401376  -0.005971168021 0.57846130  0.00875221  0.0887555 0.0000
  8   -474.8548111479   0.569628989668 0.00657436  0.00015181  0.3422554 0.7000
  9   -474.8722126783  -0.017401530310 0.00922195  0.00019671  0.3312583 0.7000
 10   -474.8937254542  -0.021512775963 0.00897928  0.00020944  0.3167579 0.7000
 11   -474.9155747221  -0.021849267875 0.00735180  0.00019234  0.3028662 0.7000
 12   -474.9349402403  -0.019365518171 0.24675304  0.00581413  0.2919290 0.7000
 13   -475.1040676563  -0.169127416050 0.39736336  0.00746743  0.0593091 0.0000
 14   -475.2783067805  -0.174239124231 0.01764617  0.00037014  0.2616303 0.7000
 15   -475.3096877850  -0.031381004435 0.02301875  0.00041539  0.2366018 0.7000
 16   -475.3400453376  -0.030357552632 0.02025206  0.00036660  0.2088301 0.7000
 17   -475.3632128894  -0.023167551757 0.16680675  0.00269234  0.1853608 0.7000
 18   -475.5630709812  -0.199858091829 0.35227238  0.00615603  0.0748785 0.0000
 19   -474.9994249660   0.563646015153 0.01426460  0.00027691  0.2939050 0.7000
               *** Restarting incremental Fock matrix formation ***
                                   *** Resetting DIIS ***

 WARNING: the maximum gradient error descreased on average only by a factor   1.0
          during the last 20 iterations

                      *** Initiating the TRAH-SCF procedure ***


TRAH GRIDX
----------

General Integration Accuracy     IntAcc      ... 3.067
Radial Grid Type                 RadialGrid  ... OptM3 with GC (2021)
Angular Grid (max. ang.)         AngularGrid ... 1 (Lebedev-50)
Angular grid pruning method      GridPruning ... 4 (adaptive)
Weight generation scheme         WeightScheme... Becke
Basis function cutoff            BFCut       ... 1.0000e-11
Integration weight cutoff        WCut        ... 1.0000e-14
Angular grids for H and He will be reduced by one unit
Partially contracted basis set               ... on
Rotationally invariant grid construction     ... off

Total number of grid points                  ...     5821
Total number of batches                      ...      102
Average number of points per batch           ...       57
Average number of grid points per atom       ...      323


TRAH GRID
---------

General Integration Accuracy     IntAcc      ... 3.467
Radial Grid Type                 RadialGrid  ... OptM3 with GC (2021)
Angular Grid (max. ang.)         AngularGrid ... 1 (Lebedev-50)
Angular grid pruning method      GridPruning ... 4 (adaptive)
Weight generation scheme         WeightScheme... Becke
Basis function cutoff            BFCut       ... 1.0000e-11
Integration weight cutoff        WCut        ... 1.0000e-14
Angular grids for H and He will be reduced by one unit
Partially contracted basis set               ... off
Rotationally invariant grid construction     ... off

Total number of grid points                  ...    12719
Total number of batches                      ...      208
Average number of points per batch           ...       61
Average number of grid points per atom       ...      707

 --------------------------------------------------------------------------------------------
   Iter.        energy            ||Error||_2        Shift      TRadius  Mac/Mic        Rej.
 --------------------------------------------------------------------------------------------
WARNING: 122 diagonal Hessian elements are negative!
    0       -475.058724657115     1.739765e+00                     0.400 (TRAH MAcro)   No
WARNING : negative HOMO - LUMO gap : -0.878608
    0     dE    -1.401077e-01     8.595873e-01    -2.7342e-01      0.158 (TRAH MIcro)
    0     dE    -2.066912e-01     3.241294e+00    -4.7437e-01      0.400 (TRAH MIcro)
    0     dE    -1.372402e-01     3.667440e-01    -4.8690e+00      0.122 (TRAH MIcro)
    0     dE    -1.399858e-01     5.409292e-02    -4.9429e+00      0.123 (TRAH MIcro)
    0     dE    -1.400248e-01     6.623112e-03    -4.9456e+00      0.123 (TRAH MIcro)
WARNING: 79 diagonal Hessian elements are negative!
    1       -475.198204130194     5.939105e-01                     0.480 (TRAH MAcro)   No
WARNING : negative HOMO - LUMO gap : -0.700555
    1     dE    -1.978152e-02     2.454616e-01    -3.9390e-02      0.066 (TRAH MIcro)
    1     dE    -2.624440e-02     2.911121e-01    -5.1760e-02      0.119 (TRAH MIcro)
    1     dE    -2.311887e-02     7.319400e-02    -2.6557e+00      0.067 (TRAH MIcro)
    1     dE    -2.394022e-02     2.407582e-02    -2.6934e+00      0.070 (TRAH MIcro)
    1     dE    -2.485282e-02     2.324234e-02    -2.6983e+00      0.074 (TRAH MIcro)
    1     dE    -1.798780e-02     2.056866e-02    -6.6562e+00      0.042 (TRAH MIcro)
    1     dE    -1.800049e-02     8.612146e-03    -6.6599e+00      0.042 (TRAH MIcro)
WARNING: 73 diagonal Hessian elements are negative!
    2       -475.216196366807     2.806434e-01                     0.576 (TRAH MAcro)   No
WARNING : negative HOMO - LUMO gap : -0.651201
    2     dE    -5.698851e-03     1.529892e-01    -1.1379e-02      0.041 (TRAH MIcro)
    2     dE    -8.610787e-03     1.819649e-01    -1.7100e-02      0.084 (TRAH MIcro)
    2     dE    -7.164126e-02     1.414741e+00    -1.3477e+00      0.306 (TRAH MIcro)
    2     dE    -8.618935e-03     3.769479e-02    -2.6522e+00      0.054 (TRAH MIcro)
    2     dE    -7.353594e-03     1.579001e-02    -2.6834e+00      0.043 (TRAH MIcro)
    2     dE    -6.920491e-03     5.795247e-03    -2.6896e+00      0.039 (TRAH MIcro)
WARNING: 67 diagonal Hessian elements are negative!
    3       -475.223106215984     1.042640e-01                     0.691 (TRAH MAcro)   No
WARNING : negative HOMO - LUMO gap : -0.620788
    3     dE    -2.056177e-03     4.705081e-01    -4.1006e-03      0.053 (TRAH MIcro)
    3     dE    -5.589785e-01     9.715424e-01    -2.2933e+00      0.691 (TRAH MIcro)
    3     dE    -1.477870e-01     1.013436e-01    -2.5660e+00      0.334 (TRAH MIcro)
    3     dE    -1.558526e-01     2.426345e-02    -2.5750e+00      0.343 (TRAH MIcro)
    3     dE    -1.555494e-01     5.590258e-03    -2.5755e+00      0.342 (TRAH MIcro)
WARNING: 31 diagonal Hessian elements are negative!
    4       -475.352052224810     6.552500e-01                     0.829 (TRAH MAcro)   No
WARNING : negative HOMO - LUMO gap : -0.359140
    4     dE    -3.744014e-01     3.072926e+00    -4.8241e-01      0.743 (TRAH MIcro)
    4     dE    -7.006688e-01     8.084783e-01    -1.2780e+00      0.829 (TRAH MIcro)
    4     dE    -7.171025e-01     2.378171e-01    -1.3297e+00      0.829 (TRAH MIcro)
    4     dE    -7.195985e-01     1.341629e-01    -1.3404e+00      0.829 (TRAH MIcro)
    4     dE    -7.211776e-01     1.922262e-01    -1.3588e+00      0.829 (TRAH MIcro)
    4     dE    -5.241166e-01     2.607207e-02    -1.5615e+00      0.644 (TRAH MIcro)
    4     dE    -5.241509e-01     2.688840e-03    -1.5616e+00      0.644 (TRAH MIcro)
WARNING: 2 diagonal Hessian elements are negative!
    5       -475.572625588857     6.943676e-01                     0.829 (TRAH MAcro)   No
WARNING : negative HOMO - LUMO gap : -0.071164
    5     dE    -2.395081e-02     3.236848e-01    -4.7677e-02      0.069 (TRAH MIcro)
    5     dE    -3.061706e-02     8.628771e-02    -6.0496e-02      0.110 (TRAH MIcro)
    5     dE    -3.099248e-02     4.040033e-02    -6.1196e-02      0.114 (TRAH MIcro)
    5     dE    -3.110023e-02     1.659771e-02    -6.1387e-02      0.115 (TRAH MIcro)
    5     dE    -3.112527e-02     6.704866e-03    -6.1435e-02      0.115 (TRAH MIcro)
    6       -475.602625899942     3.704699e-02                     0.995 (TRAH MAcro)   No
WARNING : small    HOMO - LUMO gap : 0.009817
    6     dE    -1.563446e-04     4.411086e-02    -3.1267e-04      0.009 (TRAH MIcro)
    6     dE    -1.902139e-04     3.356678e-02    -3.8038e-04      0.011 (TRAH MIcro)
    6     dE    -2.823081e-04     2.793573e-02    -5.6440e-04      0.020 (TRAH MIcro)
    6     dE    -3.362090e-04     1.177299e-02    -6.7200e-04      0.025 (TRAH MIcro)
    6     dE    -3.502050e-04     6.917748e-03    -6.9982e-04      0.029 (TRAH MIcro)
    6     dE    -3.565909e-04     4.679079e-03    -7.1242e-04      0.033 (TRAH MIcro)
    6     dE    -3.579156e-04     2.227617e-03    -7.1501e-04      0.034 (TRAH MIcro)
    7       -475.602977314168     2.834479e-03                     1.194 (TRAH MAcro)   No
WARNING : small    HOMO - LUMO gap : 0.007147
    7     dE    -1.867348e-07     3.484644e-03    -3.7348e-07      0.000 (TRAH MIcro)
    7     dE    -3.404223e-07     2.845434e-03    -6.8085e-07      0.000 (TRAH MIcro)
    7     dE    -5.268507e-07     1.916696e-03    -1.0537e-06      0.001 (TRAH MIcro)
    7     dE    -8.186214e-07     1.383786e-03    -1.6372e-06      0.001 (TRAH MIcro)
    7     dE    -9.561303e-07     6.735509e-04    -1.9123e-06      0.002 (TRAH MIcro)
    7     dE    -9.857711e-07     3.440564e-04    -1.9715e-06      0.002 (TRAH MIcro)
    7     dE    -9.952088e-07     1.137632e-04    -1.9904e-06      0.002 (TRAH MIcro)
    8       -475.602978307307     1.137687e-04                           (NR   MAcro)
WARNING : small    HOMO - LUMO gap : 0.007175
    8     dE    -1.076243e-10     9.707874e-05                           (NR   MIcro)
    8     dE    -1.032809e-09     4.726546e-05                           (NR   MIcro)
    8     dE    -1.197090e-09     2.708754e-05                           (NR   MIcro)
    8     dE    -1.243822e-09     1.594806e-05                           (NR   MIcro)
    8     dE    -1.270372e-09     7.509569e-06                           (NR   MIcro)
    8     dE    -1.277351e-09     4.574965e-06                           (NR   MIcro)
    8     dE    -1.280097e-09     2.616805e-06                           (NR   MIcro)
    8     dE    -1.280576e-09     7.993092e-07                           (NR   MIcro)
    9       -475.602978308756     8.100695e-07                           (NR   MAcro)
WARNING : small    HOMO - LUMO gap : 0.007175

               *****************************************************
               *                     SUCCESS                       *
               *           SCF CONVERGED AFTER  87 CYCLES          *
               *****************************************************

Old exchange energy                            =    -12.265899582 Eh
New exchange energy                            =    -12.265886395 Eh
Exchange energy change after final integration =      0.000013188 Eh
Total energy after final integration           =   -475.602965121 Eh
Final COS-X integration done in                =    42.934 sec

----------------
TOTAL SCF ENERGY
----------------

Total Energy       :         -475.60296512 Eh          -12941.81463 eV

Components:
Nuclear Repulsion  :          374.94175862 Eh           10202.68395 eV
Electronic Energy  :         -850.54472374 Eh          -23144.49858 eV
One Electron Energy:        -1375.79992398 Eh          -37437.41921 eV
Two Electron Energy:          525.25520024 Eh           14292.92064 eV
Max COSX asymmetry :            0.00000261 Eh               0.00007 eV

Virial components:
Potential Energy   :         -947.46172870 Eh          -25781.74436 eV
Kinetic Energy     :          471.85876358 Eh           12839.92973 eV
Virial Ratio       :            2.00793500


DFT components:
N(Alpha)           :       36.000015224951 electrons
N(Beta)            :       36.000015224951 electrons
N(Total)           :       72.000030449902 electrons
E(X)               :      -48.991091534298 Eh       
E(C)               :       -2.879008431069 Eh       
E(XC)              :      -51.870099965367 Eh       
DFET-embed. en.    :        0.000000000000 Eh       

---------------
SCF CONVERGENCE
---------------

  Last Energy change         ...   -1.4491e-09  Tolerance :   1.0000e-08
  Last Orbital Gradient      ...    8.1007e-07  Tolerance :   1.0000e-05
  Last Orbital Rotation      ...    5.1484e-05

             **** THE GBW FILE WAS UPDATED (educts_optfreq_7.gbw) ****
             **** DENSITY educts_optfreq_7.scfp WAS UPDATED ****
             **** ENERGY FILE WAS UPDATED (educts_optfreq_7.en.tmp) ****
             **** THE GBW FILE WAS UPDATED (educts_optfreq_7.gbw) ****
             **** DENSITY educts_optfreq_7.scfp WAS UPDATED ****
----------------
ORBITAL ENERGIES
----------------

  NO   OCC          E(Eh)            E(eV) 
   0   2.0000     -19.386172      -527.5246 
   1   2.0000     -19.384535      -527.4800 
   2   2.0000     -14.648758      -398.6130 
   3   2.0000     -10.393823      -282.8303 
   4   2.0000     -10.381108      -282.4843 
   5   2.0000     -10.361088      -281.9395 
   6   2.0000     -10.359534      -281.8973 
   7   2.0000     -10.358961      -281.8816 
   8   2.0000     -10.357040      -281.8294 
   9   2.0000     -10.336381      -281.2672 
  10   2.0000      -1.394911       -37.9575 
  11   2.0000      -1.156720       -31.4760 
  12   2.0000      -1.027403       -27.9571 
  13   2.0000      -0.938261       -25.5314 
  14   2.0000      -0.913685       -24.8626 
  15   2.0000      -0.842865       -22.9355 
  16   2.0000      -0.786769       -21.4091 
  17   2.0000      -0.769651       -20.9433 
  18   2.0000      -0.748034       -20.3551 
  19   2.0000      -0.677171       -18.4268 
  20   2.0000      -0.660608       -17.9761 
  21   2.0000      -0.658961       -17.9313 
  22   2.0000      -0.649805       -17.6821 
  23   2.0000      -0.636005       -17.3066 
  24   2.0000      -0.613410       -16.6917 
  25   2.0000      -0.592154       -16.1133 
  26   2.0000      -0.577717       -15.7205 
  27   2.0000      -0.576730       -15.6936 
  28   2.0000      -0.542648       -14.7662 
  29   2.0000      -0.521277       -14.1847 
  30   2.0000      -0.515603       -14.0303 
  31   2.0000      -0.505352       -13.7513 
  32   2.0000      -0.483451       -13.1554 
  33   2.0000      -0.451653       -12.2901 
  34   2.0000      -0.428162       -11.6509 
  35   2.0000      -0.396986       -10.8025 
  36   0.0000      -0.389811       -10.6073 
  37   0.0000      -0.228035        -6.2051 
  38   0.0000      -0.183194        -4.9850 
  39   0.0000      -0.168132        -4.5751 
  40   0.0000      -0.069826        -1.9001 
  41   0.0000      -0.046724        -1.2714 
  42   0.0000      -0.036479        -0.9927 
  43   0.0000      -0.031701        -0.8626 
  44   0.0000      -0.010598        -0.2884 
  45   0.0000       0.004130         0.1124 
  46   0.0000       0.019930         0.5423 
  47   0.0000       0.027644         0.7522 
  48   0.0000       0.035018         0.9529 
  49   0.0000       0.078365         2.1324 
  50   0.0000       0.087405         2.3784 
  51   0.0000       0.129711         3.5296 
  52   0.0000       0.140942         3.8352 
  53   0.0000       0.142737         3.8841 
  54   0.0000       0.160303         4.3621 
  55   0.0000       0.168018         4.5720 
  56   0.0000       0.197182         5.3656 
  57   0.0000       0.239353         6.5131 
  58   0.0000       0.259027         7.0485 
  59   0.0000       0.262866         7.1530 
  60   0.0000       0.281117         7.6496 
  61   0.0000       0.288638         7.8542 
  62   0.0000       0.302072         8.2198 
  63   0.0000       0.321063         8.7366 
  64   0.0000       0.333588         9.0774 
  65   0.0000       0.342340         9.3155 
  66   0.0000       0.379718        10.3327 
  67   0.0000       0.383147        10.4260 
  68   0.0000       0.404607        11.0099 
  69   0.0000       0.415668        11.3109 
  70   0.0000       0.443776        12.0758 
  71   0.0000       0.458103        12.4656 
  72   0.0000       0.475632        12.9426 
  73   0.0000       0.490363        13.3434 
  74   0.0000       0.493449        13.4274 
  75   0.0000       0.503406        13.6984 
  76   0.0000       0.525635        14.3033 
  77   0.0000       0.526109        14.3162 
  78   0.0000       0.533669        14.5219 
  79   0.0000       0.545418        14.8416 
  80   0.0000       0.548840        14.9347 
  81   0.0000       0.552062        15.0224 
  82   0.0000       0.562982        15.3195 
  83   0.0000       0.566490        15.4150 
  84   0.0000       0.572888        15.5891 
  85   0.0000       0.578572        15.7438 
  86   0.0000       0.587808        15.9951 
  87   0.0000       0.595679        16.2092 
  88   0.0000       0.632173        17.2023 
  89   0.0000       0.662646        18.0315 
  90   0.0000       0.687587        18.7102 
  91   0.0000       0.718021        19.5383 
  92   0.0000       0.745285        20.2802 
  93   0.0000       0.756341        20.5811 
  94   0.0000       0.792329        21.5604 
  95   0.0000       0.804704        21.8971 
  96   0.0000       0.813335        22.1320 
  97   0.0000       0.823780        22.4162 
  98   0.0000       0.893235        24.3062 
  99   0.0000       0.929791        25.3009 
 100   0.0000       0.932577        25.3767 
 101   0.0000       0.966970        26.3126 
 102   0.0000       0.998980        27.1836 
 103   0.0000       1.050001        28.5720 
 104   0.0000       1.072895        29.1950 
 105   0.0000       1.085316        29.5329 
 106   0.0000       1.102204        29.9925 
 107   0.0000       1.119973        30.4760 
 108   0.0000       1.139228        31.0000 
 109   0.0000       1.144289        31.1377 
 110   0.0000       1.167784        31.7770 
 111   0.0000       1.316499        35.8238 
 112   0.0000       1.355584        36.8873 
 113   0.0000       1.372632        37.3512 
 114   0.0000       1.399077        38.0708 
 115   0.0000       1.484842        40.4046 
 116   0.0000       1.525908        41.5221 
 117   0.0000       1.530557        41.6486 
 118   0.0000       1.563587        42.5474 
 119   0.0000       1.574276        42.8382 
 120   0.0000       1.586703        43.1764 
 121   0.0000       1.592519        43.3347 
 122   0.0000       1.607222        43.7347 
 123   0.0000       1.617470        44.0136 
 124   0.0000       1.625266        44.2257 
 125   0.0000       1.626891        44.2700 
 126   0.0000       1.654883        45.0316 
 127   0.0000       1.661850        45.2212 
 128   0.0000       1.672885        45.5215 
 129   0.0000       1.688501        45.9464 
 130   0.0000       1.709867        46.5279 
 131   0.0000       1.735046        47.2130 
 132   0.0000       1.761193        47.9245 
 133   0.0000       1.791971        48.7620 
 134   0.0000       1.825081        49.6630 
 135   0.0000       1.835536        49.9475 
 136   0.0000       1.872128        50.9432 
 137   0.0000       1.895943        51.5912 
 138   0.0000       1.902079        51.7582 
 139   0.0000       1.961199        53.3669 
 140   0.0000       1.973158        53.6924 
 141   0.0000       1.979682        53.8699 
 142   0.0000       2.014572        54.8193 
 143   0.0000       2.068317        56.2818 
 144   0.0000       2.110899        57.4405 
 145   0.0000       2.132922        58.0398 
 146   0.0000       2.148389        58.4606 
 147   0.0000       2.170656        59.0665 
 148   0.0000       2.204420        59.9853 
 149   0.0000       2.255915        61.3866 
 150   0.0000       2.296756        62.4979 
 151   0.0000       2.311436        62.8974 
 152   0.0000       2.320031        63.1313 
 153   0.0000       2.335997        63.5657 
 154   0.0000       2.410956        65.6054 
 155   0.0000       2.434315        66.2411 
 156   0.0000       2.440884        66.4198 
 157   0.0000       2.442355        66.4598 
 158   0.0000       2.452412        66.7335 
 159   0.0000       2.472225        67.2727 
 160   0.0000       2.482947        67.5644 
 161   0.0000       2.502014        68.0833 
 162   0.0000       2.583541        70.3017 
 163   0.0000       2.586226        70.3748 
 164   0.0000       2.594968        70.6127 
 165   0.0000       2.685288        73.0704 
 166   0.0000       2.715152        73.8830 
 167   0.0000       2.732802        74.3633 
 168   0.0000       2.737614        74.4943 
 169   0.0000       2.789085        75.8949 
 170   0.0000       2.821969        76.7897 
 171   0.0000       2.899859        78.9092 
 172   0.0000       2.933258        79.8180 
 173   0.0000       2.954106        80.3853 
 174   0.0000       2.994477        81.4838 
 175   0.0000       3.103970        84.4633 
 176   0.0000       3.142099        85.5008 
 177   0.0000       3.325143        90.4817 
 178   0.0000       3.464633        94.2775 
 179   0.0000       3.516537        95.6898 

                    ********************************
                    * MULLIKEN POPULATION ANALYSIS *
                    ********************************

-----------------------
MULLIKEN ATOMIC CHARGES
-----------------------
   0 C :   -0.036025
   1 C :    0.047290
   2 C :    0.060137
   3 C :    0.088287
   4 C :    0.054756
   5 C :    0.049654
   6 C :    0.076407
   7 H :    0.089381
   8 H :    0.083807
   9 H :    0.057008
  10 H :    0.029610
  11 H :    0.042355
  12 H :    0.055552
  13 H :    0.043618
  14 H :    0.030513
  15 N :    0.304714
  16 O :   -0.039634
  17 O :   -0.037430
Sum of atomic charges:    1.0000000

--------------------------------
MULLIKEN REDUCED ORBITAL CHARGES
--------------------------------
  0 C s       :     3.127424  s :     3.127424
      pz      :     1.031492  p :     2.863289
      px      :     0.864186
      py      :     0.967611
      dz2     :     0.011901  d :     0.045312
      dxz     :     0.008901
      dyz     :     0.011847
      dx2y2   :     0.006271
      dxy     :     0.006391
  1 C s       :     3.209066  s :     3.209066
      pz      :     0.934602  p :     2.709669
      px      :     0.907055
      py      :     0.868011
      dz2     :     0.010590  d :     0.033975
      dxz     :     0.006690
      dyz     :     0.009227
      dx2y2   :     0.003217
      dxy     :     0.004251
  2 C s       :     3.172363  s :     3.172363
      pz      :     0.900605  p :     2.732448
      px      :     0.909695
      py      :     0.922148
      dz2     :     0.009266  d :     0.035052
      dxz     :     0.006136
      dyz     :     0.009844
      dx2y2   :     0.004557
      dxy     :     0.005248
  3 C s       :     3.193840  s :     3.193840
      pz      :     0.922825  p :     2.682173
      px      :     0.848815
      py      :     0.910532
      dz2     :     0.008606  d :     0.035700
      dxz     :     0.005557
      dyz     :     0.010561
      dx2y2   :     0.005705
      dxy     :     0.005270
  4 C s       :     3.168592  s :     3.168592
      pz      :     0.946049  p :     2.741744
      px      :     0.907623
      py      :     0.888072
      dz2     :     0.010650  d :     0.034908
      dxz     :     0.006979
      dyz     :     0.009454
      dx2y2   :     0.003426
      dxy     :     0.004400
  5 C s       :     3.216400  s :     3.216400
      pz      :     0.870164  p :     2.700008
      px      :     0.907795
      py      :     0.922048
      dz2     :     0.009396  d :     0.033938
      dxz     :     0.006236
      dyz     :     0.009003
      dx2y2   :     0.004114
      dxy     :     0.005189
  6 C s       :     2.947995  s :     2.947995
      pz      :     0.943311  p :     2.948666
      px      :     1.013653
      py      :     0.991701
      dz2     :     0.005788  d :     0.026933
      dxz     :     0.004044
      dyz     :     0.007483
      dx2y2   :     0.003642
      dxy     :     0.005976
  7 H s       :     0.885425  s :     0.885425
      pz      :     0.006398  p :     0.025194
      px      :     0.012444
      py      :     0.006351
  8 H s       :     0.891372  s :     0.891372
      pz      :     0.009765  p :     0.024821
      px      :     0.006900
      py      :     0.008156
  9 H s       :     0.919157  s :     0.919157
      pz      :     0.003999  p :     0.023835
      px      :     0.008550
      py      :     0.011286
 10 H s       :     0.946855  s :     0.946855
      pz      :     0.003229  p :     0.023534
      px      :     0.007397
      py      :     0.012909
 11 H s       :     0.934097  s :     0.934097
      pz      :     0.012950  p :     0.023549
      px      :     0.005589
      py      :     0.005010
 12 H s       :     0.921181  s :     0.921181
      pz      :     0.012574  p :     0.023267
      px      :     0.003601
      py      :     0.007092
 13 H s       :     0.932801  s :     0.932801
      pz      :     0.003256  p :     0.023581
      px      :     0.007422
      py      :     0.012902
 14 H s       :     0.945967  s :     0.945967
      pz      :     0.012717  p :     0.023520
      px      :     0.005771
      py      :     0.005032
 15 N s       :     3.767644  s :     3.767644
      pz      :     0.859329  p :     2.838602
      px      :     1.135926
      py      :     0.843347
      dz2     :     0.022744  d :     0.089040
      dxz     :     0.026069
      dyz     :     0.015696
      dx2y2   :     0.012527
      dxy     :     0.012005
 16 O s       :     3.909715  s :     3.909715
      pz      :     1.125172  p :     4.107940
      px      :     1.426796
      py      :     1.555972
      dz2     :     0.008976  d :     0.021979
      dxz     :     0.006551
      dyz     :     0.005573
      dx2y2   :     0.000390
      dxy     :     0.000489
 17 O s       :     3.913759  s :     3.913759
      pz      :     1.249068  p :     4.102071
      px      :     1.291690
      py      :     1.561313
      dz2     :     0.003606  d :     0.021600
      dxz     :     0.006490
      dyz     :     0.001417
      dx2y2   :     0.005572
      dxy     :     0.004514


                     *******************************
                     * LOEWDIN POPULATION ANALYSIS *
                     *******************************

----------------------
LOEWDIN ATOMIC CHARGES
----------------------
   0 C :    0.097683
   1 C :    0.026348
   2 C :    0.028915
   3 C :    0.115662
   4 C :    0.020764
   5 C :    0.036203
   6 C :   -0.022934
   7 H :    0.080102
   8 H :    0.074607
   9 H :    0.048891
  10 H :    0.050485
  11 H :    0.054393
  12 H :    0.055851
  13 H :    0.054540
  14 H :    0.050840
  15 N :    0.163128
  16 O :    0.031587
  17 O :    0.032935

-------------------------------
LOEWDIN REDUCED ORBITAL CHARGES
-------------------------------
  0 C s       :     2.877756  s :     2.877756
      pz      :     1.068316  p :     2.917196
      px      :     0.860162
      py      :     0.988718
      dz2     :     0.029872  d :     0.107365
      dxz     :     0.019510
      dyz     :     0.029370
      dx2y2   :     0.013138
      dxy     :     0.015473
  1 C s       :     2.862539  s :     2.862539
      pz      :     1.049419  p :     3.021560
      px      :     0.953687
      py      :     1.018454
      dz2     :     0.030638  d :     0.089553
      dxz     :     0.016768
      dyz     :     0.025769
      dx2y2   :     0.006380
      dxy     :     0.009997
  2 C s       :     2.860298  s :     2.860298
      pz      :     1.062419  p :     3.019619
      px      :     0.942430
      py      :     1.014769
      dz2     :     0.025512  d :     0.091169
      dxz     :     0.014318
      dyz     :     0.026769
      dx2y2   :     0.010606
      dxy     :     0.013963
  3 C s       :     2.878890  s :     2.878890
      pz      :     1.054018  p :     2.916669
      px      :     0.864768
      py      :     0.997882
      dz2     :     0.022485  d :     0.088779
      dxz     :     0.013296
      dyz     :     0.027140
      dx2y2   :     0.012312
      dxy     :     0.013546
  4 C s       :     2.859071  s :     2.859071
      pz      :     1.056498  p :     3.029126
      px      :     0.954062
      py      :     1.018566
      dz2     :     0.030196  d :     0.091039
      dxz     :     0.017664
      dyz     :     0.026198
      dx2y2   :     0.006664
      dxy     :     0.010317
  5 C s       :     2.864239  s :     2.864239
      pz      :     1.063259  p :     3.010249
      px      :     0.943859
      py      :     1.003132
      dz2     :     0.026010  d :     0.089309
      dxz     :     0.014698
      dyz     :     0.025125
      dx2y2   :     0.009664
      dxy     :     0.013811
  6 C s       :     2.825813  s :     2.825813
      pz      :     1.014677  p :     3.125959
      px      :     1.058570
      py      :     1.052713
      dz2     :     0.015871  d :     0.071162
      dxz     :     0.010481
      dyz     :     0.020547
      dx2y2   :     0.008287
      dxy     :     0.015976
  7 H s       :     0.852944  s :     0.852944
      pz      :     0.016923  p :     0.066954
      px      :     0.034705
      py      :     0.015326
  8 H s       :     0.858727  s :     0.858727
      pz      :     0.026994  p :     0.066667
      px      :     0.016805
      py      :     0.022868
  9 H s       :     0.883559  s :     0.883559
      pz      :     0.011532  p :     0.067551
      px      :     0.023737
      py      :     0.032282
 10 H s       :     0.879036  s :     0.879036
      pz      :     0.010587  p :     0.070479
      px      :     0.022340
      py      :     0.037552
 11 H s       :     0.875511  s :     0.875511
      pz      :     0.037096  p :     0.070096
      px      :     0.017207
      py      :     0.015793
 12 H s       :     0.873475  s :     0.873475
      pz      :     0.037205  p :     0.070674
      px      :     0.011718
      py      :     0.021752
 13 H s       :     0.875298  s :     0.875298
      pz      :     0.010826  p :     0.070162
      px      :     0.022135
      py      :     0.037201
 14 H s       :     0.878791  s :     0.878791
      pz      :     0.036807  p :     0.070368
      px      :     0.017708
      py      :     0.015852
 15 N s       :     3.467611  s :     3.467611
      pz      :     1.018063  p :     3.199557
      px      :     1.336491
      py      :     0.845003
      dz2     :     0.051086  d :     0.169704
      dxz     :     0.053551
      dyz     :     0.026973
      dx2y2   :     0.022846
      dxy     :     0.015247
 16 O s       :     3.693412  s :     3.693412
      pz      :     1.255697  p :     4.236853
      px      :     1.433379
      py      :     1.547778
      dz2     :     0.018012  d :     0.038148
      dxz     :     0.011952
      dyz     :     0.006826
      dx2y2   :     0.000792
      dxy     :     0.000566
 17 O s       :     3.699071  s :     3.699071
      pz      :     1.261590  p :     4.230621
      px      :     1.415302
      py      :     1.553729
      dz2     :     0.005688  d :     0.037372
      dxz     :     0.012546
      dyz     :     0.001805
      dx2y2   :     0.011902
      dxy     :     0.005431


                      *****************************
                      * MAYER POPULATION ANALYSIS *
                      *****************************

  NA   - Mulliken gross atomic population
  ZA   - Total nuclear charge
  QA   - Mulliken gross atomic charge
  VA   - Mayer's total valence
  BVA  - Mayer's bonded valence
  FA   - Mayer's free valence

  ATOM       NA         ZA         QA         VA         BVA        FA
  0 C      6.0360     6.0000    -0.0360     3.9302     3.9302     0.0000
  1 C      5.9527     6.0000     0.0473     3.8463     3.8463    -0.0000
  2 C      5.9399     6.0000     0.0601     3.8288     3.8288     0.0000
  3 C      5.9117     6.0000     0.0883     3.7909     3.7909    -0.0000
  4 C      5.9452     6.0000     0.0548     3.8369     3.8369     0.0000
  5 C      5.9503     6.0000     0.0497     3.8363     3.8363     0.0000
  6 C      5.9236     6.0000     0.0764     3.9093     3.9093    -0.0000
  7 H      0.9106     1.0000     0.0894     0.9902     0.9902    -0.0000
  8 H      0.9162     1.0000     0.0838     0.9910     0.9910    -0.0000
  9 H      0.9430     1.0000     0.0570     0.9987     0.9987    -0.0000
 10 H      0.9704     1.0000     0.0296     0.9918     0.9918    -0.0000
 11 H      0.9576     1.0000     0.0424     0.9825     0.9825     0.0000
 12 H      0.9444     1.0000     0.0556     0.9804     0.9804    -0.0000
 13 H      0.9564     1.0000     0.0436     0.9825     0.9825    -0.0000
 14 H      0.9695     1.0000     0.0305     0.9919     0.9919     0.0000
 15 N      6.6953     7.0000     0.3047     2.7996     2.7996     0.0000
 16 O      8.0396     8.0000    -0.0396     2.3389     2.3389    -0.0000
 17 O      8.0374     8.0000    -0.0374     2.3366     2.3366     0.0000

  Mayer bond orders larger than 0.100000
B(  0-C ,  1-C ) :   1.2322 B(  0-C ,  5-C ) :   1.1926 B(  0-C ,  6-C ) :   1.1164 
B(  0-C , 16-O ) :   0.1317 B(  0-C , 17-O ) :   0.1340 B(  1-C ,  2-C ) :   1.4699 
B(  1-C , 10-H ) :   0.9930 B(  2-C ,  3-C ) :   1.2430 B(  2-C , 11-H ) :   0.9893 
B(  3-C ,  4-C ) :   1.2522 B(  3-C , 12-H ) :   0.9868 B(  3-C , 16-O ) :   0.1423 
B(  3-C , 17-O ) :   0.1447 B(  4-C ,  5-C ) :   1.4850 B(  4-C , 13-H ) :   0.9900 
B(  5-C , 14-H ) :   0.9966 B(  6-C ,  7-H ) :   0.9063 B(  6-C ,  8-H ) :   0.9166 
B(  6-C ,  9-H ) :   0.9572 B( 15-N , 16-O ) :   1.3967 B( 15-N , 17-O ) :   1.3863 
B( 16-O , 17-O ) :   0.4804 

-------
TIMINGS
-------

Total SCF time: 0 days 0 hours 12 min 26 sec 

Total time                  ....     746.060 sec
Sum of individual times     ....     736.691 sec  ( 98.7%)

Fock matrix formation       ....     725.620 sec  ( 97.3%)
  Split-RI-J                ....      94.272 sec  ( 13.0% of F)
  Chain of spheres X        ....     537.507 sec  ( 74.1% of F)
  XC integration            ....      93.504 sec  ( 12.9% of F)
    Basis function eval.    ....      31.151 sec  ( 33.3% of XC)
    Density eval.           ....      24.906 sec  ( 26.6% of XC)
    XC-Functional eval.     ....       6.771 sec  (  7.2% of XC)
    XC-Potential eval.      ....      22.392 sec  ( 23.9% of XC)
Diagonalization             ....       0.303 sec  (  0.0%)
Density matrix formation    ....       0.059 sec  (  0.0%)
Population analysis         ....       0.182 sec  (  0.0%)
Initial guess               ....       1.542 sec  (  0.2%)
Orbital Transformation      ....       0.354 sec  (  0.0%)
Orbital Orthonormalization  ....       0.000 sec  (  0.0%)
DIIS solution               ....       0.628 sec  (  0.1%)
SOSCF solution              ....       0.000 sec  (  0.0%)
Grid generation             ....       8.000 sec  (  1.1%)

Maximum memory used throughout the entire SCF-calculation: 69.6 MB


-------------------------------------------------------------------------------
                          DFT DISPERSION CORRECTION                            
                                                                               
                                 DFTD4 V2.5                                    
-------------------------------------------------------------------------------
The B3LYP functional is recognized
Active option DFTDOPT                   ...         5   

Starting D4
-------------------------   ----------------
Dispersion correction           -0.021543735
-------------------------   ----------------


-------------------------   --------------------
FINAL SINGLE POINT ENERGY      -475.624508855679
-------------------------   --------------------

------------------------------------------------------------------------------
                         ORCA SCF GRADIENT CALCULATION
------------------------------------------------------------------------------

 ... reading COSX grid (gridx3)
Gradient of the Kohn-Sham DFT energy:
Kohn-Sham wavefunction type      ... RKS
[...]
      8      -0.008728   0.160786  -0.006543  -0.180650  -0.000043  -0.000003
      9      -0.020371  -0.073087  -0.002404  -0.049186  -0.000120   0.000036
     10       0.044572   0.097688   0.004477   0.092014   0.000207   0.000005
     11       0.067622  -0.112954   0.003576   0.076411   0.000175   0.000064
     12      -0.006963   0.067603   0.003391   0.057500  -0.000114  -0.000074
     13      -0.015026  -0.122220  -0.007655  -0.136347   0.000126   0.000017
     14      -0.151316  -0.080031  -0.013098  -0.255669  -0.000489  -0.000124
     15       0.041536  -0.059083  -0.002575  -0.126610   0.000236  -0.000422
     16      -0.063435   0.114015   0.005774   0.236293  -0.000177  -0.000357
     17       0.016066   0.112325   0.009675   0.192730  -0.000190  -0.000268
     18       0.022003   0.004941   0.000336  -0.012697  -0.025739   0.071488
     19      -0.055564  -0.004238   0.000490   0.026175  -0.009824   0.043951
     20      -0.054832   0.017744  -0.002335   0.030273   0.054373   0.016541
     21      -0.006687  -0.017514  -0.004039   0.018523  -0.343240  -0.681207
     22       0.189573  -0.034882  -0.018888  -0.015780  -0.095497  -0.171601
     23      -0.100753   0.058216   0.008405   0.005555  -0.229722  -0.516600
     24      -0.113305   0.044530   0.014371  -0.002858   0.539705  -0.269429
     25       0.060535  -0.015890  -0.003019  -0.015968   0.450280  -0.234544
     26      -0.092605   0.048686   0.006938   0.005418  -0.498948   0.285498
     27       0.038568   0.021875  -0.003156  -0.014038   0.115056   0.082347
     28       0.044463  -0.041707  -0.005146   0.013433  -0.231825  -0.120936
     29       0.219710  -0.125189  -0.012532  -0.010411   0.081145   0.042166
     30      -0.030907   0.047220  -0.003814  -0.064487  -0.001492  -0.000794
     31       0.123378  -0.020989   0.004953   0.044027   0.002168   0.001789
     32       0.425257   0.310769  -0.005089  -0.350800  -0.000137  -0.000189
     33      -0.195566   0.176811  -0.012495  -0.183727   0.000372  -0.000858
     34       0.344331  -0.276815   0.020912   0.298271   0.000343  -0.000553
     35       0.183049   0.042332   0.004970   0.016724   0.001313   0.000595
     36      -0.012573   0.304054   0.001196  -0.024899  -0.000728   0.000378
     37       0.037858  -0.417963  -0.000348   0.065919   0.001000   0.000537
     38       0.098544   0.402432   0.010110   0.136602   0.001429   0.000203
     39      -0.012759   0.081066   0.003803   0.067325  -0.000674  -0.000285
     40       0.096626  -0.090528  -0.000878  -0.052341   0.001282   0.000560
     41       0.449158   0.229825   0.030346   0.325023   0.000426   0.000105
     42      -0.179098   0.178445   0.007705   0.209485   0.000211   0.001588
     43       0.319265  -0.293844  -0.011933  -0.338142  -0.000404   0.000227
     44       0.187956  -0.039368   0.004125  -0.025794   0.003797   0.003241
     45       0.001837   0.001205  -0.660660   0.013038   0.000332   0.000051
     46       0.000029   0.000019  -0.010486   0.000218   0.000005   0.000001
     47       0.000925   0.000614  -0.345816   0.006939   0.000180   0.000028
     48       0.000096  -0.000193   0.130404  -0.006862  -0.000282  -0.000044
     49      -0.000095  -0.000037   0.019282   0.000016   0.000010   0.000002
     50      -0.002076  -0.000882   0.448345  -0.000856   0.000178   0.000028
     51      -0.001707  -0.000862   0.448014  -0.004549  -0.000008  -0.000001
     52       0.000071   0.000021  -0.010101  -0.000204  -0.000015  -0.000003
     53       0.001264   0.000347  -0.145531  -0.005194  -0.000334  -0.000052
                 48         49         50         51         52         53    
      0      -0.000312   0.001035   0.000971  -0.000007   0.000839   0.000228
      1       0.000658  -0.001701  -0.001262  -0.000287  -0.001123  -0.000606
      2       0.001615  -0.000035   0.001672  -0.001585   0.001312  -0.001244
      3      -0.001450   0.005610  -0.027291   0.030541  -0.016758   0.015036
      4       0.002633  -0.008599   0.042430  -0.047664   0.026644  -0.023922
      5      -0.000249   0.002484  -0.008964   0.008966  -0.002098   0.001741
      6       0.000126  -0.003844   0.010901  -0.004127  -0.012004   0.013858
      7      -0.000193   0.003479  -0.010635   0.005536   0.010723  -0.013317
      8       0.000097  -0.015550   0.039634  -0.006273  -0.049431   0.051647
      9       0.000082  -0.008335   0.010736   0.016253   0.000324  -0.011522
     10      -0.000135   0.017415  -0.022919  -0.033970   0.000812   0.024168
     11       0.000019   0.022850  -0.032205  -0.044572   0.007595   0.032189
     12      -0.000028   0.018994  -0.001133  -0.009801  -0.033094  -0.026598
     13       0.000048  -0.029215   0.002263   0.015793   0.051636   0.041214
     14      -0.000195   0.007123   0.002618   0.000554  -0.007970  -0.008055
     15      -0.000403  -0.017971  -0.008972  -0.005934  -0.004240  -0.003516
     16       0.000263   0.017601   0.008425   0.005507   0.002922   0.002569
     17      -0.000207  -0.065595  -0.034840  -0.023432  -0.022650  -0.017952
     18       0.043353  -0.000132  -0.001050   0.000686  -0.000467   0.000240
     19      -0.070543  -0.000127   0.001683  -0.001326   0.000733  -0.000503
     20       0.039244  -0.000215  -0.000955   0.000473  -0.000407   0.000376
     21      -0.189947   0.002403   0.004626  -0.001278   0.001811  -0.001442
     22      -0.057852   0.001738   0.001521   0.000600   0.000528   0.000211
     23      -0.134097   0.002652   0.003432   0.000041   0.001211  -0.000530
     24       0.110084  -0.001217  -0.002846   0.000486  -0.001015   0.000968
     25       0.075660   0.000171  -0.001674   0.001215  -0.000610   0.001354
     26      -0.086094   0.000925   0.002117  -0.000039   0.000598  -0.000788
     27      -0.428747  -0.001313   0.010238  -0.008523   0.004161  -0.003281
     28       0.808299   0.002759  -0.019267   0.016290  -0.007804   0.006321
     29      -0.265920   0.000587   0.005755  -0.003486   0.002373  -0.001110
     30       0.016627  -0.063641   0.313814  -0.345773   0.182649  -0.159830
     31      -0.026664   0.099318  -0.489910   0.539962  -0.285550   0.249945
     32       0.002712  -0.019080   0.092746  -0.101187   0.051552  -0.044792
     33      -0.001100   0.048223  -0.125860   0.027007   0.145388  -0.152586
     34       0.000847  -0.046300   0.121411  -0.027452  -0.139663   0.147339
     35      -0.003835   0.180224  -0.466190   0.091584   0.542533  -0.564747
     36      -0.000761   0.094526  -0.127968  -0.182098   0.016615   0.124265
     37       0.001509  -0.198621   0.269582   0.382763  -0.036521  -0.261267
     38       0.001811  -0.265620   0.363136   0.511810  -0.055756  -0.349854
     39      -0.000018  -0.226990   0.010717   0.111853   0.368578   0.290880
     40       0.000279   0.352193  -0.017010  -0.174100  -0.572264  -0.451393
     41      -0.000039  -0.066209   0.000513   0.029058   0.104709   0.084136
     42       0.000935   0.203338   0.105992   0.069301   0.061093   0.047274
     43      -0.000544  -0.197606  -0.102769  -0.067092  -0.058487  -0.045252
     44       0.004964   0.749654   0.392198   0.257080   0.230369   0.178196
     45       0.000112   0.000013   0.000004   0.000042  -0.000002   0.000024
     46       0.000002   0.000000  -0.000000   0.000001  -0.000000   0.000001
     47       0.000061   0.000007   0.000002   0.000022  -0.000002   0.000014
     48      -0.000096  -0.000011  -0.000004  -0.000036   0.000002  -0.000021
     49       0.000004   0.000001  -0.000000   0.000001   0.000000   0.000001
     50       0.000062   0.000007   0.000002   0.000023  -0.000001   0.000014
     51      -0.000002  -0.000000  -0.000000  -0.000001  -0.000000  -0.000000
     52      -0.000005  -0.000001   0.000000  -0.000002   0.000000  -0.000001
     53      -0.000114  -0.000013  -0.000005  -0.000043   0.000002  -0.000025


-----------
IR SPECTRUM
-----------

 Mode   freq       eps      Int      T**2         TX        TY        TZ
       cm**-1   L/(mol*cm) km/mol    a.u.
----------------------------------------------------------------------------
 10:      5.60   0.000001    0.01  0.000073  (-0.005385  0.006629  0.000339)
 11:     11.45   0.000113    0.57  0.003084  (-0.006138  0.055053 -0.003893)
 12:     18.45   0.000659    3.33  0.011138  (-0.100322 -0.030452 -0.012079)
 13:    172.60   0.000230    1.16  0.000417  ( 0.015935  0.012516 -0.002471)
 14:    347.88   0.001105    5.58  0.000991  ( 0.008472 -0.005754  0.029769)
 15:    371.99   0.000002    0.01  0.000002  ( 0.001236 -0.000447  0.000525)
 16:    425.99   0.000136    0.69  0.000100  ( 0.006504  0.004168 -0.006314)
 17:    515.48   0.022322  112.81  0.013514  ( 0.018516  0.010952  0.114240)
 18:    535.22   0.010791   54.53  0.006291  ( 0.021230 -0.007214  0.076084)
 19:    609.55   0.004669   23.60  0.002391  (-0.038976 -0.023676  0.017631)
 20:    710.30   1.453422  7345.00  0.638551  ( 0.171408  0.044016  0.779252)
 21:    751.19   0.006384   32.26  0.002652  ( 0.042489  0.028926 -0.003166)
 22:    790.45   0.000849    4.29  0.000335  ( 0.007411  0.001696  0.016658)
 23:    816.33   0.000110    0.56  0.000042  (-0.005519 -0.003099 -0.001399)
 24:    835.49   0.038071  192.40  0.014220  (-0.036719  0.005776  0.113306)
 25:    936.48   0.002106   10.64  0.000702  (-0.006158 -0.000539  0.025759)
 26:    968.30   0.035864  181.24  0.011558  (-0.012070 -0.012277 -0.106122)
 27:   1001.90   0.015014   75.87  0.004676  (-0.005240  0.004134 -0.068057)
 28:   1004.79   0.002832   14.31  0.000879  ( 0.028319  0.008685  0.001437)
 29:   1013.71   0.003543   17.90  0.001091  ( 0.012097 -0.009900  0.029090)
 30:   1020.16   0.000087    0.44  0.000027  ( 0.003274  0.001858 -0.003535)
 31:   1038.70   0.000030    0.15  0.000009  (-0.002149 -0.001722 -0.001142)
 32:   1091.70   0.003538   17.88  0.001011  (-0.015223  0.020115 -0.019362)
 33:   1152.41   0.008932   45.14  0.002419  ( 0.003985  0.008043  0.048354)
 34:   1198.41   0.059231  299.33  0.015424  ( 0.019379  0.010320  0.122236)
 35:   1258.16   0.055813  282.06  0.013843  (-0.013851 -0.014539 -0.115932)
 36:   1289.68   0.041085  207.63  0.009941  ( 0.004246  0.018615  0.097861)
 37:   1340.58   0.059624  301.32  0.013879  (-0.001914 -0.016712 -0.116604)
 38:   1384.42   0.000506    2.56  0.000114  ( 0.010153 -0.001968 -0.002675)
 39:   1399.63   0.002949   14.90  0.000657  ( 0.024586  0.004598  0.005643)
 40:   1415.12   0.006240   31.53  0.001376  (-0.013114  0.020131 -0.028263)
 41:   1451.39   0.023180  117.14  0.004984  ( 0.005040  0.002689  0.070366)
 42:   1483.86   0.048442  244.81  0.010188  (-0.010779  0.041283  0.091472)
 43:   1522.51   0.005282   26.69  0.001083  ( 0.014302 -0.018336  0.023280)
 44:   1530.82   0.088610  447.80  0.018063  (-0.043376 -0.006554 -0.127039)
 45:   1674.58   0.331553  1675.54  0.061786  (-0.042245 -0.017316 -0.244339)
 46:   2979.72   0.121352  613.27  0.012709  (-0.004329 -0.019278 -0.110990)
 47:   3035.48   0.003804   19.23  0.000391  (-0.008127 -0.006483 -0.016824)
 48:   3157.42   0.017399   87.93  0.001720  (-0.001721 -0.009632 -0.040297)
 49:   3197.03   0.000143    0.72  0.000014  ( 0.000228 -0.001520 -0.003409)
 50:   3201.19   0.000017    0.09  0.000002  ( 0.000044 -0.000128  0.001279)
 51:   3206.28   0.001162    5.87  0.000113  (-0.002633  0.000418 -0.010293)
 52:   3215.53   0.000652    3.29  0.000063  ( 0.003695 -0.005025  0.004933)
 53:   3219.67   0.001004    5.08  0.000097  (-0.000503 -0.002157 -0.009615)

* The epsilon (eps) is given for a Dirac delta lineshape.
** The dipole moment derivative (T) already includes vibrational overlap.

The first frequency considered to be a vibration is 10
The total number of vibrations considered is 44


--------------------------
THERMOCHEMISTRY AT 298.15K
--------------------------

Temperature         ... 298.15 K
Pressure            ... 1.00 atm
Total Mass          ... 138.15 AMU

Throughout the following assumptions are being made:
  (1) The electronic state is orbitally nondegenerate
  (2) There are no thermally accessible electronically excited states
  (3) Hindered rotations indicated by low frequency modes are not
      treated as such but are treated as vibrations and this may
      cause some error
  (4) All equations used are the standard statistical mechanics
      equations for an ideal gas
  (5) All vibrations are strictly harmonic

freq.       5.60  E(vib)   ...       0.58 
freq.      11.45  E(vib)   ...       0.58 
freq.      18.45  E(vib)   ...       0.57 
freq.     172.60  E(vib)   ...       0.38 
freq.     347.88  E(vib)   ...       0.23 
freq.     371.99  E(vib)   ...       0.21 
freq.     425.99  E(vib)   ...       0.18 
freq.     515.48  E(vib)   ...       0.13 
freq.     535.22  E(vib)   ...       0.13 
freq.     609.55  E(vib)   ...       0.10 
freq.     710.30  E(vib)   ...       0.07 
freq.     751.19  E(vib)   ...       0.06 
freq.     790.45  E(vib)   ...       0.05 
freq.     816.33  E(vib)   ...       0.05 
freq.     835.49  E(vib)   ...       0.04 
freq.     936.48  E(vib)   ...       0.03 
freq.     968.30  E(vib)   ...       0.03 
freq.    1001.90  E(vib)   ...       0.02 
freq.    1004.79  E(vib)   ...       0.02 
freq.    1013.71  E(vib)   ...       0.02 
freq.    1020.16  E(vib)   ...       0.02 
freq.    1038.70  E(vib)   ...       0.02 
freq.    1091.70  E(vib)   ...       0.02 
freq.    1152.41  E(vib)   ...       0.01 
freq.    1198.41  E(vib)   ...       0.01 
freq.    1258.16  E(vib)   ...       0.01 
freq.    1289.68  E(vib)   ...       0.01 
freq.    1340.58  E(vib)   ...       0.01 
freq.    1384.42  E(vib)   ...       0.00 
freq.    1399.63  E(vib)   ...       0.00 
freq.    1415.12  E(vib)   ...       0.00 
freq.    1451.39  E(vib)   ...       0.00 
freq.    1483.86  E(vib)   ...       0.00 
freq.    1522.51  E(vib)   ...       0.00 
freq.    1530.82  E(vib)   ...       0.00 
freq.    1674.58  E(vib)   ...       0.00 
freq.    2979.72  E(vib)   ...       0.00 
freq.    3035.48  E(vib)   ...       0.00 
freq.    3157.42  E(vib)   ...       0.00 
freq.    3197.03  E(vib)   ...       0.00 
freq.    3201.19  E(vib)   ...       0.00 
freq.    3206.28  E(vib)   ...       0.00 
freq.    3215.53  E(vib)   ...       0.00 
freq.    3219.67  E(vib)   ...       0.00 

------------
INNER ENERGY
------------

The inner energy is: U= E(el) + E(ZPE) + E(vib) + E(rot) + E(trans)
    E(el)   - is the total energy from the electronic structure calculation
              = E(kin-el) + E(nuc-el) + E(el-el) + E(nuc-nuc)
    E(ZPE)  - the the zero temperature vibrational energy from the frequency calculation
    E(vib)  - the the finite temperature correction to E(ZPE) due to population
              of excited vibrational states
    E(rot)  - is the rotational thermal energy
    E(trans)- is the translational thermal energy

Summary of contributions to the inner energy U:
Electronic energy                ...   -475.62638683 Eh
Zero point energy                ...      0.13283449 Eh      83.35 kcal/mol
Thermal vibrational correction   ...      0.00574131 Eh       3.60 kcal/mol
Thermal rotational correction    ...      0.00141627 Eh       0.89 kcal/mol
Thermal translational correction ...      0.00141627 Eh       0.89 kcal/mol
-----------------------------------------------------------------------
Total thermal energy                   -475.48497849 Eh


Summary of corrections to the electronic energy:
(perhaps to be used in another calculation)
Total thermal correction                  0.00857385 Eh       5.38 kcal/mol
Non-thermal (ZPE) correction              0.13283449 Eh      83.35 kcal/mol
-----------------------------------------------------------------------
Total correction                          0.14140834 Eh      88.73 kcal/mol


--------
ENTHALPY
--------

The enthalpy is H = U + kB*T
                kB is Boltzmann's constant
Total free energy                 ...   -475.48497849 Eh 
Thermal Enthalpy correction       ...      0.00094421 Eh       0.59 kcal/mol
-----------------------------------------------------------------------
Total Enthalpy                    ...   -475.48403428 Eh


Note: Only C1 symmetry has been detected, increase convergence thresholds 
      if your molecule has a higher symmetry. Symmetry factor of 1.0 is   
      used for the rotational entropy correction. 
 

Note: Rotational entropy computed according to Herzberg 
Infrared and Raman Spectra, Chapter V,1, Van Nostrand Reinhold, 1945 
Point Group:  C1, Symmetry Number:   1  
Rotational constants in cm-1:     0.106856     0.001675     0.001653 

Vibrational entropy computed according to the QRRHO of S. Grimme
Chem.Eur.J. 2012 18 9955


-------
ENTROPY
-------

The entropy contributions are T*S = T*(S(el)+S(vib)+S(rot)+S(trans))
     S(el)   - electronic entropy
     S(vib)  - vibrational entropy
     S(rot)  - rotational entropy
     S(trans)- translational entropy
The entropies will be listed as multiplied by the temperature to get
units of energy

Electronic entropy                ...      0.00000000 Eh      0.00 kcal/mol
Vibrational entropy               ...      0.01167481 Eh      7.33 kcal/mol
Rotational entropy                ...      0.01660797 Eh     10.42 kcal/mol
Translational entropy             ...      0.01932890 Eh     12.13 kcal/mol
-----------------------------------------------------------------------
Final entropy term                ...      0.04761167 Eh     29.88 kcal/mol

In case the symmetry of your molecule has not been determined correctly
or in case you have a reason to use a different symmetry number we print 
out the resulting rotational entropy values for sn=1,12 :
 --------------------------------------------------------
|  sn= 1 | S(rot)=       0.01660797 Eh     10.42 kcal/mol|
|  sn= 2 | S(rot)=       0.01595351 Eh     10.01 kcal/mol|
|  sn= 3 | S(rot)=       0.01557068 Eh      9.77 kcal/mol|
|  sn= 4 | S(rot)=       0.01529905 Eh      9.60 kcal/mol|
|  sn= 5 | S(rot)=       0.01508837 Eh      9.47 kcal/mol|
|  sn= 6 | S(rot)=       0.01491622 Eh      9.36 kcal/mol|
|  sn= 7 | S(rot)=       0.01477067 Eh      9.27 kcal/mol|
|  sn= 8 | S(rot)=       0.01464460 Eh      9.19 kcal/mol|
|  sn= 9 | S(rot)=       0.01453339 Eh      9.12 kcal/mol|
|  sn=10 | S(rot)=       0.01443391 Eh      9.06 kcal/mol|
|  sn=11 | S(rot)=       0.01434392 Eh      9.00 kcal/mol|
|  sn=12 | S(rot)=       0.01426176 Eh      8.95 kcal/mol|
 --------------------------------------------------------


-------------------
GIBBS FREE ENERGY
-------------------

The Gibbs free energy is G = H - T*S

Total enthalpy                    ...   -475.48403428 Eh 
Total entropy correction          ...     -0.04761167 Eh    -29.88 kcal/mol
-----------------------------------------------------------------------
Final Gibbs free energy         ...   -475.53164596 Eh

For completeness - the Gibbs free energy minus the electronic energy
G-E(el)                           ...      0.09474087 Eh     59.45 kcal/mol


Timings for individual modules:

Sum of individual times         ...    15469.900 sec (= 257.832 min)
GTO integral calculation        ...       44.890 sec (=   0.748 min)   0.3 %
SCF iterations                  ...    11422.232 sec (= 190.371 min)  73.8 %
SCF Gradient evaluation         ...     2622.297 sec (=  43.705 min)  17.0 %
Geometry relaxation             ...       18.539 sec (=   0.309 min)   0.1 %
Analytical frequency calculation...     1361.942 sec (=  22.699 min)   8.8 %
                             ****ORCA TERMINATED NORMALLY****
TOTAL RUN TIME: 0 days 4 hours 18 minutes 38 seconds 430 msec
