
                                 *****************
                                 * O   R   C   A *
                                 *****************

                                            #,                                       
                                            ###                                      
                                            ####                                     
                                            #####                                    
                                            ######                                   
                                           ########,                                 
                                     ,,################,,,,,                         
                               ,,#################################,,                 
                          ,,##########################################,,             
                       ,#########################################, ''#####,          
                    ,#############################################,,   '####,        
                  ,##################################################,,,,####,       
                ,###########''''           ''''###############################       
              ,#####''   ,,,,##########,,,,          '''####'''          '####       
            ,##' ,,,,###########################,,,                        '##       
           ' ,,###''''                  '''############,,,                           
         ,,##''                                '''############,,,,        ,,,,,,###''
      ,#''                                            '''#######################'''  
     '                                                          ''''####''''         
             ,#######,   #######,   ,#######,      ##                                
            ,#'     '#,  ##    ##  ,#'     '#,    #''#        ######   ,####,        
            ##       ##  ##   ,#'  ##            #'  '#       #        #'  '#        
            ##       ##  #######   ##           ,######,      #####,   #    #        
            '#,     ,#'  ##    ##  '#,     ,#' ,#      #,         ##   #,  ,#        
             '#######'   ##     ##  '#######'  #'      '#     #####' # '####'        



                  #######################################################
                  #                        -***-                        #
                  #          Department of theory and spectroscopy      #
                  #    Directorship and core code : Frank Neese         #
                  #        Max Planck Institute fuer Kohlenforschung    #
                  #                Kaiser Wilhelm Platz 1               #
                  #                 D-45470 Muelheim/Ruhr               #
                  #                      Germany                        #
                  #                                                     #
                  #                  All rights reserved                #
                  #                        -***-                        #
                  #######################################################



                         Program Version 5.0.4 -  RELEASE  -

 With contributions from (in alphabetic order):
   Daniel Aravena         : Magnetic Suceptibility
   Michael Atanasov       : Ab Initio Ligand Field Theory (pilot matlab implementation)
   Alexander A. Auer      : GIAO ZORA, VPT2 properties, NMR spectrum
   Ute Becker             : Parallelization
   Giovanni Bistoni       : ED, misc. LED, open-shell LED, HFLD
   Martin Brehm           : Molecular dynamics
   Dmytro Bykov           : SCF Hessian
   Vijay G. Chilkuri      : MRCI spin determinant printing, contributions to CSF-ICE
   Dipayan Datta          : RHF DLPNO-CCSD density
   Achintya Kumar Dutta   : EOM-CC, STEOM-CC
   Dmitry Ganyushin       : Spin-Orbit,Spin-Spin,Magnetic field MRCI
   Miquel Garcia          : C-PCM and meta-GGA Hessian, CC/C-PCM, Gaussian charge scheme
   Yang Guo               : DLPNO-NEVPT2, F12-NEVPT2, CIM, IAO-localization
   Andreas Hansen         : Spin unrestricted coupled pair/coupled cluster methods
   Benjamin Helmich-Paris : MC-RPA, TRAH-SCF, COSX integrals
   Lee Huntington         : MR-EOM, pCC
   Robert Izsak           : Overlap fitted RIJCOSX, COSX-SCS-MP3, EOM
   Marcus Kettner         : VPT2
   Christian Kollmar      : KDIIS, OOCD, Brueckner-CCSD(T), CCSD density, CASPT2, CASPT2-K
   Simone Kossmann        : Meta GGA functionals, TD-DFT gradient, OOMP2, MP2 Hessian
   Martin Krupicka        : Initial AUTO-CI
   Lucas Lang             : DCDCAS
   Marvin Lechner         : AUTO-CI (C++ implementation), FIC-MRCC
   Dagmar Lenk            : GEPOL surface, SMD
   Dimitrios Liakos       : Extrapolation schemes; Compound Job, initial MDCI parallelization
   Dimitrios Manganas     : Further ROCIS development; embedding schemes
   Dimitrios Pantazis     : SARC Basis sets
   Anastasios Papadopoulos: AUTO-CI, single reference methods and gradients
   Taras Petrenko         : DFT Hessian,TD-DFT gradient, ASA, ECA, R-Raman, ABS, FL, XAS/XES, NRVS
   Peter Pinski           : DLPNO-MP2, DLPNO-MP2 Gradient
   Christoph Reimann      : Effective Core Potentials
   Marius Retegan         : Local ZFS, SOC
   Christoph Riplinger    : Optimizer, TS searches, QM/MM, DLPNO-CCSD(T), (RO)-DLPNO pert. Triples
   Tobias Risthaus        : Range-separated hybrids, TD-DFT gradient, RPA, STAB
   Michael Roemelt        : Original ROCIS implementation
   Masaaki Saitow         : Open-shell DLPNO-CCSD energy and density
   Barbara Sandhoefer     : DKH picture change effects
   Avijit Sen             : IP-ROCIS
   Kantharuban Sivalingam : CASSCF convergence, NEVPT2, FIC-MRCI
   Bernardo de Souza      : ESD, SOC TD-DFT
   Georgi Stoychev        : AutoAux, RI-MP2 NMR, DLPNO-MP2 response
   Willem Van den Heuvel  : Paramagnetic NMR
   Boris Wezisla          : Elementary symmetry handling
   Frank Wennmohs         : Technical directorship


 We gratefully acknowledge several colleagues who have allowed us to
 interface, adapt or use parts of their codes:
   Stefan Grimme, W. Hujo, H. Kruse, P. Pracht,  : VdW corrections, initial TS optimization,
                  C. Bannwarth, S. Ehlert          DFT functionals, gCP, sTDA/sTD-DF
   Ed Valeev, F. Pavosevic, A. Kumar             : LibInt (2-el integral package), F12 methods
   Garnet Chan, S. Sharma, J. Yang, R. Olivares  : DMRG
   Ulf Ekstrom                                   : XCFun DFT Library
   Mihaly Kallay                                 : mrcc  (arbitrary order and MRCC methods)
   Jiri Pittner, Ondrej Demel                    : Mk-CCSD
   Frank Weinhold                                : gennbo (NPA and NBO analysis)
   Christopher J. Cramer and Donald G. Truhlar   : smd solvation model
   Lars Goerigk                                  : TD-DFT with DH, B97 family of functionals
   V. Asgeirsson, H. Jonsson                     : NEB implementation
   FAccTs GmbH                                   : IRC, NEB, NEB-TS, DLPNO-Multilevel, CI-OPT
                                                   MM, QMMM, 2- and 3-layer-ONIOM, Crystal-QMMM,
                                                   LR-CPCM, SF, NACMEs, symmetry and pop. for TD-DFT,
                                                   nearIR, NL-DFT gradient (VV10), updates on ESD,
                                                   ML-optimized integration grids
   S Lehtola, MJT Oliveira, MAL Marques          : LibXC Library
   Liviu Ungur et al                             : ANISO software


 Your calculation uses the libint2 library for the computation of 2-el integrals
 For citations please refer to: http://libint.valeyev.net

 Your ORCA version has been built with support for libXC version: 5.1.0
 For citations please refer to: https://tddft.org/programs/libxc/

 This ORCA versions uses:
   CBLAS   interface :  Fast vector & matrix operations
   LAPACKE interface :  Fast linear algebra routines
   Shared memory     :  Shared parallel matrices


Your calculation utilizes the atom-pairwise dispersion correction
based on tight binding partial charges (D4)
Cite in your paper:
E.Caldeweyher, C.Bannwarth, S.Grimme, J.Chem.Phys., (2017), 147, 034112.
E.Caldeweyher, S.Ehlert, A.Hansen, H.Neugebauer, S.Grimme, J.Chem.Phys., (2018), in progress.
   

================================================================================

----- Orbital basis set information -----
Your calculation utilizes the basis: def2-SVP
   F. Weigend and R. Ahlrichs, Phys. Chem. Chem. Phys. 7, 3297 (2005).

----- AuxJ basis set information -----
Your calculation utilizes the auxiliary basis: def2/J
   F. Weigend, Phys. Chem. Chem. Phys. 8, 1057 (2006).

================================================================================
                                        WARNINGS
                       Please study these warnings very carefully!
================================================================================


WARNING: Geometry Optimization
  ===> : Switching off AutoStart
         For restart on a previous wavefunction, please use MOREAD

INFO   : the flag for use of the SHARK integral package has been found!

================================================================================
                                       INPUT FILE
================================================================================
NAME = opt.inp
|  1> !B3LYP DEF2-SVP OPT FREQ D4 SOSCF
|  2> 
|  3> * xyz 1 1
|  4>    C       -2.73004        1.40068       -0.00092
|  5>    C       -3.42075        0.25143       -0.10131
|  6>    C       -2.70872       -1.01182       -0.38433
|  7>    C       -1.36833       -1.02508       -0.47398
|  8>    C       -0.55686        0.21332       -0.23657
|  9>    C       -1.24906        1.38163       -0.15245
| 10>    H       -4.50270        0.24350       -0.00963
| 11>    H       -3.27390       -1.92632       -0.53374
| 12>    H       -0.87074       -1.96400       -0.69789
| 13>    H       -0.32131        0.06977        0.81644
| 14>    H       -0.72953        2.33592       -0.16764
| 15>    N       -3.40470        2.62916        0.22345
| 16>    H       -4.43027        2.66086        0.32213
| 17>    H       -2.87480        3.50998        0.29215
| 18>    N        0.77711        0.26283       -0.76663
| 19>    O        1.39002        1.28886       -0.79238
| 20>    O        1.31577       -0.74003       -1.12860
| 21> **                         ****END OF INPUT****
================================================================================

                       *****************************
                       * Geometry Optimization Run *
                       *****************************

Geometry optimization settings:
Update method            Update   .... BFGS
Choice of coordinates    CoordSys .... Z-matrix Internals
Initial Hessian          InHess   .... Almoef's Model

Convergence Tolerances:
Energy Change            TolE     ....  5.0000e-06 Eh
Max. Gradient            TolMAXG  ....  3.0000e-04 Eh/bohr
RMS Gradient             TolRMSG  ....  1.0000e-04 Eh/bohr
Max. Displacement        TolMAXD  ....  4.0000e-03 bohr
RMS Displacement         TolRMSD  ....  2.0000e-03 bohr
Strict Convergence                ....  False
------------------------------------------------------------------------------
                        ORCA OPTIMIZATION COORDINATE SETUP
------------------------------------------------------------------------------

The optimization will be done in new redundant internal coordinates
Making redundant internal coordinates   ...  (new redundants) done
Evaluating the initial hessian          ...  (Almloef) done
Evaluating the coordinates              ...  done
Calculating the B-matrix                .... done
Calculating the G-matrix                .... done
Diagonalizing the G-matrix              .... done
The first mode is                       ....   37
The number of degrees of freedom        ....   45

    -----------------------------------------------------------------
                    Redundant Internal Coordinates


    -----------------------------------------------------------------
         Definition                    Initial Value    Approx d2E/dq
    -----------------------------------------------------------------
      1. B(C   1,C   0)                  1.3446         0.738211   
      2. B(C   2,C   1)                  1.4775         0.453108   
      3. B(C   3,C   2)                  1.3435         0.741320   
      4. B(C   4,C   3)                  1.4995         0.417877   
      5. B(C   5,C   4)                  1.3606         0.696119   
      6. B(C   5,C   0)                  1.4888         0.434566   
      7. B(H   6,C   1)                  1.0859         0.365624   
      8. B(H   7,C   2)                  1.0854         0.366256   
      9. B(H   8,C   3)                  1.0860         0.365489   
     10. B(H   9,C   4)                  1.0885         0.362036   
     11. B(H  10,C   5)                  1.0867         0.364557   
     12. B(N  11,C   0)                  1.4194         0.502324   
     13. B(H  12,N  11)                  1.0308         0.400885   
     14. B(H  13,N  11)                  1.0302         0.401728   
     15. B(N  14,C   4)                  1.4363         0.472111   
     16. B(O  15,N  14)                  1.1954         1.024312   
     17. B(O  16,N  14)                  1.1945         1.027709   
     18. A(C   1,C   0,C   5)          119.5017         0.420226   
     19. A(C   5,C   0,N  11)          119.9981         0.390088   
     20. A(C   1,C   0,N  11)          120.4903         0.428452   
     21. A(C   0,C   1,H   6)          120.7827         0.364489   
     22. A(C   0,C   1,C   2)          119.8371         0.423373   
     23. A(C   2,C   1,H   6)          119.3487         0.335675   
     24. A(C   3,C   2,H   7)          120.1344         0.364859   
     25. A(C   1,C   2,H   7)          119.7238         0.335772   
     26. A(C   1,C   2,C   3)          120.1359         0.423691   
     27. A(C   2,C   3,C   4)          121.4137         0.417615   
     28. A(C   4,C   3,H   8)          119.9165         0.331177   
     29. A(C   2,C   3,H   8)          118.6497         0.364728   
     30. A(C   5,C   4,H   9)           99.4113         0.360246   
     31. A(C   3,C   4,H   9)           99.2852         0.330657   
     32. A(H   9,C   4,N  14)           99.2402         0.335380   
     33. A(C   3,C   4,N  14)          118.2067         0.383270   
     34. A(C   3,C   4,C   5)          116.3365         0.412969   
     35. A(C   5,C   4,N  14)          117.7577         0.419301   
     36. A(C   0,C   5,H  10)          117.7598         0.333192   
     37. A(C   0,C   5,C   4)          121.5573         0.415853   
     38. A(C   4,C   5,H  10)          120.6634         0.360673   
     39. A(H  12,N  11,H  13)          118.6248         0.296073   
     40. A(C   0,N  11,H  13)          120.4007         0.341836   
     41. A(C   0,N  11,H  12)          120.9745         0.341716   
     42. A(O  15,N  14,O  16)          118.8714         0.508210   
     43. A(C   4,N  14,O  16)          120.1131         0.443776   
     44. A(C   4,N  14,O  15)          120.9123         0.443511   
     45. D(H   6,C   1,C   0,N  11)     -0.1900         0.038747   
     46. D(C   2,C   1,C   0,C   5)     -1.0973         0.038747   
     47. D(H   6,C   1,C   0,C   5)   -179.0449         0.038747   
     48. D(C   2,C   1,C   0,N  11)    177.7576         0.038747   
     49. D(C   3,C   2,C   1,H   6)   -178.6456         0.013992   
     50. D(C   3,C   2,C   1,C   0)      3.3772         0.013992   
     51. D(H   7,C   2,C   1,C   0)   -175.7404         0.013992   
     52. D(H   7,C   2,C   1,H   6)      2.2367         0.013992   
     53. D(H   8,C   3,C   2,H   7)      0.0346         0.039105   
     54. D(H   8,C   3,C   2,C   1)   -179.0794         0.039105   
     55. D(C   4,C   3,C   2,H   7)   -178.3327         0.039105   
     56. D(C   4,C   3,C   2,C   1)      2.5533         0.039105   
     57. D(H   9,C   4,C   3,C   2)     94.6684         0.012916   
     58. D(C   5,C   4,C   3,H   8)    170.9061         0.012916   
     59. D(C   5,C   4,C   3,C   2)    -10.7469         0.012916   
     60. D(N  14,C   4,C   3,H   8)     22.1237         0.012916   
     61. D(N  14,C   4,C   3,C   2)   -159.5293         0.012916   
     62. D(H   9,C   4,C   3,H   8)    -83.6786         0.012916   
     63. D(H  10,C   5,C   4,N  14)    -19.6201         0.037091   
     64. D(H  10,C   5,C   4,C   3)   -168.5466         0.037091   
     65. D(C   0,C   5,C   4,N  14)    162.0233         0.037091   
     66. D(C   0,C   5,C   4,H   9)    -92.2431         0.037091   
     67. D(C   0,C   5,C   4,C   3)     13.0967         0.037091   
     68. D(H  10,C   5,C   0,N  11)     -4.9709         0.012894   
     69. D(H  10,C   5,C   0,C   1)    173.8897         0.012894   
     70. D(H  10,C   5,C   4,H   9)     86.1136         0.037091   
     71. D(C   4,C   5,C   0,N  11)    173.4317         0.012894   
     72. D(C   4,C   5,C   0,C   1)     -7.7076         0.012894   
     73. D(H  13,N  11,C   0,C   1)   -179.4780         0.019954   
     74. D(H  12,N  11,C   0,C   5)    179.4490         0.019954   
     75. D(H  12,N  11,C   0,C   1)      0.5998         0.019954   
     76. D(H  13,N  11,C   0,C   5)     -0.6287         0.019954   
     77. D(O  16,N  14,C   4,H   9)     90.2871         0.019048   
     78. D(O  16,N  14,C   4,C   5)   -163.8800         0.019048   
     79. D(O  16,N  14,C   4,C   3)    -15.5412         0.019048   
     80. D(O  15,N  14,C   4,H   9)    -85.9768         0.019048   
     81. D(O  15,N  14,C   4,C   5)     19.8562         0.019048   
     82. D(O  15,N  14,C   4,C   3)    168.1949         0.019048   
    -----------------------------------------------------------------

Number of atoms                         .... 17
Number of degrees of freedom            .... 82

         *************************************************************
         *                GEOMETRY OPTIMIZATION CYCLE   1            *
         *************************************************************
---------------------------------
CARTESIAN COORDINATES (ANGSTROEM)
---------------------------------
  C     -2.730040    1.400680   -0.000920
  C     -3.420750    0.251430   -0.101310
  C     -2.708720   -1.011820   -0.384330
  C     -1.368330   -1.025080   -0.473980
  C     -0.556860    0.213320   -0.236570
  C     -1.249060    1.381630   -0.152450
  H     -4.502700    0.243500   -0.009630
  H     -3.273900   -1.926320   -0.533740
  H     -0.870740   -1.964000   -0.697890
  H     -0.321310    0.069770    0.816440
  H     -0.729530    2.335920   -0.167640
  N     -3.404700    2.629160    0.223450
  H     -4.430270    2.660860    0.322130
  H     -2.874800    3.509980    0.292150
  N      0.777110    0.262830   -0.766630
  O      1.390020    1.288860   -0.792380
  O      1.315770   -0.740030   -1.128600

----------------------------
CARTESIAN COORDINATES (A.U.)
----------------------------
  NO LB      ZA    FRAG     MASS         X           Y           Z
   0 C     6.0000    0    12.011   -5.159028    2.646902   -0.001739
   1 C     6.0000    0    12.011   -6.464281    0.475134   -0.191448
   2 C     6.0000    0    12.011   -5.118739   -1.912063   -0.726278
   3 C     6.0000    0    12.011   -2.585769   -1.937120   -0.895692
   4 C     6.0000    0    12.011   -1.052313    0.403116   -0.447053
   5 C     6.0000    0    12.011   -2.360381    2.610902   -0.288089
   6 H     1.0000    0     1.008   -8.508870    0.460148   -0.018198
   7 H     1.0000    0     1.008   -6.186774   -3.640217   -1.008622
   8 H     1.0000    0     1.008   -1.645460   -3.711422   -1.318821
   9 H     1.0000    0     1.008   -0.607188    0.131846    1.542848
  10 H     1.0000    0     1.008   -1.378612    4.414249   -0.316794
  11 N     7.0000    0    14.007   -6.433951    4.968392    0.422259
  12 H     1.0000    0     1.008   -8.371997    5.028297    0.608737
  13 H     1.0000    0     1.008   -5.432585    6.632901    0.552083
  14 N     7.0000    0    14.007    1.468525    0.496677   -1.448721
  15 O     8.0000    0    15.999    2.626757    2.435592   -1.497381
  16 O     8.0000    0    15.999    2.486445   -1.398454   -2.132745

--------------------------------
INTERNAL COORDINATES (ANGSTROEM)
--------------------------------
 C      0   0   0     0.000000000000     0.00000000     0.00000000
 C      1   0   0     1.344594369578     0.00000000     0.00000000
 C      2   1   0     1.477459848456   119.83708480     0.00000000
 C      3   2   1     1.343450148759   120.13590245     3.37720942
 C      4   3   2     1.499493790917   121.41365965     2.55327386
 C      5   4   3     1.360575345396   116.33647134   349.25311594
 H      2   1   3     1.085856302556   120.78274706   182.05237748
 H      3   2   1     1.085385659800   119.72380645   184.25956799
 H      4   3   2     1.085956841960   118.64970246   180.92061745
 H      5   4   3     1.088540520651    99.28524351    94.66836598
 H      6   5   4     1.086651536188   120.66336766   191.45338189
 N      1   2   3     1.419391109913   120.49028232   177.75760004
 H     12   1   2     1.030794090641   120.97453404     0.59975501
 H     12   1   2     1.030222098579   120.40065840   180.52202162
 N      5   4   3     1.436276715887   118.20668218   200.47070241
 O     15   5   4     1.195432679619   120.91226397   168.19492890
 O     15   5   4     1.194531312315   120.11311764   344.45880876

---------------------------
INTERNAL COORDINATES (A.U.)
---------------------------
 C      0   0   0     0.000000000000     0.00000000     0.00000000
 C      1   0   0     2.540915119714     0.00000000     0.00000000
 C      2   1   0     2.791994487447   119.83708480     0.00000000
 C      3   2   1     2.538752855730   120.13590245     3.37720942
 C      4   3   2     2.833632604349   121.41365965     2.55327386
 C      5   4   3     2.571114787364   116.33647134   349.25311594
 H      2   1   3     2.051971032623   120.78274706   182.05237748
 H      3   2   1     2.051081646708   119.72380645   184.25956799
 H      4   3   2     2.052161024563   118.64970246   180.92061745
 H      5   4   3     2.057043469707    99.28524351    94.66836598
 H      6   5   4     2.053473806400   120.66336766   191.45338189
 N      1   2   3     2.682260474658   120.49028232   177.75760004
 H     12   1   2     1.947918531776   120.97453404     0.59975501
 H     12   1   2     1.946837623427   120.40065840   180.52202162
 N      5   4   3     2.714169645555   118.20668218   200.47070241
 O     15   5   4     2.259040376019   120.91226397   168.19492890
 O     15   5   4     2.257337038668   120.11311764   344.45880876

---------------------
BASIS SET INFORMATION
---------------------
There are 4 groups of distinct atoms

 Group   1 Type C   : 7s4p1d contracted to 3s2p1d pattern {511/31/1}
 Group   2 Type H   : 4s1p contracted to 2s1p pattern {31/1}
 Group   3 Type N   : 7s4p1d contracted to 3s2p1d pattern {511/31/1}
 Group   4 Type O   : 7s4p1d contracted to 3s2p1d pattern {511/31/1}

Atom   0C    basis set group =>   1
Atom   1C    basis set group =>   1
Atom   2C    basis set group =>   1
Atom   3C    basis set group =>   1
Atom   4C    basis set group =>   1
Atom   5C    basis set group =>   1
Atom   6H    basis set group =>   2
Atom   7H    basis set group =>   2
Atom   8H    basis set group =>   2
Atom   9H    basis set group =>   2
Atom  10H    basis set group =>   2
Atom  11N    basis set group =>   3
Atom  12H    basis set group =>   2
Atom  13H    basis set group =>   2
Atom  14N    basis set group =>   3
Atom  15O    basis set group =>   4
Atom  16O    basis set group =>   4
---------------------------------
AUXILIARY/J BASIS SET INFORMATION
---------------------------------
There are 4 groups of distinct atoms

 Group   1 Type C   : 12s5p4d2f1g contracted to 6s4p3d1f1g pattern {711111/2111/211/2/1}
 Group   2 Type H   : 5s2p1d contracted to 3s1p1d pattern {311/2/1}
 Group   3 Type N   : 12s5p4d2f1g contracted to 6s4p3d1f1g pattern {711111/2111/211/2/1}
 Group   4 Type O   : 12s5p4d2f1g contracted to 6s4p3d1f1g pattern {711111/2111/211/2/1}

Atom   0C    basis set group =>   1
Atom   1C    basis set group =>   1
Atom   2C    basis set group =>   1
Atom   3C    basis set group =>   1
Atom   4C    basis set group =>   1
Atom   5C    basis set group =>   1
Atom   6H    basis set group =>   2
Atom   7H    basis set group =>   2
Atom   8H    basis set group =>   2
Atom   9H    basis set group =>   2
Atom  10H    basis set group =>   2
Atom  11N    basis set group =>   3
Atom  12H    basis set group =>   2
Atom  13H    basis set group =>   2
Atom  14N    basis set group =>   3
Atom  15O    basis set group =>   4
Atom  16O    basis set group =>   4
------------------------------------------------------------------------------
                           ORCA GTO INTEGRAL CALCULATION
                           -- RI-GTO INTEGRALS CHOSEN --
------------------------------------------------------------------------------
------------------------------------------------------------------------------
                   ___                                                        
                  /   \      - P O W E R E D   B Y -                         
                 /     \                                                     
                 |  |  |   _    _      __       _____    __    __             
                 |  |  |  | |  | |    /  \     |  _  \  |  |  /  |          
                  \  \/   | |  | |   /    \    | | | |  |  | /  /          
                 / \  \   | |__| |  /  /\  \   | |_| |  |  |/  /          
                |  |  |   |  __  | /  /__\  \  |    /   |      \           
                |  |  |   | |  | | |   __   |  |    \   |  |\   \          
                \     /   | |  | | |  |  |  |  | |\  \  |  | \   \       
                 \___/    |_|  |_| |__|  |__|  |_| \__\ |__|  \__/        
                                                                              
                      - O R C A' S   B I G   F R I E N D -                    
                                      &                                       
                       - I N T E G R A L  F E E D E R -                       
                                                                              
 v1 FN, 2020, v2 2021                                                         
------------------------------------------------------------------------------


Reading SHARK input file opt.SHARKINP.tmp ... ok
----------------------
SHARK INTEGRAL PACKAGE
----------------------

Number of atoms                             ...     17
Number of basis functions                   ...    175
Number of shells                            ...     81
Maximum angular momentum                    ...      2
Integral batch strategy                     ... SHARK/LIBINT Hybrid
RI-J (if used) integral strategy            ... SPLIT-RIJ (Revised 2003 algorithm where possible)
Printlevel                                  ...      1
Contraction scheme used                     ... SEGMENTED contraction
Coulomb Range Separation                    ... NOT USED
Exchange Range Separation                   ... NOT USED
Finite Nucleus Model                        ... NOT USED
Auxiliary Coulomb fitting basis             ... AVAILABLE
   # of basis functions in Aux-J            ...    567
   # of shells in Aux-J                     ...    185
   Maximum angular momentum in Aux-J        ...      4
Auxiliary J/K fitting basis                 ... NOT available
Auxiliary Correlation fitting basis         ... NOT available
Auxiliary 'external' fitting basis          ... NOT available
Integral threshold                          ...     2.500000e-11
Primitive cut-off                           ...     2.500000e-12
Primitive pair pre-selection threshold      ...     2.500000e-12

Calculating pre-screening integrals         ... done (  0.1 sec) Dimension = 81
Organizing shell pair data                  ... done (  0.1 sec)
Shell pair information
Total number of shell pairs                 ...      3321
Shell pairs after pre-screening             ...      3027
Total number of primitive shell pairs       ...     12241
Primitive shell pairs kept                  ...      8021
          la=0 lb=0:    904 shell pairs
          la=1 lb=0:   1093 shell pairs
          la=1 lb=1:    353 shell pairs
          la=2 lb=0:    387 shell pairs
          la=2 lb=1:    242 shell pairs
          la=2 lb=2:     48 shell pairs

Calculating one electron integrals          ... done (  0.1 sec)
Calculating RI/J V-Matrix + Cholesky decomp.... done (  0.1 sec)
Calculating Nuclear repulsion               ... done (  0.0 sec) ENN=    512.070026800145 Eh

SHARK setup successfully completed in   0.7 seconds

Maximum memory used throughout the entire GTOINT-calculation: 24.7 MB
-------------------------------------------------------------------------------
                                 ORCA SCF
-------------------------------------------------------------------------------

------------
SCF SETTINGS
------------
Hamiltonian:
 Density Functional     Method          .... DFT(GTOs)
 Exchange Functional    Exchange        .... B88
   X-Alpha parameter    XAlpha          ....  0.666667
   Becke's b parameter  XBeta           ....  0.004200
 Correlation Functional Correlation     .... LYP
 LDA part of GGA corr.  LDAOpt          .... VWN-5
 Gradients option       PostSCFGGA      .... off
 Hybrid DFT is turned on
   Fraction HF Exchange ScalHFX         ....  0.200000
   Scaling of DF-GGA-X  ScalDFX         ....  0.720000
   Scaling of DF-GGA-C  ScalDFC         ....  0.810000
   Scaling of DF-LDA-C  ScalLDAC        ....  1.000000
   Perturbative correction              ....  0.000000
   Density functional embedding theory  .... OFF
   NL short-range parameter             ....  4.800000
 RI-approximation to the Coulomb term is turned on
   Number of AuxJ basis functions       .... 567
   RIJ-COSX (HFX calculated with COS-X)).... on


General Settings:
 Integral files         IntName         .... opt
 Hartree-Fock type      HFTyp           .... RHF
 Total Charge           Charge          ....    1
 Multiplicity           Mult            ....    1
 Number of Electrons    NEL             ....   72
 Basis Dimension        Dim             ....  175
 Nuclear Repulsion      ENuc            ....    512.0700268001 Eh

Convergence Acceleration:
 DIIS                   CNVDIIS         .... on
   Start iteration      DIISMaxIt       ....    12
   Startup error        DIISStart       ....  0.200000
   # of expansion vecs  DIISMaxEq       ....     5
   Bias factor          DIISBfac        ....   1.050
   Max. coefficient     DIISMaxC        ....  10.000
 Trust-Rad. Augm. Hess. CNVTRAH         .... auto
   Auto Start mean grad. ratio tolernc. ....  1.125000
   Auto Start start iteration           ....    20
   Auto Start num. interpolation iter.  ....    10
   Max. Number of Micro iterations      ....    16
   Max. Number of Macro iterations      .... Maxiter - #DIIS iter
   Number of Davidson start vectors     ....     2
   Converg. threshold I  (grad. norm)   ....   1.000e-05
   Converg. threshold II (energy diff.) ....   1.000e-08
   Grad. Scal. Fac. for Micro threshold ....   0.100
   Minimum threshold for Micro iter.    ....   0.010
   NR start threshold (gradient norm)   ....   0.001
   Initial trust radius                 ....   0.400
   Minimum AH scaling param. (alpha)    ....   1.000
   Maximum AH scaling param. (alpha)    .... 1000.000
   Orbital update algorithm             .... Taylor
   White noise on init. David. guess    .... on
   Maximum white noise                  ....   0.010
   Quad. conv. algorithm                .... NR
 SOSCF                  CNVSOSCF        .... on
   Start iteration      SOSCFMaxIt      ....   150
   Startup grad/error   SOSCFStart      ....  0.003300
 Level Shifting         CNVShift        .... on
   Level shift para.    LevelShift      ....    0.2500
   Turn off err/grad.   ShiftErr        ....    0.0010
 Zerner damping         CNVZerner       .... off
 Static damping         CNVDamp         .... on
   Fraction old density DampFac         ....    0.7000
   Max. Damping (<1)    DampMax         ....    0.9800
   Min. Damping (>=0)   DampMin         ....    0.0000
   Turn off err/grad.   DampErr         ....    0.1000
 Fernandez-Rico         CNVRico         .... off

SCF Procedure:
 Maximum # iterations   MaxIter         ....   125
 SCF integral mode      SCFMode         .... Direct
   Integral package                     .... SHARK and LIBINT hybrid scheme
 Reset frequency        DirectResetFreq ....    20
 Integral Threshold     Thresh          ....  2.500e-11 Eh
 Primitive CutOff       TCut            ....  2.500e-12 Eh

Convergence Tolerance:
 Convergence Check Mode ConvCheckMode   .... Total+1el-Energy
 Convergence forced     ConvForced      .... 0
 Energy Change          TolE            ....  1.000e-08 Eh
 1-El. energy change                    ....  1.000e-05 Eh
 Orbital Gradient       TolG            ....  1.000e-05
 Orbital Rotation angle TolX            ....  1.000e-05
 DIIS Error             TolErr          ....  5.000e-07


Diagonalization of the overlap matrix:
Smallest eigenvalue                        ... 2.999e-04
Time for diagonalization                   ...    0.014 sec
Threshold for overlap eigenvalues          ... 1.000e-08
Number of eigenvalues below threshold      ... 0
Time for construction of square roots      ...    0.019 sec
Total time needed                          ...    0.033 sec

Time for model grid setup =    1.340 sec

------------------------------
INITIAL GUESS: MODEL POTENTIAL
------------------------------
Loading Hartree-Fock densities                     ... done
Calculating cut-offs                               ... done
Initializing the effective Hamiltonian             ... done
Setting up the integral package (SHARK)            ... done
Starting the Coulomb interaction                   ... done (   1.2 sec)
Reading the grid                                   ... done
Mapping shells                                     ... done
Starting the XC term evaluation                    ... done (   1.5 sec)
  promolecular density results
     # of electrons  =     72.998383299
     EX              =    -62.520700923
     EC              =     -2.520977855
     EX+EC           =    -65.041678777
Transforming the Hamiltonian                       ... done (   0.1 sec)
Diagonalizing the Hamiltonian                      ... done (   0.0 sec)
Back transforming the eigenvectors                 ... done (   0.0 sec)
Now organizing SCF variables                       ... done
                      ------------------
                      INITIAL GUESS DONE (   4.3 sec)
                      ------------------
-------------------
DFT GRID GENERATION
-------------------

General Integration Accuracy     IntAcc      ... 4.388
Radial Grid Type                 RadialGrid  ... OptM3 with GC (2021)
Angular Grid (max. ang.)         AngularGrid ... 4 (Lebedev-302)
Angular grid pruning method      GridPruning ... 4 (adaptive)
Weight generation scheme         WeightScheme... Becke
Basis function cutoff            BFCut       ... 1.0000e-11
Integration weight cutoff        WCut        ... 1.0000e-14
Angular grids for H and He will be reduced by one unit
Partially contracted basis set               ... off
Rotationally invariant grid construction     ... off

Total number of grid points                  ...    82753
Total number of batches                      ...     1302
Average number of points per batch           ...       63
Average number of grid points per atom       ...     4868
Time for grid setup =    4.134 sec

--------------------
COSX GRID GENERATION
--------------------

GRIDX 1
-------
General Integration Accuracy     IntAcc      ... 3.816
Radial Grid Type                 RadialGrid  ... OptM3 with GC (2021)
Angular Grid (max. ang.)         AngularGrid ... 1 (Lebedev-50)
Angular grid pruning method      GridPruning ... 4 (adaptive)
Weight generation scheme         WeightScheme... Becke
Basis function cutoff            BFCut       ... 1.0000e-11
Integration weight cutoff        WCut        ... 1.0000e-14
Angular grids for H and He will be reduced by one unit
Partially contracted basis set               ... on
Rotationally invariant grid construction     ... off

Total number of grid points                  ...    10542
Total number of batches                      ...      173
Average number of points per batch           ...       60
Average number of grid points per atom       ...      620
UseSFitting                                  ... on

GRIDX 2
-------
General Integration Accuracy     IntAcc      ... 4.020
Radial Grid Type                 RadialGrid  ... OptM3 with GC (2021)
Angular Grid (max. ang.)         AngularGrid ... 2 (Lebedev-110)
Angular grid pruning method      GridPruning ... 4 (adaptive)
Weight generation scheme         WeightScheme... Becke
Basis function cutoff            BFCut       ... 1.0000e-11
Integration weight cutoff        WCut        ... 1.0000e-14
Angular grids for H and He will be reduced by one unit
Partially contracted basis set               ... on
Rotationally invariant grid construction     ... off

Total number of grid points                  ...    23310
Total number of batches                      ...      373
Average number of points per batch           ...       62
Average number of grid points per atom       ...     1371
UseSFitting                                  ... on

GRIDX 3
-------
General Integration Accuracy     IntAcc      ... 4.338
Radial Grid Type                 RadialGrid  ... OptM3 with GC (2021)
Angular Grid (max. ang.)         AngularGrid ... 3 (Lebedev-194)
Angular grid pruning method      GridPruning ... 4 (adaptive)
Weight generation scheme         WeightScheme... Becke
Basis function cutoff            BFCut       ... 1.0000e-11
Integration weight cutoff        WCut        ... 1.0000e-14
Angular grids for H and He will be reduced by one unit
Partially contracted basis set               ... on
Rotationally invariant grid construction     ... off

Total number of grid points                  ...    51274
Total number of batches                      ...      811
Average number of points per batch           ...       63
Average number of grid points per atom       ...     3016
UseSFitting                                  ... on

Time for X-Grid setup             =    3.775 sec

--------------
SCF ITERATIONS
--------------
ITER       Energy         Delta-E        Max-DP      RMS-DP      [F,P]     Damp
               ***  Starting incremental Fock matrix formation  ***
  0   -491.4510256719   0.000000000000 0.10924748  0.00324791  0.2310994 0.7000
  1   -491.5826660193  -0.131640347372 0.05680487  0.00199689  0.0934810 0.7000
                               ***Turning on DIIS***
  2   -491.6238159661  -0.041149946808 0.06167548  0.00291444  0.0335335 0.0000
  3   -491.7024385398  -0.078622573679 0.05323835  0.00138238  0.0522267 0.0000
  4   -491.7149147489  -0.012476209084 0.01454786  0.00037997  0.0163240 0.0000
                      *** Initiating the SOSCF procedure ***
                           *** Shutting down DIIS ***
                      *** Re-Reading the Fockian *** 
                      *** Removing any level shift *** 
ITER      Energy       Delta-E        Grad      Rot      Max-DP    RMS-DP
  5   -491.71621921  -0.0013044608  0.000691  0.000691  0.003964  0.000135
               *** Restarting incremental Fock matrix formation ***
  6   -491.71625898  -0.0000397718  0.000827  0.006269  0.005040  0.000118
  7   -491.71621249   0.0000464867  0.002507  0.003759  0.003474  0.000077
  8   -491.71627457  -0.0000620774  0.000498  0.001369  0.002072  0.000043
  9   -491.71626558   0.0000089903  0.000863  0.000904  0.001421  0.000031
 10   -491.71627691  -0.0000113265  0.000076  0.000806  0.000614  0.000012
 11   -491.71627612   0.0000007850  0.000221  0.000641  0.000471  0.000009
 12   -491.71627702  -0.0000008919  0.000019  0.000098  0.000108  0.000003
 13   -491.71627699   0.0000000253  0.000042  0.000071  0.000074  0.000002
                  ***Gradient check signals convergence***
              ***Rediagonalizing the Fockian in SOSCF/NRSCF***

               *****************************************************
               *                     SUCCESS                       *
               *           SCF CONVERGED AFTER  14 CYCLES          *
               *****************************************************

Old exchange energy                            =    -12.558657345 Eh
New exchange energy                            =    -12.558656410 Eh
Exchange energy change after final integration =      0.000000934 Eh
Total energy after final integration           =   -491.716276090 Eh
Final COS-X integration done in                =    34.759 sec

----------------
TOTAL SCF ENERGY
----------------

Total Energy       :         -491.71627609 Eh          -13380.28011 eV

Components:
Nuclear Repulsion  :          512.07002680 Eh           13934.13383 eV
Electronic Energy  :        -1003.78630289 Eh          -27314.41394 eV
One Electron Energy:        -1669.34905856 Eh          -45425.29726 eV
Two Electron Energy:          665.56275567 Eh           18110.88332 eV
Max COSX asymmetry :            0.00000206 Eh               0.00006 eV

Virial components:
Potential Energy   :         -979.61526125 Eh          -26656.68646 eV
Kinetic Energy     :          487.89898516 Eh           13276.40635 eV
Virial Ratio       :            2.00782394


DFT components:
N(Alpha)           :       35.999983115010 electrons
N(Beta)            :       35.999983115010 electrons
N(Total)           :       71.999966230020 electrons
E(X)               :      -50.028336016533 Eh       
E(C)               :       -2.932118111706 Eh       
E(XC)              :      -52.960454128238 Eh       
DFET-embed. en.    :        0.000000000000 Eh       

---------------
SCF CONVERGENCE
---------------

  Last Energy change         ...   -3.4172e-08  Tolerance :   1.0000e-08
  Last MAX-Density change    ...    4.4409e-15  Tolerance :   1.0000e-07
  Last RMS-Density change    ...    5.0289e-17  Tolerance :   5.0000e-09
  Last Orbital Gradient      ...    1.9032e-06  Tolerance :   1.0000e-05
  Last Orbital Rotation      ...    8.0008e-06  Tolerance :   1.0000e-05

             **** THE GBW FILE WAS UPDATED (opt.gbw) ****
             **** DENSITY opt.scfp WAS UPDATED ****
             **** ENERGY FILE WAS UPDATED (opt.en.tmp) ****
             **** THE GBW FILE WAS UPDATED (opt.gbw) ****
             **** DENSITY opt.scfp WAS UPDATED ****
----------------
ORBITAL ENERGIES
----------------

  NO   OCC          E(Eh)            E(eV) 
   0   2.0000     -19.324408      -525.8439 
   1   2.0000     -19.324087      -525.8351 
   2   2.0000     -14.733100      -400.9080 
   3   2.0000     -14.526539      -395.2872 
   4   2.0000     -10.462405      -284.6965 
   5   2.0000     -10.458843      -284.5996 
   6   2.0000     -10.447102      -284.2801 
   7   2.0000     -10.430669      -283.8329 
   8   2.0000     -10.419717      -283.5349 
   9   2.0000     -10.408837      -283.2388 
  10   2.0000      -1.421018       -38.6679 
  11   2.0000      -1.223890       -33.3037 
  12   2.0000      -1.116653       -30.3857 
  13   2.0000      -1.076606       -29.2959 
  14   2.0000      -1.006219       -27.3806 
  15   2.0000      -0.946699       -25.7610 
  16   2.0000      -0.907346       -24.6901 
  17   2.0000      -0.819580       -22.3019 
  18   2.0000      -0.803071       -21.8527 
  19   2.0000      -0.757840       -20.6219 
  20   2.0000      -0.732500       -19.9323 
  21   2.0000      -0.715774       -19.4772 
  22   2.0000      -0.700114       -19.0511 
  23   2.0000      -0.687952       -18.7201 
  24   2.0000      -0.668248       -18.1839 
  25   2.0000      -0.651404       -17.7256 
  26   2.0000      -0.645287       -17.5591 
  27   2.0000      -0.641690       -17.4613 
  28   2.0000      -0.592885       -16.1332 
  29   2.0000      -0.576383       -15.6842 
  30   2.0000      -0.564714       -15.3667 
  31   2.0000      -0.502406       -13.6712 
  32   2.0000      -0.488796       -13.3008 
  33   2.0000      -0.472100       -12.8465 
  34   2.0000      -0.448601       -12.2071 
  35   2.0000      -0.414935       -11.2909 
  36   0.0000      -0.328372        -8.9355 
  37   0.0000      -0.227772        -6.1980 
  38   0.0000      -0.212201        -5.7743 
  39   0.0000      -0.127377        -3.4661 
  40   0.0000      -0.110584        -3.0091 
  41   0.0000      -0.095029        -2.5859 
  42   0.0000      -0.088676        -2.4130 
  43   0.0000      -0.076304        -2.0764 
  44   0.0000      -0.046756        -1.2723 
  45   0.0000      -0.024745        -0.6734 
  46   0.0000      -0.012760        -0.3472 
  47   0.0000       0.004609         0.1254 
  48   0.0000       0.014240         0.3875 
  49   0.0000       0.063018         1.7148 
  50   0.0000       0.081471         2.2169 
  51   0.0000       0.083996         2.2857 
  52   0.0000       0.109361         2.9759 
  53   0.0000       0.142752         3.8845 
  54   0.0000       0.167491         4.5577 
  55   0.0000       0.196842         5.3563 
  56   0.0000       0.201873         5.4932 
  57   0.0000       0.223877         6.0920 
  58   0.0000       0.248953         6.7743 
  59   0.0000       0.268044         7.2939 
  60   0.0000       0.280930         7.6445 
  61   0.0000       0.294471         8.0130 
  62   0.0000       0.301490         8.2040 
  63   0.0000       0.305756         8.3200 
  64   0.0000       0.331496         9.0205 
  65   0.0000       0.346355         9.4248 
  66   0.0000       0.353239         9.6121 
  67   0.0000       0.369343        10.0503 
  68   0.0000       0.394974        10.7478 
  69   0.0000       0.412692        11.2299 
  70   0.0000       0.422545        11.4980 
  71   0.0000       0.442583        12.0433 
  72   0.0000       0.451583        12.2882 
  73   0.0000       0.461629        12.5616 
  74   0.0000       0.479674        13.0526 
  75   0.0000       0.497659        13.5420 
  76   0.0000       0.502542        13.6749 
  77   0.0000       0.512669        13.9504 
  78   0.0000       0.524732        14.2787 
  79   0.0000       0.546108        14.8604 
  80   0.0000       0.559165        15.2157 
  81   0.0000       0.574964        15.6456 
  82   0.0000       0.608180        16.5494 
  83   0.0000       0.623221        16.9587 
  84   0.0000       0.635487        17.2925 
  85   0.0000       0.692892        18.8546 
  86   0.0000       0.711660        19.3652 
  87   0.0000       0.717786        19.5319 
  88   0.0000       0.759429        20.6651 
  89   0.0000       0.771088        20.9824 
  90   0.0000       0.805982        21.9319 
  91   0.0000       0.815121        22.1806 
  92   0.0000       0.857478        23.3332 
  93   0.0000       0.869403        23.6577 
  94   0.0000       0.883142        24.0315 
  95   0.0000       0.914647        24.8888 
  96   0.0000       0.948928        25.8216 
  97   0.0000       0.972710        26.4688 
  98   0.0000       1.013616        27.5819 
  99   0.0000       1.028571        27.9888 
 100   0.0000       1.058441        28.8016 
 101   0.0000       1.075502        29.2659 
 102   0.0000       1.097537        29.8655 
 103   0.0000       1.107449        30.1352 
 104   0.0000       1.127641        30.6847 
 105   0.0000       1.132212        30.8090 
 106   0.0000       1.191748        32.4291 
 107   0.0000       1.221138        33.2289 
 108   0.0000       1.248730        33.9797 
 109   0.0000       1.324661        36.0459 
 110   0.0000       1.366258        37.1778 
 111   0.0000       1.413022        38.4503 
 112   0.0000       1.444314        39.3018 
 113   0.0000       1.494546        40.6687 
 114   0.0000       1.509720        41.0816 
 115   0.0000       1.525578        41.5131 
 116   0.0000       1.535703        41.7886 
 117   0.0000       1.540400        41.9164 
 118   0.0000       1.561094        42.4795 
 119   0.0000       1.567021        42.6408 
 120   0.0000       1.577235        42.9187 
 121   0.0000       1.630621        44.3714 
 122   0.0000       1.636307        44.5262 
 123   0.0000       1.646224        44.7960 
 124   0.0000       1.669851        45.4390 
 125   0.0000       1.711468        46.5714 
 126   0.0000       1.734356        47.1942 
 127   0.0000       1.757375        47.8206 
 128   0.0000       1.766832        48.0780 
 129   0.0000       1.781461        48.4760 
 130   0.0000       1.801551        49.0227 
 131   0.0000       1.841604        50.1126 
 132   0.0000       1.895378        51.5759 
 133   0.0000       1.910954        51.9997 
 134   0.0000       1.945058        52.9277 
 135   0.0000       1.957674        53.2710 
 136   0.0000       1.965526        53.4847 
 137   0.0000       1.991089        54.1803 
 138   0.0000       2.040063        55.5129 
 139   0.0000       2.080253        56.6066 
 140   0.0000       2.129165        57.9375 
 141   0.0000       2.134105        58.0719 
 142   0.0000       2.137120        58.1540 
 143   0.0000       2.174185        59.1626 
 144   0.0000       2.215566        60.2886 
 145   0.0000       2.238378        60.9094 
 146   0.0000       2.259362        61.4804 
 147   0.0000       2.333169        63.4888 
 148   0.0000       2.346027        63.8386 
 149   0.0000       2.416323        65.7515 
 150   0.0000       2.423412        65.9444 
 151   0.0000       2.452792        66.7439 
 152   0.0000       2.468266        67.1649 
 153   0.0000       2.481814        67.5336 
 154   0.0000       2.495495        67.9059 
 155   0.0000       2.502097        68.0855 
 156   0.0000       2.529843        68.8405 
 157   0.0000       2.543560        69.2138 
 158   0.0000       2.560948        69.6869 
 159   0.0000       2.580332        70.2144 
 160   0.0000       2.630579        71.5817 
 161   0.0000       2.676489        72.8310 
 162   0.0000       2.801232        76.2254 
 163   0.0000       2.819858        76.7322 
 164   0.0000       2.835190        77.1494 
 165   0.0000       2.880419        78.3802 
 166   0.0000       2.987163        81.2848 
 167   0.0000       3.007432        81.8364 
 168   0.0000       3.064561        83.3909 
 169   0.0000       3.146649        85.6247 
 170   0.0000       3.237919        88.1083 
 171   0.0000       3.298203        89.7487 
 172   0.0000       3.380950        92.0003 
 173   0.0000       3.619206        98.4836 
 174   0.0000       3.646414        99.2240 

                    ********************************
                    * MULLIKEN POPULATION ANALYSIS *
                    ********************************

-----------------------
MULLIKEN ATOMIC CHARGES
-----------------------
   0 C :    0.109801
   1 C :    0.050973
   2 C :    0.046810
   3 C :    0.013445
   4 C :    0.240041
   5 C :   -0.020629
   6 H :    0.059030
   7 H :    0.069726
   8 H :    0.085720
   9 H :    0.173537
  10 H :    0.077322
  11 N :   -0.112684
  12 H :    0.166312
  13 H :    0.163909
  14 N :    0.209027
  15 O :   -0.171471
  16 O :   -0.160871
Sum of atomic charges:    1.0000000

--------------------------------
MULLIKEN REDUCED ORBITAL CHARGES
--------------------------------
  0 C s       :     2.971132  s :     2.971132
      pz      :     0.951000  p :     2.860598
      px      :     0.980664
      py      :     0.928935
      dz2     :     0.005144  d :     0.058470
      dxz     :     0.005244
      dyz     :     0.014020
      dx2y2   :     0.017044
      dxy     :     0.017017
  1 C s       :     3.273290  s :     3.273290
      pz      :     0.826508  p :     2.642262
      px      :     0.859649
      py      :     0.956105
      dz2     :     0.002768  d :     0.033475
      dxz     :     0.003149
      dyz     :     0.005917
      dx2y2   :     0.011082
      dxy     :     0.010560
  2 C s       :     3.174541  s :     3.174541
      pz      :     0.934496  p :     2.744855
      px      :     0.929025
      py      :     0.881333
      dz2     :     0.002551  d :     0.033795
      dxz     :     0.005237
      dyz     :     0.003002
      dx2y2   :     0.010893
      dxy     :     0.012111
  3 C s       :     3.235394  s :     3.235394
      pz      :     0.869955  p :     2.717525
      px      :     0.927284
      py      :     0.920286
      dz2     :     0.002732  d :     0.033636
      dxz     :     0.006818
      dyz     :     0.002242
      dx2y2   :     0.009415
      dxy     :     0.012429
  4 C s       :     2.795700  s :     2.795700
      pz      :     1.004154  p :     2.905831
      px      :     0.921943
      py      :     0.979734
      dz2     :     0.010392  d :     0.058428
      dxz     :     0.007831
      dyz     :     0.009739
      dx2y2   :     0.018200
      dxy     :     0.012265
  5 C s       :     3.351435  s :     3.351435
      pz      :     0.816556  p :     2.636746
      px      :     0.922223
      py      :     0.897967
      dz2     :     0.002560  d :     0.032448
      dxz     :     0.004852
      dyz     :     0.004270
      dx2y2   :     0.009567
      dxy     :     0.011199
  6 H s       :     0.917664  s :     0.917664
      pz      :     0.003467  p :     0.023306
      px      :     0.016695
      py      :     0.003145
  7 H s       :     0.906769  s :     0.906769
      pz      :     0.004026  p :     0.023505
      px      :     0.006888
      py      :     0.012591
  8 H s       :     0.890240  s :     0.890240
      pz      :     0.004422  p :     0.024040
      px      :     0.006420
      py      :     0.013198
  9 H s       :     0.796435  s :     0.796435
      pz      :     0.016011  p :     0.030028
      px      :     0.005347
      py      :     0.008670
 10 H s       :     0.898391  s :     0.898391
      pz      :     0.003625  p :     0.024286
      px      :     0.006773
      py      :     0.013889
 11 N s       :     3.334066  s :     3.334066
      pz      :     1.701000  p :     3.765927
      px      :     1.027261
      py      :     1.037666
      dz2     :     0.001731  d :     0.012690
      dxz     :     0.000594
      dyz     :     0.001708
      dx2y2   :     0.004327
      dxy     :     0.004329
 12 H s       :     0.790200  s :     0.790200
      pz      :     0.011925  p :     0.043488
      px      :     0.025156
      py      :     0.006407
 13 H s       :     0.792792  s :     0.792792
      pz      :     0.011799  p :     0.043299
      px      :     0.010969
      py      :     0.020531
 14 N s       :     3.274108  s :     3.274108
      pz      :     1.191671  p :     3.390527
      px      :     1.145899
      py      :     1.052957
      dz2     :     0.008568  d :     0.126338
      dxz     :     0.009762
      dyz     :     0.030238
      dx2y2   :     0.043001
      dxy     :     0.034769
 15 O s       :     3.866610  s :     3.866610
      pz      :     1.443691  p :     4.280252
      px      :     1.542663
      py      :     1.293898
      dz2     :     0.002944  d :     0.024608
      dxz     :     0.002245
      dyz     :     0.005137
      dx2y2   :     0.005951
      dxy     :     0.008332
 16 O s       :     3.866235  s :     3.866235
      pz      :     1.366193  p :     4.269937
      px      :     1.586204
      py      :     1.317539
      dz2     :     0.003484  d :     0.024698
      dxz     :     0.002356
      dyz     :     0.006231
      dx2y2   :     0.005338
      dxy     :     0.007289


                     *******************************
                     * LOEWDIN POPULATION ANALYSIS *
                     *******************************

----------------------
LOEWDIN ATOMIC CHARGES
----------------------
   0 C :    0.046167
   1 C :    0.106141
   2 C :    0.027579
   3 C :    0.070118
   4 C :   -0.011238
   5 C :    0.119826
   6 H :    0.065901
   7 H :    0.067971
   8 H :    0.069962
   9 H :    0.165595
  10 H :    0.068289
  11 N :   -0.010876
  12 H :    0.109138
  13 H :    0.106239
  14 N :    0.268007
  15 O :   -0.140409
  16 O :   -0.128410

-------------------------------
LOEWDIN REDUCED ORBITAL CHARGES
-------------------------------
  0 C s       :     2.843493  s :     2.843493
      pz      :     0.941898  p :     2.972620
      px      :     1.023093
      py      :     1.007629
      dz2     :     0.010920  d :     0.137720
      dxz     :     0.010432
      dyz     :     0.027842
      dx2y2   :     0.044669
      dxy     :     0.043857
  1 C s       :     2.879621  s :     2.879621
      pz      :     0.813567  p :     2.928799
      px      :     1.062103
      py      :     1.053129
      dz2     :     0.006470  d :     0.085438
      dxz     :     0.005322
      dyz     :     0.012318
      dx2y2   :     0.031370
      dxy     :     0.029957
  2 C s       :     2.866784  s :     2.866784
      pz      :     0.923750  p :     3.018627
      px      :     1.067528
      py      :     1.027350
      dz2     :     0.006173  d :     0.087009
      dxz     :     0.010844
      dyz     :     0.005668
      dx2y2   :     0.029762
      dxy     :     0.034562
  3 C s       :     2.876500  s :     2.876500
      pz      :     0.872537  p :     2.968813
      px      :     1.072492
      py      :     1.023784
      dz2     :     0.006279  d :     0.084569
      dxz     :     0.013209
      dyz     :     0.004241
      dx2y2   :     0.026350
      dxy     :     0.034491
  4 C s       :     2.804620  s :     2.804620
      pz      :     1.010019  p :     3.061150
      px      :     0.958612
      py      :     1.092519
      dz2     :     0.025467  d :     0.145468
      dxz     :     0.019639
      dyz     :     0.019873
      dx2y2   :     0.044408
      dxy     :     0.036080
  5 C s       :     2.885275  s :     2.885275
      pz      :     0.810137  p :     2.912146
      px      :     1.033862
      py      :     1.068147
      dz2     :     0.006047  d :     0.082754
      dxz     :     0.009524
      dyz     :     0.008250
      dx2y2   :     0.029365
      dxy     :     0.029567
  6 H s       :     0.863458  s :     0.863458
      pz      :     0.011066  p :     0.070641
      px      :     0.048763
      py      :     0.010813
  7 H s       :     0.861846  s :     0.861846
      pz      :     0.012874  p :     0.070184
      px      :     0.019750
      py      :     0.037560
  8 H s       :     0.855069  s :     0.855069
      pz      :     0.014574  p :     0.074969
      px      :     0.019171
      py      :     0.041224
  9 H s       :     0.751475  s :     0.751475
      pz      :     0.045167  p :     0.082930
      px      :     0.016704
      py      :     0.021059
 10 H s       :     0.854272  s :     0.854272
      pz      :     0.012742  p :     0.077440
      px      :     0.022684
      py      :     0.042014
 11 N s       :     3.046537  s :     3.046537
      pz      :     1.646872  p :     3.929854
      px      :     1.152120
      py      :     1.130862
      dz2     :     0.002555  d :     0.034485
      dxz     :     0.001259
      dyz     :     0.003297
      dx2y2   :     0.013747
      dxy     :     0.013627
 12 H s       :     0.772552  s :     0.772552
      pz      :     0.037234  p :     0.118311
      px      :     0.067401
      py      :     0.013675
 13 H s       :     0.775526  s :     0.775526
      pz      :     0.037051  p :     0.118235
      px      :     0.027247
      py      :     0.053937
 14 N s       :     3.019358  s :     3.019358
      pz      :     1.142985  p :     3.446593
      px      :     1.157327
      py      :     1.146281
      dz2     :     0.018197  d :     0.266042
      dxz     :     0.018308
      dyz     :     0.056536
      dx2y2   :     0.092791
      dxy     :     0.080210
 15 O s       :     3.603878  s :     3.603878
      pz      :     1.454566  p :     4.488862
      px      :     1.603712
      py      :     1.430584
      dz2     :     0.007152  d :     0.047669
      dxz     :     0.003000
      dyz     :     0.007660
      dx2y2   :     0.010629
      dxy     :     0.019228
 16 O s       :     3.603721  s :     3.603721
      pz      :     1.391869  p :     4.476900
      px      :     1.635137
      py      :     1.449894
      dz2     :     0.006453  d :     0.047789
      dxz     :     0.003947
      dyz     :     0.011426
      dx2y2   :     0.009995
      dxy     :     0.015968


                      *****************************
                      * MAYER POPULATION ANALYSIS *
                      *****************************

  NA   - Mulliken gross atomic population
  ZA   - Total nuclear charge
  QA   - Mulliken gross atomic charge
  VA   - Mayer's total valence
  BVA  - Mayer's bonded valence
  FA   - Mayer's free valence

  ATOM       NA         ZA         QA         VA         BVA        FA
  0 C      5.8902     6.0000     0.1098     4.0374     4.0374    -0.0000
  1 C      5.9490     6.0000     0.0510     3.7590     3.7590    -0.0000
  2 C      5.9532     6.0000     0.0468     3.8754     3.8754    -0.0000
  3 C      5.9866     6.0000     0.0134     3.9074     3.9074    -0.0000
  4 C      5.7600     6.0000     0.2400     3.7535     3.7535    -0.0000
  5 C      6.0206     6.0000    -0.0206     3.8378     3.8378    -0.0000
  6 H      0.9410     1.0000     0.0590     0.9924     0.9924    -0.0000
  7 H      0.9303     1.0000     0.0697     0.9835     0.9835     0.0000
  8 H      0.9143     1.0000     0.0857     1.0091     1.0091    -0.0000
  9 H      0.8265     1.0000     0.1735     0.9814     0.9814    -0.0000
 10 H      0.9227     1.0000     0.0773     1.0259     1.0259    -0.0000
 11 N      7.1127     7.0000    -0.1127     3.2781     3.2781    -0.0000
 12 H      0.8337     1.0000     0.1663     0.9835     0.9835     0.0000
 13 H      0.8361     1.0000     0.1639     0.9837     0.9837    -0.0000
 14 N      6.7910     7.0000     0.2090     4.0189     4.0189    -0.0000
 15 O      8.1715     8.0000    -0.1715     2.0038     2.0038    -0.0000
 16 O      8.1609     8.0000    -0.1609     2.0182     2.0182     0.0000

  Mayer bond orders larger than 0.100000
B(  0-C ,  1-C ) :   1.3338 B(  0-C ,  5-C ) :   1.2478 B(  0-C , 11-N ) :   1.2981 
B(  1-C ,  2-C ) :   1.2040 B(  1-C ,  5-C ) :   0.1331 B(  1-C ,  6-H ) :   0.9927 
B(  2-C ,  3-C ) :   1.5870 B(  2-C ,  7-H ) :   0.9790 B(  3-C ,  4-C ) :   1.0070 
B(  3-C ,  5-C ) :   0.1033 B(  3-C ,  8-H ) :   0.9729 B(  4-C ,  5-C ) :   1.0681 
B(  4-C ,  9-H ) :   0.7343 B(  4-C , 14-N ) :   0.8102 B(  5-C ,  9-H ) :   0.1017 
B(  5-C , 10-H ) :   0.9716 B( 11-N , 12-H ) :   0.9331 B( 11-N , 13-H ) :   0.9330 
B( 14-N , 15-O ) :   1.5672 B( 14-N , 16-O ) :   1.5863 B( 15-O , 16-O ) :   0.2899 


-------
TIMINGS
-------

Total SCF time: 0 days 0 hours 5 min 19 sec 

Total time                  ....     319.488 sec
Sum of individual times     ....     295.760 sec  ( 92.6%)

Fock matrix formation       ....     283.158 sec  ( 88.6%)
  Split-RI-J                ....      18.534 sec  (  6.5% of F)
  Chain of spheres X        ....     218.056 sec  ( 77.0% of F)
  XC integration            ....      42.351 sec  ( 15.0% of F)
    Basis function eval.    ....      15.960 sec  ( 37.7% of XC)
    Density eval.           ....      11.976 sec  ( 28.3% of XC)
    XC-Functional eval.     ....       3.080 sec  (  7.3% of XC)
    XC-Potential eval.      ....       9.227 sec  ( 21.8% of XC)
Diagonalization             ....       0.070 sec  (  0.0%)
Density matrix formation    ....       0.017 sec  (  0.0%)
Population analysis         ....       0.087 sec  (  0.0%)
Initial guess               ....       2.936 sec  (  0.9%)
Orbital Transformation      ....       0.000 sec  (  0.0%)
Orbital Orthonormalization  ....       0.000 sec  (  0.0%)
DIIS solution               ....       0.110 sec  (  0.0%)
SOSCF solution              ....       0.133 sec  (  0.0%)
Grid generation             ....       9.249 sec  (  2.9%)

Maximum memory used throughout the entire SCF-calculation: 74.5 MB


-------------------------------------------------------------------------------
                          DFT DISPERSION CORRECTION                            
                                                                               
                                 DFTD4 V2.5                                    
-------------------------------------------------------------------------------
The B3LYP functional is recognized
Active option DFTDOPT                   ...         5   

Starting D4
-------------------------   ----------------
Dispersion correction           -0.025964710
-------------------------   ----------------


-------------------------   --------------------
FINAL SINGLE POINT ENERGY      -491.742240800092
-------------------------   --------------------

------------------------------------------------------------------------------
                         ORCA SCF GRADIENT CALCULATION
------------------------------------------------------------------------------

 ... reading COSX grid (gridx3)
Gradient of the Kohn-Sham DFT energy:
Kohn-Sham wavefunction type      ... RKS
Hartree-Fock exchange scaling    ...    0.200
Number of operators              ...    1
Number of atoms                  ...   17
Basis set dimensions             ...  175
Integral neglect threshold       ... 2.5e-11
Integral primitive cutoff        ... 2.5e-12
SHARK Integral package           ... ON

Nuc. rep. gradient       (SHARK) ... done (  0.0 sec)
HCore & Overlap gradient (SHARK) ... done (  0.7 sec)
RI-J gradient            (SHARK) ... done (  4.3 sec)
COSX-gradient                    ... done ( 43.3 sec)
Exchange-correlation gradient    ... done
Dispersion correction            ... Starting D4


------------------- 
Dispersion Gradient 
------------------- 
   1  :   -0.000399526    0.000330265    0.000085483
   2  :   -0.000500665   -0.000109546    0.000019570
   3  :   -0.000403567   -0.000552362   -0.000045527
   4  :   -0.000075276   -0.000526977   -0.000029488
   5  :    0.000344919   -0.000102825    0.000013568
   6  :    0.000046240    0.000347967    0.000077485
   7  :   -0.000184654   -0.000030682    0.000009524
   8  :   -0.000091395   -0.000147114   -0.000024011
   9  :    0.000030860   -0.000204437   -0.000040240
  10  :    0.000163630   -0.000035439    0.000128076
  11  :    0.000103802    0.000207971   -0.000000215
  12  :   -0.000319768    0.000480521    0.000093896
  13  :   -0.000180614    0.000098150    0.000028622
  14  :   -0.000003829    0.000219215    0.000027737
  15  :    0.000585447    0.000015182   -0.000117751
  16  :    0.000434990    0.000195829   -0.000077138
  17  :    0.000449405   -0.000185718   -0.000149593

  |G| =    0.001660058

done

------------------
CARTESIAN GRADIENT
------------------

   1   C   :   -0.046376885   -0.101808044   -0.012566181
   2   C   :   -0.003600979    0.086371582    0.015599421
   3   C   :    0.036343724   -0.038888474   -0.012626759
   4   C   :   -0.028244904    0.005793344    0.007415805
   5   C   :    0.026043631    0.073845938    0.004848488
   6   C   :    0.095032441   -0.077513897   -0.005357717
   7   H   :    0.005185987    0.001035484    0.000650374
   8   H   :    0.003574510    0.002960419   -0.000261372
   9   H   :   -0.008956599    0.000547934   -0.001408649
  10   H   :   -0.000885311    0.007659500   -0.029846325
  11   H   :   -0.005197514   -0.002766880   -0.001177719
  12   N   :   -0.023150301    0.028798647    0.005371291
  13   H   :   -0.016139608    0.000604412    0.002065679
  14   H   :    0.009547685    0.012502238    0.000761366
  15   N   :   -0.073188187    0.001861507    0.036420350
  16   O   :    0.014021661   -0.057865941   -0.014679942
  17   O   :    0.015975117    0.056878061    0.004698701

Difference to translation invariance:
           :   -0.0000155330    0.0000158295   -0.0000931901

Difference to rotation invariance:
           :    0.0000712164   -0.0000776996   -0.0002869265

Norm of the cartesian gradient     ...    0.2499553964
RMS gradient                       ...    0.0350007563
MAX gradient                       ...    0.1018080435

-------
TIMINGS
-------

Total SCF gradient time            ...       65.709 sec

One electron gradient       ....       0.697 sec  (  1.1%)
RI-J Coulomb gradient       ....       4.304 sec  (  6.6%)
COSX gradient               ....      43.291 sec  ( 65.9%)
XC gradient                 ....      15.690 sec  ( 23.9%)

Maximum memory used throughout the entire SCFGRAD-calculation: 60.0 MB
------------------------------------------------------------------------------
                         ORCA GEOMETRY RELAXATION STEP
------------------------------------------------------------------------------

Reading the OPT-File                    .... done
Getting information on internals        .... done
Copying old internal coords+grads       .... done
Making the new internal coordinates     .... (new redundants).... done
Validating the new internal coordinates .... (new redundants).... done
Calculating the B-matrix                .... done
Calculating the G,G- and P matrices     .... done
Transforming gradient to internals      .... done
Projecting the internal gradient        .... done
Number of atoms                         ....  17
Number of internal coordinates          ....  82
Current Energy                          ....  -491.742240800 Eh
Current gradient norm                   ....     0.249955396 Eh/bohr
Maximum allowed component of the step   ....  0.300
Current trust radius                    ....  0.300
Evaluating the initial hessian          ....  (Almloef) done
Projecting the Hessian                  .... done
Forming the augmented Hessian           .... done
Diagonalizing the augmented Hessian     .... done
Last element of RFO vector              ....  0.954071000
Lowest eigenvalues of augmented Hessian:
 -0.055251949  0.018273502  0.019049784  0.019381276  0.019621957
Length of the computed step             ....  0.314002400
Warning: the length of the step is outside the trust region - taking restricted step instead
The input lambda is                     ....    -0.055252
   iter:   1  x=   -0.075234  g=    0.430269 f(x)=     0.008598
   iter:   2  x=   -0.077557  g=    0.354392 f(x)=     0.000823
   iter:   3  x=   -0.077579  g=    0.347682 f(x)=     0.000008
   iter:   4  x=   -0.077579  g=    0.347619 f(x)=     0.000000
   iter:   5  x=   -0.077579  g=    0.347619 f(x)=     0.000000
The output lambda is                    ....    -0.077579 (5 iterations)
The final length of the internal step   ....  0.300000000
Converting the step to cartesian space:
 Initial RMS(Int)=    0.0331294578
Transforming coordinates:
 Iter   0:  RMS(Cart)=    0.0463557741 RMS(Int)=    0.0330908037
 Iter   1:  RMS(Cart)=    0.0010951217 RMS(Int)=    0.0007317031
 Iter   2:  RMS(Cart)=    0.0000493999 RMS(Int)=    0.0000408577
 Iter   3:  RMS(Cart)=    0.0000037695 RMS(Int)=    0.0000028606
 Iter   4:  RMS(Cart)=    0.0000002159 RMS(Int)=    0.0000001780
 Iter   5:  RMS(Cart)=    0.0000000129 RMS(Int)=    0.0000000077
done
Storing new coordinates                 .... done

                                .--------------------.
          ----------------------|Geometry convergence|-------------------------
          Item                value                   Tolerance       Converged
          ---------------------------------------------------------------------
          RMS gradient        0.0203198253            0.0001000000      NO
          MAX gradient        0.0829214461            0.0003000000      NO
          RMS step            0.0331294578            0.0020000000      NO
          MAX step            0.1152797612            0.0040000000      NO
          ........................................................
          Max(Bonds)      0.0575      Max(Angles)    6.61
          Max(Dihed)        1.30      Max(Improp)    0.00
          ---------------------------------------------------------------------

The optimization has not yet converged - more geometry cycles are needed


    ---------------------------------------------------------------------------
                         Redundant Internal Coordinates
                            (Angstroem and degrees)

        Definition                    Value    dE/dq     Step     New-Value
    ----------------------------------------------------------------------------
     1. B(C   1,C   0)                1.3446 -0.065789  0.0428    1.3874   
     2. B(C   2,C   1)                1.4775  0.030702 -0.0315    1.4459   
     3. B(C   3,C   2)                1.3435 -0.021472  0.0131    1.3566   
     4. B(C   4,C   3)                1.4995  0.013551 -0.0148    1.4847   
     5. B(C   5,C   4)                1.3606 -0.082921  0.0575    1.4180   
     6. B(C   5,C   0)                1.4888  0.055809 -0.0565    1.4323   
     7. B(H   6,C   1)                1.0859 -0.005121  0.0061    1.0920   
     8. B(H   7,C   2)                1.0854 -0.004320  0.0052    1.0905   
     9. B(H   8,C   3)                1.0860 -0.004287  0.0051    1.0911   
    10. B(H   9,C   4)                1.0885 -0.030066  0.0362    1.1247   
    11. B(H  10,C   5)                1.0867 -0.004899  0.0059    1.0925   
    12. B(N  11,C   0)                1.4194  0.051699 -0.0472    1.3722   
    13. B(H  12,N  11)                1.0308  0.016277 -0.0180    1.0128   
    14. B(H  13,N  11)                1.0302  0.015647 -0.0173    1.0129   
    15. B(N  14,C   4)                1.4363 -0.049847  0.0480    1.4843   
    16. B(O  15,N  14)                1.1954 -0.042158  0.0202    1.2157   
    17. B(O  16,N  14)                1.1945 -0.041975  0.0201    1.2146   
    18. A(C   1,C   0,C   5)          119.50  0.009173   -0.90    118.60   
    19. A(C   5,C   0,N  11)          120.00  0.001501   -0.25    119.75   
    20. A(C   1,C   0,N  11)          120.49 -0.010668    1.14    121.64   
    21. A(C   0,C   1,H   6)          120.78  0.005971   -0.63    120.16   
    22. A(C   0,C   1,C   2)          119.84 -0.014272    1.63    121.47   
    23. A(C   2,C   1,H   6)          119.35  0.008274   -1.00    118.35   
    24. A(C   3,C   2,H   7)          120.13  0.000733    0.06    120.19   
    25. A(C   1,C   2,H   7)          119.72  0.004035   -0.39    119.33   
    26. A(C   1,C   2,C   3)          120.14 -0.004764    0.33    120.46   
    27. A(C   2,C   3,C   4)          121.41  0.012411   -1.66    119.76   
    28. A(C   4,C   3,H   8)          119.92  0.001814   -0.22    119.70   
    29. A(C   2,C   3,H   8)          118.65 -0.014201    1.87    120.52   
    30. A(C   5,C   4,H   9)           99.41  0.000858    0.16     99.57   
    31. A(C   3,C   4,H   9)           99.29  0.003199   -0.62     98.67   
    32. A(H   9,C   4,N  14)           99.24 -0.006323    1.31    100.56   
    33. A(C   3,C   4,N  14)          118.21  0.007979   -1.17    117.03   
    34. A(C   3,C   4,C   5)          116.34 -0.011365    1.40    117.74   
    35. A(C   5,C   4,N  14)          117.76  0.004636   -0.70    117.06   
    36. A(C   0,C   5,H  10)          117.76 -0.007635    0.85    118.61   
    37. A(C   0,C   5,C   4)          121.56  0.008932   -0.82    120.74   
    38. A(C   4,C   5,H  10)          120.66 -0.001282   -0.04    120.62   
    39. A(H  12,N  11,H  13)          118.62  0.001032   -0.15    118.47   
    40. A(C   0,N  11,H  13)          120.40 -0.002388    0.33    120.73   
    41. A(C   0,N  11,H  12)          120.97  0.001355   -0.18    120.80   
    42. A(O  15,N  14,O  16)          118.87 -0.064933    6.61    125.48   
    43. A(C   4,N  14,O  16)          120.11  0.029462   -2.95    117.16   
    44. A(C   4,N  14,O  15)          120.91  0.035525   -3.62    117.29   
    45. D(H   6,C   1,C   0,N  11)     -0.19 -0.000862    0.06     -0.13   
    46. D(C   2,C   1,C   0,C   5)     -1.10 -0.001962    0.59     -0.51   
    47. D(H   6,C   1,C   0,C   5)   -179.04 -0.001214    0.30   -178.74   
    48. D(C   2,C   1,C   0,N  11)    177.76 -0.001610    0.35    178.11   
    49. D(C   3,C   2,C   1,H   6)   -178.65 -0.000163   -0.33   -178.98   
    50. D(C   3,C   2,C   1,C   0)      3.38  0.000613   -0.62      2.76   
    51. D(H   7,C   2,C   1,C   0)   -175.74  0.000259   -0.40   -176.14   
    52. D(H   7,C   2,C   1,H   6)      2.24 -0.000517   -0.11      2.12   
    53. D(H   8,C   3,C   2,H   7)      0.03 -0.000191   -0.21     -0.17   
    54. D(H   8,C   3,C   2,C   1)   -179.08 -0.000576    0.01   -179.07   
    55. D(C   4,C   3,C   2,H   7)   -178.33 -0.001200    0.35   -177.98   
    56. D(C   4,C   3,C   2,C   1)      2.55 -0.001585    0.58      3.13   
    57. D(H   9,C   4,C   3,C   2)     94.67  0.000071   -0.04     94.63   
    58. D(C   5,C   4,C   3,H   8)    170.91  0.000003    0.23    171.14   
    59. D(C   5,C   4,C   3,C   2)    -10.75  0.000771   -0.31    -11.05   
    60. D(N  14,C   4,C   3,H   8)     22.12 -0.003656    1.30     23.42   
    61. D(N  14,C   4,C   3,C   2)   -159.53 -0.002889    0.76   -158.77   
    62. D(H   9,C   4,C   3,H   8)    -83.68 -0.000696    0.50    -83.18   
    63. D(H  10,C   5,C   4,N  14)    -19.62  0.003460   -1.21    -20.83   
    64. D(H  10,C   5,C   4,C   3)   -168.55 -0.001287    0.01   -168.54   
    65. D(C   0,C   5,C   4,N  14)    162.02  0.002975   -0.92    161.11   
    66. D(C   0,C   5,C   4,H   9)    -92.24 -0.002457    0.50    -91.74   
    67. D(C   0,C   5,C   4,C   3)     13.10 -0.001772    0.30     13.40   
    68. D(H  10,C   5,C   0,N  11)     -4.97 -0.001456    0.37     -4.60   
    69. D(H  10,C   5,C   0,C   1)    173.89 -0.001248    0.15    174.04   
    70. D(H  10,C   5,C   4,H   9)     86.11 -0.001972    0.21     86.32   
    71. D(C   4,C   5,C   0,N  11)    173.43 -0.000894    0.08    173.51   
[...]
     34      -0.048062   0.090593  -0.063033   0.029402   0.013065   0.067749
     35      -0.007697   0.013882  -0.009639   0.004797   0.002359   0.009784
     36      -0.044816  -0.077810  -0.012239  -0.044650   0.013291  -0.027083
     37       0.175757   0.308560   0.078982   0.283466   0.307989  -0.695452
     38       0.028911   0.045113   0.021600   0.054799   0.042526  -0.097627
     39       0.233284  -0.211171   0.237923  -0.037988  -0.403281   0.561455
     40      -0.196572   0.180575  -0.199217   0.036969   0.238783  -0.245757
     41      -0.031855   0.028261  -0.036297  -0.001940   0.028954  -0.020761
     42       0.043799  -0.332596  -0.075359   0.015332  -0.026665  -0.017504
     43       0.007983  -0.020333  -0.004835   0.019852  -0.009274   0.001765
     44      -0.027862   0.202571   0.046725  -0.008014   0.009644   0.007040
     45      -0.033892   0.143843   0.041327  -0.010763   0.012595   0.004857
     46      -0.055245   0.280340   0.066671  -0.022449   0.019479   0.008188
     47       0.012737  -0.043830  -0.014835   0.004180  -0.004126  -0.001260
     48      -0.006422   0.163807   0.027298  -0.003485   0.005405   0.006353
     49       0.024962  -0.281509  -0.052934   0.001518  -0.010126  -0.010095
     50       0.006232  -0.127041  -0.022424   0.001673  -0.003766  -0.004577
                 42         43         44         45         46         47    
      0       0.213626   0.009724  -0.000974   0.001657  -0.004665   0.000014
      1      -0.214860   0.028432  -0.000601   0.003037  -0.000449   0.001036
      2      -0.036640   0.003551   0.000016   0.000599   0.000435   0.000221
      3      -0.044043   0.002107   0.000272  -0.086467   0.000618  -0.014418
      4       0.130535  -0.024911  -0.000371   0.000844   0.000033   0.003077
      5       0.020738  -0.004176  -0.000294  -0.002424  -0.000076   0.000082
      6       0.077309  -0.017552  -0.001548   0.009635   0.001269  -0.043061
      7      -0.058696   0.022538   0.001116   0.008472   0.000367  -0.067360
      8      -0.009293   0.005113   0.000313   0.001649   0.000107  -0.011891
      9      -0.038143   0.010975   0.002296   0.000824  -0.003179  -0.012931
     10       0.008725  -0.020878   0.000735  -0.002056   0.003456   0.027562
     11       0.005654  -0.013136   0.002729  -0.000469   0.000548   0.005484
     12       0.020313   0.002134   0.029711   0.000404   0.000728   0.000058
     13      -0.032306   0.064321  -0.012662  -0.000136  -0.001673  -0.000219
     14      -0.007597   0.009363   0.072057   0.000327   0.000761  -0.000456
     15      -0.152182  -0.009659   0.001684   0.000444   0.049183  -0.000215
     16       0.075593  -0.023357  -0.001435   0.000747   0.071921  -0.001043
     17       0.012642   0.004550   0.001453  -0.000077   0.005674  -0.000005
     18      -0.051566   0.003205  -0.002560   0.982950  -0.009256   0.152909
     19      -0.250559   0.029483   0.000042  -0.008536   0.000316  -0.004082
     20      -0.049950   0.002669   0.000248   0.027549  -0.000998   0.003863
     21      -0.084144   0.040615  -0.000287  -0.088027  -0.005223   0.498676
     22       0.043972  -0.014334  -0.001711  -0.127520  -0.007960   0.751848
     23       0.006787   0.002522   0.000737  -0.022609  -0.001308   0.133532
     24       0.004234   0.080318   0.006036  -0.012829   0.028681   0.183019
     25       0.036748  -0.004089  -0.006216   0.022305  -0.049556  -0.315533
     26       0.008490   0.005811  -0.007270   0.004219  -0.009189  -0.062537
     27      -0.019895   0.010447  -0.375745  -0.001004  -0.003453   0.000661
     28      -0.036358  -0.054127   0.160588  -0.000048   0.001676   0.000343
     29      -0.002332  -0.014791  -0.909146  -0.002387  -0.004610   0.001344
     30       0.185030  -0.082327   0.005299  -0.004920  -0.547307   0.006186
     31      -0.156706   0.005154   0.005723  -0.007419  -0.827371   0.008983
     32      -0.020320   0.000135  -0.004160  -0.000589  -0.068013   0.000278
     33      -0.106477  -0.000027   0.000138  -0.000029   0.000282   0.000068
     34       0.156236  -0.007377  -0.000023  -0.000335  -0.000017  -0.000118
     35       0.022189  -0.001202   0.000088  -0.000038   0.000014  -0.000029
     36      -0.109883   0.000138   0.000012  -0.001652  -0.002742   0.001331
     37      -0.531950   0.026807  -0.000595  -0.003466  -0.001806  -0.000451
     38      -0.058841   0.003158   0.000101  -0.000712  -0.000413  -0.000057
     39       0.574791  -0.011793  -0.000032   0.002423   0.004173  -0.000490
     40      -0.202054   0.000168   0.000412  -0.000197   0.002018  -0.001202
     41      -0.009524   0.000768  -0.000221   0.000023   0.000095  -0.000084
     42       0.009902  -0.003706  -0.001481  -0.000094   0.000386  -0.000128
     43      -0.011786  -0.818744  -0.000083  -0.000010   0.001085   0.000377
     44      -0.005002  -0.101579   0.001084  -0.000016  -0.000264   0.000224
     45       0.001004   0.141630   0.000383   0.000004   0.000287   0.000064
     46       0.000783   0.352607   0.000408  -0.000007  -0.000548   0.000005
     47      -0.000628  -0.028524  -0.000108   0.000005  -0.000140  -0.000047
     48      -0.005581  -0.139217   0.000329   0.000034  -0.000155  -0.000113
     49       0.010185   0.336702  -0.000362  -0.000014  -0.000070  -0.000210
     50       0.004382   0.114539  -0.000235  -0.000007   0.000088  -0.000006
                 48         49         50    
      0      -0.000302   0.000772  -0.000221
      1      -0.000154  -0.001859  -0.000212
      2      -0.000060  -0.000368  -0.000020
      3       0.003685  -0.000051   0.000073
      4      -0.001687  -0.001105   0.000355
      5      -0.000115  -0.000223   0.000103
      6       0.022768  -0.000145   0.000030
      7       0.026302   0.000339   0.000025
      8       0.004219   0.000092   0.000000
      9      -0.044210   0.000386   0.000026
     10       0.068837  -0.000395  -0.000054
     11       0.014068  -0.000047  -0.000002
     12      -0.001143  -0.000078  -0.000034
     13      -0.001543   0.000138  -0.000020
     14      -0.001505   0.000005  -0.000039
     15      -0.002593   0.001407   0.000438
     16      -0.004943  -0.000205  -0.000193
     17      -0.000264  -0.000137  -0.000063
     18      -0.032507   0.001909   0.000372
     19       0.001313   0.000635   0.000744
     20      -0.000090  -0.000103   0.000037
     21      -0.202635  -0.000298   0.000068
     22      -0.300241  -0.000289   0.000070
     23      -0.053150   0.000036  -0.000039
     24       0.462579  -0.001570  -0.000211
     25      -0.784119   0.002689   0.000317
     26      -0.156785   0.000425   0.000096
     27       0.004333  -0.000560  -0.000089
     28      -0.000582  -0.000661   0.000331
     29       0.007174  -0.000247   0.000173
     30       0.031967  -0.002873   0.000637
     31       0.047085  -0.003317   0.000077
     32       0.003237  -0.000523  -0.000041
     33       0.000040  -0.027120  -0.074959
     34       0.000019   0.047742  -0.043219
     35      -0.000023   0.004498  -0.007264
     36       0.002808   0.694553   0.715353
     37       0.000092   0.000133  -0.009034
     38       0.000192   0.024629   0.025758
     39      -0.001398  -0.341046   0.321522
     40      -0.001757  -0.625594   0.609059
     41      -0.000229  -0.078939   0.075186
     42      -0.000203  -0.000264   0.000048
     43       0.000778  -0.000062   0.000042
     44       0.000463   0.000112  -0.000007
     45       0.000074   0.000100  -0.000014
     46      -0.000003   0.000056  -0.000021
     47      -0.000070  -0.000037   0.000004
     48      -0.000275   0.000096  -0.000012
     49      -0.000457  -0.000017  -0.000003
     50      -0.000006  -0.000043   0.000002


-----------
IR SPECTRUM
-----------

 Mode   freq       eps      Int      T**2         TX        TY        TZ
       cm**-1   L/(mol*cm) km/mol    a.u.
----------------------------------------------------------------------------
  6:     50.07   0.000020    0.10  0.000122  ( 0.005898 -0.009348 -0.000461)
  7:    100.32   0.001254    6.34  0.003902  (-0.060971  0.013489  0.001592)
  8:    157.59   0.000439    2.22  0.000868  ( 0.003469 -0.028803 -0.005179)
  9:    216.85   0.000021    0.11  0.000031  (-0.002615  0.004451  0.002024)
 10:    317.39   0.003001   15.17  0.002951  (-0.019880  0.009898 -0.049577)
 11:    327.44   0.038717  195.66  0.036898  (-0.023514 -0.008621  0.190450)
 12:    389.57   0.001392    7.03  0.001115  (-0.027960 -0.018172 -0.001705)
 13:    391.81   0.000995    5.03  0.000793  ( 0.025206  0.006741  0.010575)
 14:    448.49   0.002360   11.93  0.001642  (-0.000263 -0.005399  0.040163)
 15:    483.40   0.000771    3.90  0.000498  (-0.003369 -0.020983 -0.006785)
 16:    511.25   0.001343    6.79  0.000820  ( 0.013403 -0.016879  0.018848)
 17:    544.54   0.001138    5.75  0.000652  ( 0.002720 -0.004610  0.024966)
 18:    586.13   0.001704    8.61  0.000907  ( 0.028854 -0.001226 -0.008549)
 19:    651.23   0.000253    1.28  0.000121  (-0.008477 -0.007026  0.000338)
 20:    685.61   0.010749   54.32  0.004892  (-0.025474 -0.002252  0.065103)
 21:    781.21   0.000830    4.20  0.000332  (-0.002012 -0.018097 -0.000297)
 22:    825.90   0.023961  121.09  0.009054  ( 0.087485 -0.009689 -0.036141)
 23:    866.76   0.017926   90.59  0.006454  (-0.079192 -0.012692  0.004627)
 24:    879.49   0.017038   86.10  0.006046  (-0.059173 -0.006232  0.050053)
 25:    945.77   0.003650   18.45  0.001204  (-0.026748  0.022071  0.001388)
 26:    974.62   0.002486   12.56  0.000796  ( 0.020608  0.019258 -0.000688)
 27:    987.72   0.001249    6.31  0.000395  (-0.014505 -0.012416  0.005495)
 28:   1004.97   0.001175    5.94  0.000365  ( 0.005288  0.018082  0.003166)
 29:   1043.95   0.000753    3.80  0.000225  ( 0.011962 -0.009001 -0.000941)
 30:   1058.96   0.002408   12.17  0.000710  (-0.018336  0.012350  0.014866)
 31:   1069.44   0.014315   72.34  0.004177  ( 0.062502  0.004847 -0.015721)
 32:   1120.57   0.001655    8.36  0.000461  (-0.015068 -0.015078 -0.002546)
 33:   1193.50   0.000042    0.21  0.000011  (-0.002014 -0.002620 -0.000301)
 34:   1287.85   0.002719   13.74  0.000659  ( 0.024375  0.007099 -0.003786)
 35:   1349.27   0.020991  106.08  0.004855  ( 0.063142 -0.022265 -0.019291)
 36:   1393.68   0.001138    5.75  0.000255  (-0.006111 -0.011455 -0.009285)
 37:   1414.96   0.027733  140.15  0.006116  (-0.070763 -0.010488  0.031608)
 38:   1454.52   0.020398  103.09  0.004376  (-0.061912 -0.021256  0.009566)
 39:   1508.01   0.024157  122.08  0.004999  ( 0.023622 -0.065301 -0.013298)
 40:   1596.11   0.009403   47.52  0.001838  ( 0.031444 -0.029118 -0.001353)
 41:   1615.11   0.005897   29.80  0.001139  ( 0.030660 -0.013474  0.004226)
 42:   1670.23   0.073878  373.35  0.013803  ( 0.048960 -0.104902 -0.020042)
 43:   1783.59   0.043710  220.89  0.007648  (-0.000277 -0.086779 -0.010812)
 44:   2886.21   0.013483   68.14  0.001458  (-0.020144  0.005312 -0.031997)
 45:   3182.49   0.000488    2.47  0.000048  ( 0.004905  0.004829  0.000721)
 46:   3210.54   0.004672   23.61  0.000454  (-0.017045 -0.012771 -0.000733)
 47:   3212.03   0.001444    7.30  0.000140  ( 0.011791 -0.001098 -0.000167)
 48:   3227.21   0.007127   36.01  0.000689  ( 0.009320 -0.024111 -0.004570)
 49:   3589.13   0.040732  205.84  0.003542  ( 0.032419 -0.049382 -0.007212)
 50:   3706.51   0.014534   73.45  0.001224  ( 0.030542  0.016780  0.003042)

* The epsilon (eps) is given for a Dirac delta lineshape.
** The dipole moment derivative (T) already includes vibrational overlap.

The first frequency considered to be a vibration is 6
The total number of vibrations considered is 45


--------------------------
THERMOCHEMISTRY AT 298.15K
--------------------------

Temperature         ... 298.15 K
Pressure            ... 1.00 atm
Total Mass          ... 139.13 AMU

Throughout the following assumptions are being made:
  (1) The electronic state is orbitally nondegenerate
  (2) There are no thermally accessible electronically excited states
  (3) Hindered rotations indicated by low frequency modes are not
      treated as such but are treated as vibrations and this may
      cause some error
  (4) All equations used are the standard statistical mechanics
      equations for an ideal gas
  (5) All vibrations are strictly harmonic

freq.      50.07  E(vib)   ...       0.52 
freq.     100.32  E(vib)   ...       0.46 
freq.     157.59  E(vib)   ...       0.40 
freq.     216.85  E(vib)   ...       0.34 
freq.     317.39  E(vib)   ...       0.25 
freq.     327.44  E(vib)   ...       0.24 
freq.     389.57  E(vib)   ...       0.20 
freq.     391.81  E(vib)   ...       0.20 
freq.     448.49  E(vib)   ...       0.17 
freq.     483.40  E(vib)   ...       0.15 
freq.     511.25  E(vib)   ...       0.14 
freq.     544.54  E(vib)   ...       0.12 
freq.     586.13  E(vib)   ...       0.11 
freq.     651.23  E(vib)   ...       0.08 
freq.     685.61  E(vib)   ...       0.07 
freq.     781.21  E(vib)   ...       0.05 
freq.     825.90  E(vib)   ...       0.04 
freq.     866.76  E(vib)   ...       0.04 
freq.     879.49  E(vib)   ...       0.04 
freq.     945.77  E(vib)   ...       0.03 
freq.     974.62  E(vib)   ...       0.03 
freq.     987.72  E(vib)   ...       0.02 
freq.    1004.97  E(vib)   ...       0.02 
freq.    1043.95  E(vib)   ...       0.02 
freq.    1058.96  E(vib)   ...       0.02 
freq.    1069.44  E(vib)   ...       0.02 
freq.    1120.57  E(vib)   ...       0.01 
freq.    1193.50  E(vib)   ...       0.01 
freq.    1287.85  E(vib)   ...       0.01 
freq.    1349.27  E(vib)   ...       0.01 
freq.    1393.68  E(vib)   ...       0.00 
freq.    1414.96  E(vib)   ...       0.00 
freq.    1454.52  E(vib)   ...       0.00 
freq.    1508.01  E(vib)   ...       0.00 
freq.    1596.11  E(vib)   ...       0.00 
freq.    1615.11  E(vib)   ...       0.00 
freq.    1670.23  E(vib)   ...       0.00 
freq.    1783.59  E(vib)   ...       0.00 
freq.    2886.21  E(vib)   ...       0.00 
freq.    3182.49  E(vib)   ...       0.00 
freq.    3210.54  E(vib)   ...       0.00 
freq.    3212.03  E(vib)   ...       0.00 
freq.    3227.21  E(vib)   ...       0.00 
freq.    3589.13  E(vib)   ...       0.00 
freq.    3706.51  E(vib)   ...       0.00 

------------
INNER ENERGY
------------

The inner energy is: U= E(el) + E(ZPE) + E(vib) + E(rot) + E(trans)
    E(el)   - is the total energy from the electronic structure calculation
              = E(kin-el) + E(nuc-el) + E(el-el) + E(nuc-nuc)
    E(ZPE)  - the the zero temperature vibrational energy from the frequency calculation
    E(vib)  - the the finite temperature correction to E(ZPE) due to population
              of excited vibrational states
    E(rot)  - is the rotational thermal energy
    E(trans)- is the translational thermal energy

Summary of contributions to the inner energy U:
Electronic energy                ...   -491.78740809 Eh
Zero point energy                ...      0.12917667 Eh      81.06 kcal/mol
Thermal vibrational correction   ...      0.00610870 Eh       3.83 kcal/mol
Thermal rotational correction    ...      0.00141627 Eh       0.89 kcal/mol
Thermal translational correction ...      0.00141627 Eh       0.89 kcal/mol
-----------------------------------------------------------------------
Total thermal energy                   -491.64929018 Eh


Summary of corrections to the electronic energy:
(perhaps to be used in another calculation)
Total thermal correction                  0.00894124 Eh       5.61 kcal/mol
Non-thermal (ZPE) correction              0.12917667 Eh      81.06 kcal/mol
-----------------------------------------------------------------------
Total correction                          0.13811791 Eh      86.67 kcal/mol


--------
ENTHALPY
--------

The enthalpy is H = U + kB*T
                kB is Boltzmann's constant
Total free energy                 ...   -491.64929018 Eh 
Thermal Enthalpy correction       ...      0.00094421 Eh       0.59 kcal/mol
-----------------------------------------------------------------------
Total Enthalpy                    ...   -491.64834597 Eh


Note: Only C1 symmetry has been detected, increase convergence thresholds 
      if your molecule has a higher symmetry. Symmetry factor of 1.0 is   
      used for the rotational entropy correction. 
 

Note: Rotational entropy computed according to Herzberg 
Infrared and Raman Spectra, Chapter V,1, Van Nostrand Reinhold, 1945 
Point Group:  C1, Symmetry Number:   1  
Rotational constants in cm-1:     0.085263     0.032653     0.024169 

Vibrational entropy computed according to the QRRHO of S. Grimme
Chem.Eur.J. 2012 18 9955


-------
ENTROPY
-------

The entropy contributions are T*S = T*(S(el)+S(vib)+S(rot)+S(trans))
     S(el)   - electronic entropy
     S(vib)  - vibrational entropy
     S(rot)  - rotational entropy
     S(trans)- translational entropy
The entropies will be listed as multiplied by the temperature to get
units of energy

Electronic entropy                ...      0.00000000 Eh      0.00 kcal/mol
Vibrational entropy               ...      0.01015218 Eh      6.37 kcal/mol
Rotational entropy                ...      0.01404595 Eh      8.81 kcal/mol
Translational entropy             ...      0.01933899 Eh     12.14 kcal/mol
-----------------------------------------------------------------------
Final entropy term                ...      0.04353713 Eh     27.32 kcal/mol

In case the symmetry of your molecule has not been determined correctly
or in case you have a reason to use a different symmetry number we print 
out the resulting rotational entropy values for sn=1,12 :
 --------------------------------------------------------
|  sn= 1 | S(rot)=       0.01404595 Eh      8.81 kcal/mol|
|  sn= 2 | S(rot)=       0.01339150 Eh      8.40 kcal/mol|
|  sn= 3 | S(rot)=       0.01300867 Eh      8.16 kcal/mol|
|  sn= 4 | S(rot)=       0.01273704 Eh      7.99 kcal/mol|
|  sn= 5 | S(rot)=       0.01252635 Eh      7.86 kcal/mol|
|  sn= 6 | S(rot)=       0.01235421 Eh      7.75 kcal/mol|
|  sn= 7 | S(rot)=       0.01220866 Eh      7.66 kcal/mol|
|  sn= 8 | S(rot)=       0.01208259 Eh      7.58 kcal/mol|
|  sn= 9 | S(rot)=       0.01197138 Eh      7.51 kcal/mol|
|  sn=10 | S(rot)=       0.01187190 Eh      7.45 kcal/mol|
|  sn=11 | S(rot)=       0.01178191 Eh      7.39 kcal/mol|
|  sn=12 | S(rot)=       0.01169975 Eh      7.34 kcal/mol|
 --------------------------------------------------------


-------------------
GIBBS FREE ENERGY
-------------------

The Gibbs free energy is G = H - T*S

Total enthalpy                    ...   -491.64834597 Eh 
Total entropy correction          ...     -0.04353713 Eh    -27.32 kcal/mol
-----------------------------------------------------------------------
Final Gibbs free energy         ...   -491.69188310 Eh

For completeness - the Gibbs free energy minus the electronic energy
G-E(el)                           ...      0.09552499 Eh     59.94 kcal/mol


Timings for individual modules:

Sum of individual times         ...     4581.464 sec (=  76.358 min)
GTO integral calculation        ...        9.005 sec (=   0.150 min)   0.2 %
SCF iterations                  ...     2890.440 sec (=  48.174 min)  63.1 %
SCF Gradient evaluation         ...      670.881 sec (=  11.181 min)  14.6 %
Geometry relaxation             ...        2.503 sec (=   0.042 min)   0.1 %
Analytical frequency calculation...     1008.635 sec (=  16.811 min)  22.0 %
                             ****ORCA TERMINATED NORMALLY****
TOTAL RUN TIME: 0 days 1 hours 16 minutes 31 seconds 309 msec
