
                                 *****************
                                 * O   R   C   A *
                                 *****************

                                            #,                                       
                                            ###                                      
                                            ####                                     
                                            #####                                    
                                            ######                                   
                                           ########,                                 
                                     ,,################,,,,,                         
                               ,,#################################,,                 
                          ,,##########################################,,             
                       ,#########################################, ''#####,          
                    ,#############################################,,   '####,        
                  ,##################################################,,,,####,       
                ,###########''''           ''''###############################       
              ,#####''   ,,,,##########,,,,          '''####'''          '####       
            ,##' ,,,,###########################,,,                        '##       
           ' ,,###''''                  '''############,,,                           
         ,,##''                                '''############,,,,        ,,,,,,###''
      ,#''                                            '''#######################'''  
     '                                                          ''''####''''         
             ,#######,   #######,   ,#######,      ##                                
            ,#'     '#,  ##    ##  ,#'     '#,    #''#        ######   ,####,        
            ##       ##  ##   ,#'  ##            #'  '#       #        #'  '#        
            ##       ##  #######   ##           ,######,      #####,   #    #        
            '#,     ,#'  ##    ##  '#,     ,#' ,#      #,         ##   #,  ,#        
             '#######'   ##     ##  '#######'  #'      '#     #####' # '####'        



                  #######################################################
                  #                        -***-                        #
                  #          Department of theory and spectroscopy      #
                  #    Directorship and core code : Frank Neese         #
                  #        Max Planck Institute fuer Kohlenforschung    #
                  #                Kaiser Wilhelm Platz 1               #
                  #                 D-45470 Muelheim/Ruhr               #
                  #                      Germany                        #
                  #                                                     #
                  #                  All rights reserved                #
                  #                        -***-                        #
                  #######################################################



                         Program Version 5.0.4 -  RELEASE  -

 With contributions from (in alphabetic order):
   Daniel Aravena         : Magnetic Suceptibility
   Michael Atanasov       : Ab Initio Ligand Field Theory (pilot matlab implementation)
   Alexander A. Auer      : GIAO ZORA, VPT2 properties, NMR spectrum
   Ute Becker             : Parallelization
   Giovanni Bistoni       : ED, misc. LED, open-shell LED, HFLD
   Martin Brehm           : Molecular dynamics
   Dmytro Bykov           : SCF Hessian
   Vijay G. Chilkuri      : MRCI spin determinant printing, contributions to CSF-ICE
   Dipayan Datta          : RHF DLPNO-CCSD density
   Achintya Kumar Dutta   : EOM-CC, STEOM-CC
   Dmitry Ganyushin       : Spin-Orbit,Spin-Spin,Magnetic field MRCI
   Miquel Garcia          : C-PCM and meta-GGA Hessian, CC/C-PCM, Gaussian charge scheme
   Yang Guo               : DLPNO-NEVPT2, F12-NEVPT2, CIM, IAO-localization
   Andreas Hansen         : Spin unrestricted coupled pair/coupled cluster methods
   Benjamin Helmich-Paris : MC-RPA, TRAH-SCF, COSX integrals
   Lee Huntington         : MR-EOM, pCC
   Robert Izsak           : Overlap fitted RIJCOSX, COSX-SCS-MP3, EOM
   Marcus Kettner         : VPT2
   Christian Kollmar      : KDIIS, OOCD, Brueckner-CCSD(T), CCSD density, CASPT2, CASPT2-K
   Simone Kossmann        : Meta GGA functionals, TD-DFT gradient, OOMP2, MP2 Hessian
   Martin Krupicka        : Initial AUTO-CI
   Lucas Lang             : DCDCAS
   Marvin Lechner         : AUTO-CI (C++ implementation), FIC-MRCC
   Dagmar Lenk            : GEPOL surface, SMD
   Dimitrios Liakos       : Extrapolation schemes; Compound Job, initial MDCI parallelization
   Dimitrios Manganas     : Further ROCIS development; embedding schemes
   Dimitrios Pantazis     : SARC Basis sets
   Anastasios Papadopoulos: AUTO-CI, single reference methods and gradients
   Taras Petrenko         : DFT Hessian,TD-DFT gradient, ASA, ECA, R-Raman, ABS, FL, XAS/XES, NRVS
   Peter Pinski           : DLPNO-MP2, DLPNO-MP2 Gradient
   Christoph Reimann      : Effective Core Potentials
   Marius Retegan         : Local ZFS, SOC
   Christoph Riplinger    : Optimizer, TS searches, QM/MM, DLPNO-CCSD(T), (RO)-DLPNO pert. Triples
   Tobias Risthaus        : Range-separated hybrids, TD-DFT gradient, RPA, STAB
   Michael Roemelt        : Original ROCIS implementation
   Masaaki Saitow         : Open-shell DLPNO-CCSD energy and density
   Barbara Sandhoefer     : DKH picture change effects
   Avijit Sen             : IP-ROCIS
   Kantharuban Sivalingam : CASSCF convergence, NEVPT2, FIC-MRCI
   Bernardo de Souza      : ESD, SOC TD-DFT
   Georgi Stoychev        : AutoAux, RI-MP2 NMR, DLPNO-MP2 response
   Willem Van den Heuvel  : Paramagnetic NMR
   Boris Wezisla          : Elementary symmetry handling
   Frank Wennmohs         : Technical directorship


 We gratefully acknowledge several colleagues who have allowed us to
 interface, adapt or use parts of their codes:
   Stefan Grimme, W. Hujo, H. Kruse, P. Pracht,  : VdW corrections, initial TS optimization,
                  C. Bannwarth, S. Ehlert          DFT functionals, gCP, sTDA/sTD-DF
   Ed Valeev, F. Pavosevic, A. Kumar             : LibInt (2-el integral package), F12 methods
   Garnet Chan, S. Sharma, J. Yang, R. Olivares  : DMRG
   Ulf Ekstrom                                   : XCFun DFT Library
   Mihaly Kallay                                 : mrcc  (arbitrary order and MRCC methods)
   Jiri Pittner, Ondrej Demel                    : Mk-CCSD
   Frank Weinhold                                : gennbo (NPA and NBO analysis)
   Christopher J. Cramer and Donald G. Truhlar   : smd solvation model
   Lars Goerigk                                  : TD-DFT with DH, B97 family of functionals
   V. Asgeirsson, H. Jonsson                     : NEB implementation
   FAccTs GmbH                                   : IRC, NEB, NEB-TS, DLPNO-Multilevel, CI-OPT
                                                   MM, QMMM, 2- and 3-layer-ONIOM, Crystal-QMMM,
                                                   LR-CPCM, SF, NACMEs, symmetry and pop. for TD-DFT,
                                                   nearIR, NL-DFT gradient (VV10), updates on ESD,
                                                   ML-optimized integration grids
   S Lehtola, MJT Oliveira, MAL Marques          : LibXC Library
   Liviu Ungur et al                             : ANISO software


 Your calculation uses the libint2 library for the computation of 2-el integrals
 For citations please refer to: http://libint.valeyev.net

 Your ORCA version has been built with support for libXC version: 5.1.0
 For citations please refer to: https://tddft.org/programs/libxc/

 This ORCA versions uses:
   CBLAS   interface :  Fast vector & matrix operations
   LAPACKE interface :  Fast linear algebra routines
   Shared memory     :  Shared parallel matrices


Your calculation utilizes the atom-pairwise dispersion correction
based on tight binding partial charges (D4)
Cite in your paper:
E.Caldeweyher, C.Bannwarth, S.Grimme, J.Chem.Phys., (2017), 147, 034112.
E.Caldeweyher, S.Ehlert, A.Hansen, H.Neugebauer, S.Grimme, J.Chem.Phys., (2018), in progress.
   

================================================================================

----- Orbital basis set information -----
Your calculation utilizes the basis: cc-pVDZ 
       H, B-Ne : Obtained from the ccRepo (grant-hill.group.shef.ac.uk/ccrepo) Feb. 2017
                 T. H. Dunning, Jr., J. Chem. Phys. 90, 1007 (1989)
            He : Obtained from the ccRepo (grant-hill.group.shef.ac.uk/ccrepo) Feb. 2017
                 D. E. Woon, T. H. Dunning, Jr., J. Chem. Phys. 100, 2975 (1994)
  Li-Be, Na-Mg : Obtained from the ccRepo (grant-hill.group.shef.ac.uk/ccrepo) Feb. 2017
                 B. P. Prascher, D. E. Woon, K. A. Peterson, T. H. Dunning, Jr., A. K. Wilson, Theor. Chem. Acc. 128, 69 (2011)
         Al-Ar : Obtained from the ccRepo (grant-hill.group.shef.ac.uk/ccrepo) Feb. 2017
                 D. E. Woon, T. H. Dunning, Jr., J. Chem. Phys. 98, 1358 (1993)
            Ca : Obtained from the Peterson Research Group Website (tyr0.chem.wsu.edu/~kipeters) Feb. 2017
                 J. Koput, K. A. Peterson, J. Phys. Chem. 106, 9595 (2002)
         Sc-Zn : Obtained from the ccRepo (grant-hill.group.shef.ac.uk/ccrepo) Feb. 2017
                 N. B. Balabanov, K. A. Peterson, J. Chem. Phys. 123, 064107 (2005)
                 N. B. Balabanov, K. A. Peterson, J. Chem. Phys. 125, 074110 (2006)
         Ga-Kr : Obtained from the ccRepo (grant-hill.group.shef.ac.uk/ccrepo) Feb. 2017
                 A. K. Wilson, D. E. Woon, K. A. Peterson, T. H. Dunning, Jr., J. Chem. Phys. 110, 7667 (1999)

----- AuxJ basis set information -----
Your calculation utilizes the auxiliary basis: def2/J
   F. Weigend, Phys. Chem. Chem. Phys. 8, 1057 (2006).

----- AuxC basis set information -----
Your calculation utilizes the auxiliary basis: cc-pVDZ/C 
  H-He, B, Ne, Al-Ar, Ga-Br : Obtained from the EMSL Basis Set Exchange (bse.pnl.gov) Feb. 2017
                              F. Weigend, A. Kohn, C. Hattig, J. Chem. Phys. 116, 3175 (2002)
               Li-Be, Na-Mg : Obtained from the EMSL Basis Set Exchange (bse.pnl.gov) Feb. 2017
                              C. Haettig, Phys. Chem. Chem. Phys. 7, 59 (2005)
                        C-F : Obtained from the EMSL Basis Set Exchange (bse.pnl.gov) Feb. 2017
                              C. Haettig, Phys. Chem. Chem. Phys. 7, 59 (2005)
                              F. Weigend, A. Kohn, C. Hattig, J. Chem. Phys. 116, 3175 (2002)
                         Kr : Obtained from the TURBOMOLE 7.0 basis set library
                              F. Weigend, A. Kohn, C. Hattig, J. Chem. Phys. 116, 3175 (2002)
                              S function revised in Sep. 2009

================================================================================
                                        WARNINGS
                       Please study these warnings very carefully!
================================================================================



WARNING: Found flag for RIJCOSX approximation but no HF exchange needed!
  ===> : RIJCOSX  will be disabled and Split-RI-J is turned on

WARNING: Geometry Optimization
  ===> : Switching off AutoStart
         For restart on a previous wavefunction, please use MOREAD

INFO   : the flag for use of the SHARK integral package has been found!

================================================================================
                                       INPUT FILE
================================================================================
NAME = opt2.inp
|  1> !BP86 cc-pVDZ OPT FREQ D4 cc-pVDZ/C RIJCOSX
|  2> 
|  3> * xyz 0 1
|  4>    C       -2.34160        1.21179       -0.50979
|  5>    C       -3.64745        1.57588       -0.12057
|  6>    C       -4.63242        0.60309        0.09151
|  7>    C       -4.32793       -0.76009       -0.08248
|  8>    C       -3.02543       -1.12592       -0.47179
|  9>    C       -2.03778       -0.15792       -0.68514
| 10>    H       -3.90146        2.63877        0.02007
| 11>    H       -5.64621        0.91040        0.39518
| 12>    H       -1.02451       -0.44231       -0.98772
| 13>    H       -2.79381       -2.19187       -0.60619
| 14>    O       -5.24548       -1.76500        0.10994
| 15>    H       -6.08955       -1.34700        0.37423
| 16>    N       -1.39672        2.24615       -0.70333
| 17>    C       -0.06859        2.15034       -1.09021
| 18>    H       -1.75384        3.18939       -0.53985
| 19>    C        0.62380        3.50658       -1.21341
| 20>    H        1.70499        3.32804       -1.39602
| 21>    H        0.49816        4.12018       -0.28627
| 22>    H        0.20078        4.08842       -2.07108
| 23>    O        0.50440        1.08421       -1.32409
| 24> **                         ****END OF INPUT****
================================================================================

                       *****************************
                       * Geometry Optimization Run *
                       *****************************

Geometry optimization settings:
Update method            Update   .... BFGS
Choice of coordinates    CoordSys .... Z-matrix Internals
Initial Hessian          InHess   .... Almoef's Model

Convergence Tolerances:
Energy Change            TolE     ....  5.0000e-06 Eh
Max. Gradient            TolMAXG  ....  3.0000e-04 Eh/bohr
RMS Gradient             TolRMSG  ....  1.0000e-04 Eh/bohr
Max. Displacement        TolMAXD  ....  4.0000e-03 bohr
RMS Displacement         TolRMSD  ....  2.0000e-03 bohr
Strict Convergence                ....  False
------------------------------------------------------------------------------
                        ORCA OPTIMIZATION COORDINATE SETUP
------------------------------------------------------------------------------

The optimization will be done in new redundant internal coordinates
Making redundant internal coordinates   ...  (new redundants) done
Evaluating the initial hessian          ...  (Almloef) done
Evaluating the coordinates              ...  done
Calculating the B-matrix                .... done
Calculating the G-matrix                .... done
Diagonalizing the G-matrix              .... done
Small eigenvalue found = 1.238e-02
The first mode is                       ....   37
The number of degrees of freedom        ....   54

    -----------------------------------------------------------------
                    Redundant Internal Coordinates


    -----------------------------------------------------------------
         Definition                    Initial Value    Approx d2E/dq
    -----------------------------------------------------------------
      1. B(C   1,C   0)                  1.4104         0.579632   
      2. B(C   2,C   1)                  1.4005         0.601105   
      3. B(C   3,C   2)                  1.4076         0.585748   
      4. B(C   4,C   3)                  1.4078         0.585248   
      5. B(C   5,C   0)                  1.4139         0.572244   
      6. B(C   5,C   4)                  1.3993         0.603847   
      7. B(H   6,C   1)                  1.1018         0.344782   
      8. B(H   7,C   2)                  1.1020         0.344558   
      9. B(H   8,C   5)                  1.0951         0.353473   
     10. B(H   9,C   4)                  1.0991         0.348296   
     11. B(O  10,C   3)                  1.3743         0.592768   
     12. B(H  11,O  10)                  0.9783         0.486190   
     13. B(N  12,C   0)                  1.4143         0.511866   
     14. B(C  13,N  12)                  1.3866         0.566536   
     15. B(H  14,N  12)                  1.0217         0.414436   
     16. B(C  15,C  13)                  1.5277         0.376698   
     17. B(H  16,C  15)                  1.1109         0.333434   
     18. B(H  17,C  15)                  1.1189         0.323859   
     19. B(H  18,C  15)                  1.1194         0.323221   
     20. B(O  19,C  13)                  1.2327         0.997177   
     21. A(C   1,C   0,N  12)          117.8744         0.411743   
     22. A(C   5,C   0,N  12)          123.2282         0.410807   
     23. A(C   1,C   0,C   5)          118.8973         0.422738   
     24. A(C   0,C   1,C   2)          120.9058         0.426475   
     25. A(C   2,C   1,H   6)          119.2473         0.348501   
     26. A(C   0,C   1,H   6)          119.8469         0.346373   
     27. A(C   3,C   2,H   7)          120.2078         0.346947   
     28. A(C   1,C   2,H   7)          119.6710         0.348463   
     29. A(C   1,C   2,C   3)          120.1212         0.427278   
     30. A(C   2,C   3,C   4)          119.0774         0.425237   
     31. A(C   2,C   3,O  10)          123.1212         0.423436   
     32. A(C   4,C   3,O  10)          117.8014         0.423371   
     33. A(C   5,C   4,H   9)          120.2347         0.349365   
     34. A(C   3,C   4,H   9)          118.7392         0.347528   
     35. A(C   3,C   4,C   5)          121.0262         0.427561   
     36. A(C   0,C   5,C   4)          119.9721         0.425844   
     37. A(C   4,C   5,H   8)          121.0363         0.350236   
     38. A(C   0,C   5,H   8)          118.9916         0.347077   
     39. A(C   3,O  10,H  11)          107.5442         0.363076   
     40. A(C  13,N  12,H  14)          116.3081         0.350653   
     41. A(C   0,N  12,H  14)          114.8200         0.344711   
     42. A(C   0,N  12,C  13)          128.8702         0.407436   
     43. A(N  12,C  13,O  19)          123.9097         0.459316   
     44. A(C  15,C  13,O  19)          122.8066         0.429445   
     45. A(N  12,C  13,C  15)          113.2815         0.388551   
     46. A(H  17,C  15,H  18)          107.9027         0.281291   
     47. A(H  16,C  15,H  18)          108.9878         0.282563   
     48. A(C  13,C  15,H  18)          110.6064         0.319067   
     49. A(H  16,C  15,H  17)          109.4890         0.282650   
     50. A(C  13,C  15,H  17)          111.6621         0.319170   
     51. A(C  13,C  15,H  16)          108.1594         0.320693   
     52. D(C   2,C   1,C   0,C   5)      0.0373         0.023081   
     53. D(C   2,C   1,C   0,N  12)   -179.8547         0.023081   
     54. D(H   6,C   1,C   0,N  12)      0.1387         0.023081   
     55. D(H   6,C   1,C   0,C   5)   -179.9692         0.023081   
     56. D(C   3,C   2,C   1,H   6)   -179.9807         0.024914   
     57. D(H   7,C   2,C   1,C   0)   -179.9937         0.024914   
     58. D(C   3,C   2,C   1,C   0)      0.0127         0.024914   
     59. D(H   7,C   2,C   1,H   6)      0.0128         0.024914   
     60. D(O  10,C   3,C   2,H   7)     -0.0552         0.023594   
     61. D(O  10,C   3,C   2,C   1)    179.9383         0.023594   
     62. D(C   4,C   3,C   2,H   7)    179.9531         0.023594   
     63. D(C   4,C   3,C   2,C   1)     -0.0534         0.023594   
     64. D(C   5,C   4,C   3,O  10)   -179.9477         0.023552   
     65. D(H   9,C   4,C   3,C   2)   -179.9906         0.023552   
     66. D(C   5,C   4,C   3,C   2)      0.0445         0.023552   
     67. D(H   9,C   4,C   3,O  10)      0.0172         0.023552   
     68. D(H   8,C   5,C   4,H   9)      0.0199         0.025154   
     69. D(C   0,C   5,C   4,H   9)   -179.9588         0.025154   
     70. D(C   0,C   5,C   4,C   3)      0.0056         0.025154   
     71. D(H   8,C   5,C   0,N  12)     -0.1395         0.022471   
     72. D(H   8,C   5,C   0,C   1)    179.9746         0.022471   
     73. D(H   8,C   5,C   4,C   3)    179.9843         0.025154   
     74. D(C   4,C   5,C   0,N  12)    179.8396         0.022471   
     75. D(C   4,C   5,C   0,C   1)     -0.0463         0.022471   
     76. D(H  11,O  10,C   3,C   4)    179.9837         0.025623   
     77. D(H  11,O  10,C   3,C   2)     -0.0082         0.025623   
     78. D(H  14,N  12,C   0,C   5)   -179.9005         0.020747   
     79. D(H  14,N  12,C   0,C   1)     -0.0135         0.020747   
     80. D(C  13,N  12,C   0,C   5)      0.6053         0.020747   
     81. D(C  13,N  12,C   0,C   1)   -179.5077         0.020747   
     82. D(C  15,C  13,N  12,C   0)    178.9932         0.025668   
     83. D(O  19,C  13,N  12,H  14)   -179.9697         0.025668   
     84. D(O  19,C  13,N  12,C   0)     -0.4818         0.025668   
     85. D(C  15,C  13,N  12,H  14)     -0.4947         0.025668   
     86. D(H  18,C  15,C  13,O  19)    111.5616         0.010600   
     87. D(H  18,C  15,C  13,N  12)    -67.9200         0.010600   
     88. D(H  17,C  15,C  13,O  19)   -128.2588         0.010600   
     89. D(H  17,C  15,C  13,N  12)     52.2596         0.010600   
     90. D(H  16,C  15,C  13,O  19)     -7.7235         0.010600   
     91. D(H  16,C  15,C  13,N  12)    172.7949         0.010600   
    -----------------------------------------------------------------

Number of atoms                         .... 20
Number of degrees of freedom            .... 91

         *************************************************************
         *                GEOMETRY OPTIMIZATION CYCLE   1            *
         *************************************************************
---------------------------------
CARTESIAN COORDINATES (ANGSTROEM)
---------------------------------
  C     -2.341600    1.211790   -0.509790
  C     -3.647450    1.575880   -0.120570
  C     -4.632420    0.603090    0.091510
  C     -4.327930   -0.760090   -0.082480
  C     -3.025430   -1.125920   -0.471790
  C     -2.037780   -0.157920   -0.685140
  H     -3.901460    2.638770    0.020070
  H     -5.646210    0.910400    0.395180
  H     -1.024510   -0.442310   -0.987720
  H     -2.793810   -2.191870   -0.606190
  O     -5.245480   -1.765000    0.109940
  H     -6.089550   -1.347000    0.374230
  N     -1.396720    2.246150   -0.703330
  C     -0.068590    2.150340   -1.090210
  H     -1.753840    3.189390   -0.539850
  C      0.623800    3.506580   -1.213410
  H      1.704990    3.328040   -1.396020
  H      0.498160    4.120180   -0.286270
  H      0.200780    4.088420   -2.071080
  O      0.504400    1.084210   -1.324090

----------------------------
CARTESIAN COORDINATES (A.U.)
----------------------------
  NO LB      ZA    FRAG     MASS         X           Y           Z
   0 C     6.0000    0    12.011   -4.424983    2.289951   -0.963363
   1 C     6.0000    0    12.011   -6.892682    2.977982   -0.227844
   2 C     6.0000    0    12.011   -8.754005    1.139675    0.172929
   3 C     6.0000    0    12.011   -8.178602   -1.436362   -0.155865
   4 C     6.0000    0    12.011   -5.717234   -2.127680   -0.891554
   5 C     6.0000    0    12.011   -3.850846   -0.298426   -1.294727
   6 H     1.0000    0     1.008   -7.372691    4.986553    0.037927
   7 H     1.0000    0     1.008  -10.669791    1.720407    0.746782
   8 H     1.0000    0     1.008   -1.936043   -0.835845   -1.866520
   9 H     1.0000    0     1.008   -5.279536   -4.142034   -1.145533
  10 O     8.0000    0    15.999   -9.912521   -3.335367    0.207756
  11 H     1.0000    0     1.008  -11.507582   -2.545461    0.707192
  12 N     7.0000    0    14.007   -2.639418    4.244608   -1.329101
  13 C     6.0000    0    12.011   -0.129616    4.063554   -2.060198
  14 H     1.0000    0     1.008   -3.314277    6.027074   -1.020169
  15 C     6.0000    0    12.011    1.178811    6.626476   -2.293013
  16 H     1.0000    0     1.008    3.221964    6.289084   -2.638095
  17 H     1.0000    0     1.008    0.941386    7.786012   -0.540972
  18 H     1.0000    0     1.008    0.379419    7.725994   -3.913774
  19 O     8.0000    0    15.999    0.953178    2.048860   -2.502167

--------------------------------
INTERNAL COORDINATES (ANGSTROEM)
--------------------------------
 C      0   0   0     0.000000000000     0.00000000     0.00000000
 C      1   0   0     1.410424744182     0.00000000     0.00000000
 C      2   1   0     1.400522835016   120.90578873     0.00000000
 C      3   2   1     1.407567544596   120.12120563     0.00000000
 C      4   3   2     1.407799742506   119.07740911   359.94658065
 C      5   4   3     1.399283654232   121.02615564     0.04447461
 H      2   1   3     1.101832946412   119.84686876   179.99343027
 H      3   2   1     1.102009559441   119.67099563   180.00629704
 H      6   5   4     1.095056355353   121.03630339   179.98431460
 H      5   4   3     1.099072603107   118.73915942   180.00944245
 O      4   3   2     1.374324403844   123.12121285   179.93833712
 H     11   4   3     0.978277756570   107.54417569     0.00000000
 N      1   2   3     1.414268912053   117.87439693   180.14528971
 C     13   1   2     1.386645227663   128.87022108   180.49226915
 H     13   1   2     1.021744636590   114.81995883     0.00000000
 C     14  13   1     1.527733317598   113.28153919   178.99317286
 H     16  14  13     1.110943184776   108.15938673   172.79488477
 H     16  14  13     1.118873964841   111.66212652    52.25958014
 H     16  14  13     1.119411244762   110.60639402   292.08000780
 O     14  13   1     1.232741080438   123.90966552   359.51818060

---------------------------
INTERNAL COORDINATES (A.U.)
---------------------------
 C      0   0   0     0.000000000000     0.00000000     0.00000000
 C      1   0   0     2.665316499009     0.00000000     0.00000000
 C      2   1   0     2.646604602482   120.90578873     0.00000000
 C      3   2   1     2.659917174282   120.12120563     0.00000000
 C      4   3   2     2.660355964741   119.07740911   359.94658065
 C      5   4   3     2.644262890170   121.02615564     0.04447461
 H      2   1   3     2.082162514051   119.84686876   179.99343027
 H      3   2   1     2.082496264307   119.67099563   180.00629704
 H      6   5   4     2.069356612828   121.03630339   179.98431460
 H      5   4   3     2.076946221168   118.73915942   180.00944245
 O      4   3   2     2.597096742429   123.12121285   179.93833712
 H     11   4   3     1.848677042825   107.54417569     0.00000000
 N      1   2   3     2.672580923499   117.87439693   180.14528971
 C     13   1   2     2.620379725192   128.87022108   180.49226915
 H     13   1   2     1.930817541958   114.81995883     0.00000000
 C     14  13   1     2.886997575928   113.28153919   178.99317286
 H     16  14  13     2.099378369573   108.15938673   172.79488477
 H     16  14  13     2.114365371925   111.66212652    52.25958014
 H     16  14  13     2.115380683832   110.60639402   292.08000780
 O     14  13   1     2.329543036062   123.90966552   359.51818060

---------------------
BASIS SET INFORMATION
---------------------
There are 4 groups of distinct atoms

 Group   1 Type C   : 17s4p1d contracted to 3s2p1d pattern {881/31/1}
 Group   2 Type H   : 4s1p contracted to 2s1p pattern {31/1}
 Group   3 Type O   : 17s4p1d contracted to 3s2p1d pattern {881/31/1}
 Group   4 Type N   : 17s4p1d contracted to 3s2p1d pattern {881/31/1}

Atom   0C    basis set group =>   1
Atom   1C    basis set group =>   1
Atom   2C    basis set group =>   1
Atom   3C    basis set group =>   1
Atom   4C    basis set group =>   1
Atom   5C    basis set group =>   1
Atom   6H    basis set group =>   2
Atom   7H    basis set group =>   2
Atom   8H    basis set group =>   2
Atom   9H    basis set group =>   2
Atom  10O    basis set group =>   3
Atom  11H    basis set group =>   2
Atom  12N    basis set group =>   4
Atom  13C    basis set group =>   1
Atom  14H    basis set group =>   2
Atom  15C    basis set group =>   1
Atom  16H    basis set group =>   2
Atom  17H    basis set group =>   2
Atom  18H    basis set group =>   2
Atom  19O    basis set group =>   3
---------------------------------
AUXILIARY/J BASIS SET INFORMATION
---------------------------------
There are 4 groups of distinct atoms

 Group   1 Type C   : 12s5p4d2f1g contracted to 6s4p3d1f1g pattern {711111/2111/211/2/1}
 Group   2 Type H   : 5s2p1d contracted to 3s1p1d pattern {311/2/1}
 Group   3 Type O   : 12s5p4d2f1g contracted to 6s4p3d1f1g pattern {711111/2111/211/2/1}
 Group   4 Type N   : 12s5p4d2f1g contracted to 6s4p3d1f1g pattern {711111/2111/211/2/1}

Atom   0C    basis set group =>   1
Atom   1C    basis set group =>   1
Atom   2C    basis set group =>   1
Atom   3C    basis set group =>   1
Atom   4C    basis set group =>   1
Atom   5C    basis set group =>   1
Atom   6H    basis set group =>   2
Atom   7H    basis set group =>   2
Atom   8H    basis set group =>   2
Atom   9H    basis set group =>   2
Atom  10O    basis set group =>   3
Atom  11H    basis set group =>   2
Atom  12N    basis set group =>   4
Atom  13C    basis set group =>   1
Atom  14H    basis set group =>   2
Atom  15C    basis set group =>   1
Atom  16H    basis set group =>   2
Atom  17H    basis set group =>   2
Atom  18H    basis set group =>   2
Atom  19O    basis set group =>   3
---------------------------------
AUXILIARY/C BASIS SET INFORMATION
---------------------------------
There are 4 groups of distinct atoms

 Group   1 Type C   : 7s5p4d2f contracted to 7s5p4d2f pattern {1111111/11111/1111/11}
 Group   2 Type H   : 3s2p1d contracted to 3s2p1d pattern {111/11/1}
 Group   3 Type O   : 7s5p4d2f contracted to 7s5p4d2f pattern {1111111/11111/1111/11}
 Group   4 Type N   : 7s5p4d2f contracted to 7s5p4d2f pattern {1111111/11111/1111/11}

Atom   0C    basis set group =>   1
Atom   1C    basis set group =>   1
Atom   2C    basis set group =>   1
Atom   3C    basis set group =>   1
Atom   4C    basis set group =>   1
Atom   5C    basis set group =>   1
Atom   6H    basis set group =>   2
Atom   7H    basis set group =>   2
Atom   8H    basis set group =>   2
Atom   9H    basis set group =>   2
Atom  10O    basis set group =>   3
Atom  11H    basis set group =>   2
Atom  12N    basis set group =>   4
Atom  13C    basis set group =>   1
Atom  14H    basis set group =>   2
Atom  15C    basis set group =>   1
Atom  16H    basis set group =>   2
Atom  17H    basis set group =>   2
Atom  18H    basis set group =>   2
Atom  19O    basis set group =>   3
------------------------------------------------------------------------------
                           ORCA GTO INTEGRAL CALCULATION
                           -- RI-GTO INTEGRALS CHOSEN --
------------------------------------------------------------------------------
------------------------------------------------------------------------------
                   ___                                                        
                  /   \      - P O W E R E D   B Y -                         
                 /     \                                                     
                 |  |  |   _    _      __       _____    __    __             
                 |  |  |  | |  | |    /  \     |  _  \  |  |  /  |          
                  \  \/   | |  | |   /    \    | | | |  |  | /  /          
                 / \  \   | |__| |  /  /\  \   | |_| |  |  |/  /          
                |  |  |   |  __  | /  /__\  \  |    /   |      \           
                |  |  |   | |  | | |   __   |  |    \   |  |\   \          
                \     /   | |  | | |  |  |  |  | |\  \  |  | \   \       
                 \___/    |_|  |_| |__|  |__|  |_| \__\ |__|  \__/        
                                                                              
                      - O R C A' S   B I G   F R I E N D -                    
                                      &                                       
                       - I N T E G R A L  F E E D E R -                       
                                                                              
 v1 FN, 2020, v2 2021                                                         
------------------------------------------------------------------------------


Reading SHARK input file opt2.SHARKINP.tmp ... ok
----------------------
SHARK INTEGRAL PACKAGE
----------------------

Number of atoms                             ...     20
Number of basis functions                   ...    265
Number of shells                            ...    159
Maximum angular momentum                    ...      2
Integral batch strategy                     ... SHARK/LIBINT Hybrid
RI-J (if used) integral strategy            ... SPLIT-RIJ (Revised 2003 algorithm where possible)
Printlevel                                  ...      1
Contraction scheme used                     ... PARTIAL GENERAL contraction
Coulomb Range Separation                    ... NOT USED
Exchange Range Separation                   ... NOT USED
Finite Nucleus Model                        ... NOT USED
Auxiliary Coulomb fitting basis             ... AVAILABLE
   # of basis functions in Aux-J            ...    638
   # of shells in Aux-J                     ...    210
   Maximum angular momentum in Aux-J        ...      4
Auxiliary J/K fitting basis                 ... NOT available
Auxiliary Correlation fitting basis         ... AVAILABLE
   # of basis functions in Aux-C            ...    742
   # of shells in Aux-C                     ...    252
   Maximum angular momentum in Aux-C        ...      3
Auxiliary 'external' fitting basis          ... NOT available
Integral threshold                          ...     2.500000e-11
Primitive cut-off                           ...     2.500000e-12
Primitive pair pre-selection threshold      ...     2.500000e-12

Calculating pre-screening integrals         ... done (  0.1 sec) Dimension = 159
Calculating pre-screening integrals (ORCA)  ... done (  0.2 sec) Dimension = 93
Organizing shell pair data                  ... done (  0.1 sec)
Shell pair information
Total number of shell pairs                 ...     12720
Shell pairs after pre-screening             ...      7978
Total number of primitive shell pairs       ...     19960
Primitive shell pairs kept                  ...     11033
          la=0 lb=0:   3535 shell pairs
          la=1 lb=0:   2721 shell pairs
          la=1 lb=1:    437 shell pairs
          la=2 lb=0:    935 shell pairs
          la=2 lb=1:    293 shell pairs
          la=2 lb=2:     57 shell pairs

Calculating one electron integrals          ... done (  0.1 sec)
Calculating RI/J V-Matrix + Cholesky decomp.... done (  0.0 sec)
Calculating RI/C V-Matrix + Cholesky decomp.... done (  0.0 sec)
Calculating Nuclear repulsion               ... done (  0.0 sec) ENN=    567.010877940224 Eh

SHARK setup successfully completed in   0.7 seconds

Maximum memory used throughout the entire GTOINT-calculation: 32.2 MB
-------------------------------------------------------------------------------
                                 ORCA SCF
-------------------------------------------------------------------------------

------------
SCF SETTINGS
------------
Hamiltonian:
 Density Functional     Method          .... DFT(GTOs)
 Exchange Functional    Exchange        .... B88
   X-Alpha parameter    XAlpha          ....  0.666667
   Becke's b parameter  XBeta           ....  0.004200
 Correlation Functional Correlation     .... P86
 LDA part of GGA corr.  LDAOpt          .... PW91-LDA
 Gradients option       PostSCFGGA      .... off
   Density functional embedding theory  .... OFF
   NL short-range parameter             ....  4.400000
 RI-approximation to the Coulomb term is turned on
   Number of AuxJ basis functions       .... 638


General Settings:
 Integral files         IntName         .... opt2
 Hartree-Fock type      HFTyp           .... RHF
 Total Charge           Charge          ....    0
 Multiplicity           Mult            ....    1
 Number of Electrons    NEL             ....   80
 Basis Dimension        Dim             ....  199
 Nuclear Repulsion      ENuc            ....    567.0108779402 Eh

Convergence Acceleration:
 DIIS                   CNVDIIS         .... on
   Start iteration      DIISMaxIt       ....    12
   Startup error        DIISStart       ....  0.200000
   # of expansion vecs  DIISMaxEq       ....     5
   Bias factor          DIISBfac        ....   1.050
   Max. coefficient     DIISMaxC        ....  10.000
 Trust-Rad. Augm. Hess. CNVTRAH         .... auto
   Auto Start mean grad. ratio tolernc. ....  1.125000
   Auto Start start iteration           ....    20
   Auto Start num. interpolation iter.  ....    10
   Max. Number of Micro iterations      ....    16
   Max. Number of Macro iterations      .... Maxiter - #DIIS iter
   Number of Davidson start vectors     ....     2
   Converg. threshold I  (grad. norm)   ....   1.000e-05
   Converg. threshold II (energy diff.) ....   1.000e-08
   Grad. Scal. Fac. for Micro threshold ....   0.100
   Minimum threshold for Micro iter.    ....   0.010
   NR start threshold (gradient norm)   ....   0.001
   Initial trust radius                 ....   0.400
   Minimum AH scaling param. (alpha)    ....   1.000
   Maximum AH scaling param. (alpha)    .... 1000.000
   Orbital update algorithm             .... Taylor
   White noise on init. David. guess    .... on
   Maximum white noise                  ....   0.010
   Quad. conv. algorithm                .... NR
 SOSCF                  CNVSOSCF        .... on
   Start iteration      SOSCFMaxIt      ....   150
   Startup grad/error   SOSCFStart      ....  0.003300
 Level Shifting         CNVShift        .... on
   Level shift para.    LevelShift      ....    0.2500
   Turn off err/grad.   ShiftErr        ....    0.0010
 Zerner damping         CNVZerner       .... off
 Static damping         CNVDamp         .... on
   Fraction old density DampFac         ....    0.7000
   Max. Damping (<1)    DampMax         ....    0.9800
   Min. Damping (>=0)   DampMin         ....    0.0000
   Turn off err/grad.   DampErr         ....    0.1000
 Fernandez-Rico         CNVRico         .... off

SCF Procedure:
 Maximum # iterations   MaxIter         ....   125
 SCF integral mode      SCFMode         .... Direct
   Integral package                     .... SHARK and LIBINT hybrid scheme
 Reset frequency        DirectResetFreq ....    20
 Integral Threshold     Thresh          ....  2.500e-11 Eh
 Primitive CutOff       TCut            ....  2.500e-12 Eh

Convergence Tolerance:
 Convergence Check Mode ConvCheckMode   .... Total+1el-Energy
 Convergence forced     ConvForced      .... 0
 Energy Change          TolE            ....  1.000e-08 Eh
 1-El. energy change                    ....  1.000e-05 Eh
 Orbital Gradient       TolG            ....  1.000e-05
 Orbital Rotation angle TolX            ....  1.000e-05
 DIIS Error             TolErr          ....  5.000e-07


Diagonalization of the overlap matrix:
Smallest eigenvalue                        ... 3.748e-04
Time for diagonalization                   ...    0.017 sec
Threshold for overlap eigenvalues          ... 1.000e-08
Number of eigenvalues below threshold      ... 0
Time for construction of square roots      ...    0.009 sec
Total time needed                          ...    0.026 sec

Time for model grid setup =    1.309 sec

------------------------------
INITIAL GUESS: MODEL POTENTIAL
------------------------------
Loading Hartree-Fock densities                     ... done
Calculating cut-offs                               ... done
Initializing the effective Hamiltonian             ... done
Setting up the integral package (SHARK)            ... done
Starting the Coulomb interaction                   ... done (   1.5 sec)
Reading the grid                                   ... done
Mapping shells                                     ... done
Starting the XC term evaluation                    ... done (   0.9 sec)
  promolecular density results
     # of electrons  =     79.992981177
     EX              =    -66.740771016
     EC              =     -2.921073059
     EX+EC           =    -69.661844075
Transforming the Hamiltonian                       ... done (   0.0 sec)
Diagonalizing the Hamiltonian                      ... done (   0.0 sec)
Back transforming the eigenvectors                 ... done (   0.0 sec)
Now organizing SCF variables                       ... done
                      ------------------
                      INITIAL GUESS DONE (   3.8 sec)
                      ------------------
-------------------
DFT GRID GENERATION
-------------------

General Integration Accuracy     IntAcc      ... 4.388
Radial Grid Type                 RadialGrid  ... OptM3 with GC (2021)
Angular Grid (max. ang.)         AngularGrid ... 4 (Lebedev-302)
Angular grid pruning method      GridPruning ... 4 (adaptive)
Weight generation scheme         WeightScheme... Becke
Basis function cutoff            BFCut       ... 1.0000e-11
Integration weight cutoff        WCut        ... 1.0000e-14
Angular grids for H and He will be reduced by one unit
Partially contracted basis set               ... off
Rotationally invariant grid construction     ... off

Total number of grid points                  ...    95277
Total number of batches                      ...     1500
Average number of points per batch           ...       63
Average number of grid points per atom       ...     4764
Time for grid setup =    2.711 sec

--------------
SCF ITERATIONS
--------------
ITER       Energy         Delta-E        Max-DP      RMS-DP      [F,P]     Damp
               ***  Starting incremental Fock matrix formation  ***
  0   -515.2501510684   0.000000000000 0.11092233  0.00241543  0.2563005 0.7000
  1   -515.3902936562  -0.140142587768 0.05655052  0.00150987  0.0812633 0.7000
                               ***Turning on DIIS***
  2   -515.4342954060  -0.044001749863 0.05364589  0.00202902  0.0298142 0.0000
  3   -515.5105037748  -0.076208368772 0.03542736  0.00103987  0.0533795 0.0000
  4   -515.5273044319  -0.016800657115 0.01634343  0.00034816  0.0280530 0.0000
                      *** Initiating the SOSCF procedure ***
                           *** Shutting down DIIS ***
                      *** Re-Reading the Fockian *** 
                      *** Removing any level shift *** 
ITER      Energy       Delta-E        Grad      Rot      Max-DP    RMS-DP
  5   -515.52986692  -0.0025624874  0.000749  0.000749  0.002952  0.000103
               *** Restarting incremental Fock matrix formation ***
  6   -515.52995765  -0.0000907258  0.000552  0.002967  0.003913  0.000089
  7   -515.52991430   0.0000433473  0.001615  0.002026  0.003379  0.000057
  8   -515.52996809  -0.0000537905  0.000287  0.000887  0.001026  0.000028
  9   -515.52996400   0.0000040839  0.000466  0.000841  0.000821  0.000018
 10   -515.52996940  -0.0000053965  0.000105  0.000587  0.000470  0.000010
 11   -515.52996873   0.0000006702  0.000195  0.000393  0.000312  0.000007
 12   -515.52996959  -0.0000008595  0.000011  0.000040  0.000099  0.000002
 13   -515.52996957   0.0000000190  0.000021  0.000031  0.000064  0.000001
 14   -515.52996960  -0.0000000264  0.000004  0.000019  0.000015  0.000001
 15   -515.52996960  -0.0000000016  0.000008  0.000014  0.000011  0.000000
                  ***Gradient check signals convergence***
              ***Rediagonalizing the Fockian in SOSCF/NRSCF***

               *****************************************************
               *                     SUCCESS                       *
               *           SCF CONVERGED AFTER  16 CYCLES          *
               *****************************************************


----------------
TOTAL SCF ENERGY
----------------

Total Energy       :         -515.52996960 Eh          -14028.28366 eV

Components:
Nuclear Repulsion  :          567.01087794 Eh           15429.15039 eV
Electronic Energy  :        -1082.54084754 Eh          -29457.43405 eV
One Electron Energy:        -1824.37227188 Eh          -49643.69335 eV
Two Electron Energy:          741.83142434 Eh           20186.25931 eV

Virial components:
Potential Energy   :        -1027.15943665 Eh          -27950.42924 eV
Kinetic Energy     :          511.62946705 Eh           13922.14559 eV
Virial Ratio       :            2.00762369


DFT components:
N(Alpha)           :       39.999986796782 electrons
N(Beta)            :       39.999986796782 electrons
N(Total)           :       79.999973593564 electrons
E(X)               :      -67.893589546386 Eh       
E(C)               :       -2.936765350304 Eh       
E(XC)              :      -70.830354896691 Eh       
DFET-embed. en.    :        0.000000000000 Eh       

---------------
SCF CONVERGENCE
---------------

  Last Energy change         ...    2.1605e-09  Tolerance :   1.0000e-08
  Last MAX-Density change    ...    4.4622e-06  Tolerance :   1.0000e-07
  Last RMS-Density change    ...    1.4186e-07  Tolerance :   5.0000e-09
  Last Orbital Gradient      ...    1.2390e-06  Tolerance :   1.0000e-05
  Last Orbital Rotation      ...    5.0636e-06  Tolerance :   1.0000e-05

             **** THE GBW FILE WAS UPDATED (opt2.gbw) ****
             **** DENSITY opt2.scfp WAS UPDATED ****
             **** ENERGY FILE WAS UPDATED (opt2.en.tmp) ****
             **** THE GBW FILE WAS UPDATED (opt2.gbw) ****
             **** DENSITY opt2.scfp WAS UPDATED ****
----------------
ORBITAL ENERGIES
----------------

  NO   OCC          E(Eh)            E(eV) 
   0   2.0000     -18.817749      -512.0570 
   1   2.0000     -18.755379      -510.3598 
   2   2.0000     -14.058497      -382.5512 
   3   2.0000     -10.012313      -272.4489 
   4   2.0000      -9.971105      -271.3276 
   5   2.0000      -9.957208      -270.9494 
   6   2.0000      -9.928909      -270.1794 
   7   2.0000      -9.925555      -270.0881 
   8   2.0000      -9.922436      -270.0032 
   9   2.0000      -9.912886      -269.7433 
  10   2.0000      -9.911973      -269.7185 
  11   2.0000      -0.972120       -26.4527 
  12   2.0000      -0.946776       -25.7631 
  13   2.0000      -0.859818       -23.3968 
  14   2.0000      -0.769609       -20.9421 
  15   2.0000      -0.690559       -18.7911 
  16   2.0000      -0.680262       -18.5109 
  17   2.0000      -0.649223       -17.6662 
  18   2.0000      -0.580473       -15.7955 
  19   2.0000      -0.554905       -15.0997 
  20   2.0000      -0.525697       -14.3049 
  21   2.0000      -0.491495       -13.3743 
  22   2.0000      -0.476253       -12.9595 
  23   2.0000      -0.432405       -11.7663 
  24   2.0000      -0.413792       -11.2598 
  25   2.0000      -0.405115       -11.0237 
  26   2.0000      -0.392153       -10.6710 
  27   2.0000      -0.377873       -10.2824 
  28   2.0000      -0.370167       -10.0728 
  29   2.0000      -0.363737        -9.8978 
  30   2.0000      -0.352625        -9.5954 
  31   2.0000      -0.346444        -9.4272 
  32   2.0000      -0.340986        -9.2787 
  33   2.0000      -0.332444        -9.0462 
  34   2.0000      -0.300960        -8.1895 
  35   2.0000      -0.298687        -8.1277 
  36   2.0000      -0.250300        -6.8110 
  37   2.0000      -0.229049        -6.2327 
  38   2.0000      -0.205786        -5.5997 
  39   2.0000      -0.177795        -4.8381 
  40   0.0000      -0.041184        -1.1207 
  41   0.0000      -0.038754        -1.0546 
  42   0.0000       0.008189         0.2228 
  43   0.0000       0.019250         0.5238 
  44   0.0000       0.024067         0.6549 
  45   0.0000       0.047806         1.3009 
  46   0.0000       0.069011         1.8779 
  47   0.0000       0.095595         2.6013 
  48   0.0000       0.098628         2.6838 
  49   0.0000       0.104268         2.8373 
  50   0.0000       0.117670         3.2020 
  51   0.0000       0.122956         3.3458 
  52   0.0000       0.145004         3.9458 
  53   0.0000       0.158851         4.3226 
  54   0.0000       0.171784         4.6745 
  55   0.0000       0.203080         5.5261 
  56   0.0000       0.235916         6.4196 
  57   0.0000       0.255615         6.9556 
  58   0.0000       0.262279         7.1370 
  59   0.0000       0.281161         7.6508 
  60   0.0000       0.308978         8.4077 
  61   0.0000       0.331261         9.0141 
  62   0.0000       0.376732        10.2514 
  63   0.0000       0.395236        10.7549 
  64   0.0000       0.397965        10.8292 
  65   0.0000       0.406485        11.0610 
  66   0.0000       0.419484        11.4147 
  67   0.0000       0.432356        11.7650 
  68   0.0000       0.436997        11.8913 
  69   0.0000       0.452860        12.3229 
  70   0.0000       0.456935        12.4338 
  71   0.0000       0.461176        12.5492 
  72   0.0000       0.470385        12.7998 
  73   0.0000       0.480884        13.0855 
  74   0.0000       0.481992        13.1157 
  75   0.0000       0.495823        13.4920 
  76   0.0000       0.511676        13.9234 
  77   0.0000       0.513551        13.9744 
  78   0.0000       0.543480        14.7888 
  79   0.0000       0.556613        15.1462 
  80   0.0000       0.560645        15.2559 
  81   0.0000       0.563452        15.3323 
  82   0.0000       0.576833        15.6964 
  83   0.0000       0.585180        15.9236 
  84   0.0000       0.599661        16.3176 
  85   0.0000       0.600626        16.3439 
  86   0.0000       0.630773        17.1642 
  87   0.0000       0.648233        17.6393 
  88   0.0000       0.649352        17.6698 
  89   0.0000       0.670544        18.2464 
  90   0.0000       0.681375        18.5412 
  91   0.0000       0.694951        18.9106 
  92   0.0000       0.728954        19.8358 
  93   0.0000       0.749088        20.3837 
  94   0.0000       0.772677        21.0256 
  95   0.0000       0.806440        21.9443 
  96   0.0000       0.813115        22.1260 
  97   0.0000       0.826161        22.4810 
  98   0.0000       0.853442        23.2233 
  99   0.0000       0.855541        23.2804 
 100   0.0000       0.863324        23.4922 
 101   0.0000       0.879342        23.9281 
 102   0.0000       0.902501        24.5583 
 103   0.0000       0.926991        25.2247 
 104   0.0000       0.941835        25.6286 
 105   0.0000       0.956836        26.0368 
 106   0.0000       0.969474        26.3807 
 107   0.0000       0.976832        26.5810 
 108   0.0000       0.986698        26.8494 
 109   0.0000       1.017935        27.6994 
 110   0.0000       1.018946        27.7269 
 111   0.0000       1.035091        28.1663 
 112   0.0000       1.056496        28.7487 
 113   0.0000       1.073140        29.2016 
 114   0.0000       1.090509        29.6743 
 115   0.0000       1.109284        30.1851 
 116   0.0000       1.130019        30.7494 
 117   0.0000       1.183254        32.1980 
 118   0.0000       1.199880        32.6504 
 119   0.0000       1.213280        33.0150 
 120   0.0000       1.264897        34.4196 
 121   0.0000       1.283024        34.9129 
 122   0.0000       1.290271        35.1101 
 123   0.0000       1.304938        35.5092 
 124   0.0000       1.322576        35.9891 
 125   0.0000       1.372925        37.3592 
 126   0.0000       1.393009        37.9057 
 127   0.0000       1.414713        38.4963 
 128   0.0000       1.417079        38.5607 
 129   0.0000       1.433836        39.0167 
 130   0.0000       1.467028        39.9199 
 131   0.0000       1.486102        40.4389 
 132   0.0000       1.492506        40.6132 
 133   0.0000       1.499067        40.7917 
 134   0.0000       1.519375        41.3443 
 135   0.0000       1.531299        41.6688 
 136   0.0000       1.543169        41.9918 
 137   0.0000       1.557000        42.3681 
 138   0.0000       1.560019        42.4503 
 139   0.0000       1.571777        42.7702 
 140   0.0000       1.589135        43.2426 
 141   0.0000       1.597415        43.4679 
 142   0.0000       1.630786        44.3759 
 143   0.0000       1.651644        44.9435 
 144   0.0000       1.671764        45.4910 
 145   0.0000       1.675822        45.6014 
 146   0.0000       1.682841        45.7924 
 147   0.0000       1.689203        45.9655 
 148   0.0000       1.703002        46.3410 
 149   0.0000       1.710917        46.5564 
 150   0.0000       1.747674        47.5566 
 151   0.0000       1.751011        47.6474 
 152   0.0000       1.775530        48.3146 
 153   0.0000       1.795154        48.8486 
 154   0.0000       1.808696        49.2171 
 155   0.0000       1.857396        50.5423 
 156   0.0000       1.877714        51.0952 
 157   0.0000       1.891664        51.4748 
 158   0.0000       1.896081        51.5950 
 159   0.0000       1.925261        52.3890 
 160   0.0000       1.948123        53.0111 
 161   0.0000       1.960376        53.3445 
 162   0.0000       1.986520        54.0559 
 163   0.0000       2.016497        54.8717 
 164   0.0000       2.025705        55.1222 
 165   0.0000       2.031194        55.2716 
 166   0.0000       2.060800        56.0772 
 167   0.0000       2.066131        56.2223 
 168   0.0000       2.123472        57.7826 
 169   0.0000       2.133558        58.0571 
 170   0.0000       2.169068        59.0233 
 171   0.0000       2.211995        60.1914 
 172   0.0000       2.220018        60.4098 
 173   0.0000       2.265054        61.6353 
 174   0.0000       2.276502        61.9468 
 175   0.0000       2.288144        62.2636 
 176   0.0000       2.315798        63.0161 
 177   0.0000       2.327845        63.3439 
 178   0.0000       2.349283        63.9272 
 179   0.0000       2.364146        64.3317 
 180   0.0000       2.461032        66.9681 
 181   0.0000       2.503342        68.1194 
 182   0.0000       2.562983        69.7423 
 183   0.0000       2.576203        70.1021 
 184   0.0000       2.614013        71.1309 
 185   0.0000       2.646461        72.0139 
 186   0.0000       2.695599        73.3510 
 187   0.0000       2.782815        75.7242 
 188   0.0000       2.784211        75.7622 
 189   0.0000       2.839908        77.2778 
 190   0.0000       2.873651        78.1960 
 191   0.0000       2.981378        81.1274 
 192   0.0000       3.003901        81.7403 
 193   0.0000       3.085264        83.9543 
 194   0.0000       3.187300        86.7308 
 195   0.0000       3.337324        90.8132 
 196   0.0000       3.386756        92.1583 
 197   0.0000       3.432767        93.4103 
 198   0.0000       3.657295        99.5201 

                    ********************************
                    * MULLIKEN POPULATION ANALYSIS *
                    ********************************

-----------------------
MULLIKEN ATOMIC CHARGES
-----------------------
   0 C :    0.047604
   1 C :   -0.003333
   2 C :   -0.010857
   3 C :    0.037833
   4 C :    0.031130
   5 C :    0.026721
   6 H :   -0.023181
   7 H :   -0.018208
   8 H :    0.010162
   9 H :   -0.004726
  10 O :   -0.166772
  11 H :    0.150025
  12 N :   -0.105653
  13 C :    0.067107
  14 H :    0.083551
  15 C :   -0.078384
  16 H :    0.066232
  17 H :    0.056969
  18 H :    0.067333
  19 O :   -0.233551
Sum of atomic charges:    0.0000000

--------------------------------
MULLIKEN REDUCED ORBITAL CHARGES
--------------------------------
  0 C s       :     3.068749  s :     3.068749
      pz      :     1.005208  p :     2.778449
      px      :     0.855376
      py      :     0.917865
      dz2     :     0.008486  d :     0.105199
      dxz     :     0.015171
      dyz     :     0.018971
      dx2y2   :     0.026218
      dxy     :     0.036353
  1 C s       :     3.115771  s :     3.115771
      pz      :     1.025154  p :     2.828444
      px      :     0.957085
      py      :     0.846205
      dz2     :     0.004965  d :     0.059118
      dxz     :     0.012788
      dyz     :     0.005183
      dx2y2   :     0.021656
      dxy     :     0.014525
  2 C s       :     3.093588  s :     3.093588
      pz      :     1.046034  p :     2.859195
      px      :     0.888672
      py      :     0.924489
      dz2     :     0.003234  d :     0.058074
      dxz     :     0.005293
      dyz     :     0.013104
      dx2y2   :     0.021396
      dxy     :     0.015047
  3 C s       :     3.125620  s :     3.125620
      pz      :     0.980482  p :     2.702025
      px      :     0.882907
      py      :     0.838637
      dz2     :     0.010423  d :     0.134522
      dxz     :     0.019845
      dyz     :     0.023200
      dx2y2   :     0.037055
      dxy     :     0.043999
  4 C s       :     3.113030  s :     3.113030
      pz      :     1.011881  p :     2.798308
      px      :     0.934237
      py      :     0.852190
      dz2     :     0.004516  d :     0.057532
      dxz     :     0.011388
      dyz     :     0.005385
      dx2y2   :     0.022541
      dxy     :     0.013701
  5 C s       :     3.128883  s :     3.128883
      pz      :     0.970836  p :     2.785851
      px      :     0.864867
      py      :     0.950148
      dz2     :     0.003323  d :     0.058545
      dxz     :     0.005582
      dyz     :     0.012769
      dx2y2   :     0.021289
      dxy     :     0.015580
  6 H s       :     0.995352  s :     0.995352
      pz      :     0.006949  p :     0.027829
      px      :     0.005319
      py      :     0.015561
  7 H s       :     0.990082  s :     0.990082
      pz      :     0.007837  p :     0.028126
      px      :     0.014686
      py      :     0.005602
  8 H s       :     0.959013  s :     0.959013
      pz      :     0.007267  p :     0.030825
      px      :     0.018312
      py      :     0.005246
  9 H s       :     0.976778  s :     0.976778
      pz      :     0.006504  p :     0.027948
      px      :     0.005125
      py      :     0.016318
 10 O s       :     3.701708  s :     3.701708
      pz      :     1.750437  p :     4.451323
      px      :     1.183399
      py      :     1.517487
      dz2     :     0.001831  d :     0.013740
      dxz     :     0.001166
      dyz     :     0.002461
      dx2y2   :     0.002735
      dxy     :     0.005547
 11 H s       :     0.771009  s :     0.771009
      pz      :     0.023045  p :     0.078965
      px      :     0.035259
      py      :     0.020661
 12 N s       :     3.414727  s :     3.414727
      pz      :     1.548034  p :     3.662186
      px      :     1.075437
      py      :     1.038714
      dz2     :     0.002928  d :     0.028741
      dxz     :     0.005881
      dyz     :     0.002817
      dx2y2   :     0.009158
      dxy     :     0.007957
 13 C s       :     3.090670  s :     3.090670
      pz      :     0.871483  p :     2.646045
      px      :     0.853880
      py      :     0.920683
      dz2     :     0.014344  d :     0.196178
      dxz     :     0.028506
      dyz     :     0.030256
      dx2y2   :     0.070698
      dxy     :     0.052373
 14 H s       :     0.862525  s :     0.862525
      pz      :     0.014937  p :     0.053924
      px      :     0.011608
      py      :     0.027378
 15 C s       :     3.056394  s :     3.056394
      pz      :     0.991946  p :     2.987160
      px      :     1.025639
      py      :     0.969575
      dz2     :     0.005271  d :     0.034829
      dxz     :     0.003352
      dyz     :     0.010027
      dx2y2   :     0.008757
      dxy     :     0.007421
 16 H s       :     0.906491  s :     0.906491
      pz      :     0.006348  p :     0.027278
      px      :     0.015753
      py      :     0.005176
 17 H s       :     0.915172  s :     0.915172
      pz      :     0.012897  p :     0.027859
      px      :     0.006086
      py      :     0.008876
 18 H s       :     0.904658  s :     0.904658
      pz      :     0.012158  p :     0.028009
      px      :     0.007240
      py      :     0.008612
 19 O s       :     3.760466  s :     3.760466
      pz      :     1.405376  p :     4.456476
      px      :     1.633682
      py      :     1.417419
      dz2     :     0.002067  d :     0.016610
      dxz     :     0.001284
      dyz     :     0.003958
      dx2y2   :     0.004046
      dxy     :     0.005255


                     *******************************
                     * LOEWDIN POPULATION ANALYSIS *
                     *******************************

----------------------
LOEWDIN ATOMIC CHARGES
----------------------
   0 C :   -0.052478
   1 C :   -0.050280
   2 C :   -0.076255
   3 C :   -0.066450
   4 C :   -0.041624
   5 C :   -0.028845
   6 H :    0.026077
   7 H :    0.027171
   8 H :    0.031846
   9 H :    0.035961
  10 O :    0.071739
  11 H :    0.064652
  12 N :    0.145613
  13 C :   -0.142927
  14 H :    0.067862
  15 C :   -0.099615
  16 H :    0.050396
  17 H :    0.042298
  18 H :    0.048320
  19 O :   -0.053461

-------------------------------
LOEWDIN REDUCED ORBITAL CHARGES
-------------------------------
  0 C s       :     2.800563  s :     2.800563
      pz      :     0.988227  p :     2.960030
      px      :     0.977516
      py      :     0.994287
      dz2     :     0.023345  d :     0.291885
      dxz     :     0.039876
      dyz     :     0.048488
      dx2y2   :     0.077586
      dxy     :     0.102591
  1 C s       :     2.822266  s :     2.822266
      pz      :     0.994819  p :     3.035735
      px      :     1.029168
      py      :     1.011748
      dz2     :     0.016526  d :     0.192279
      dxz     :     0.035339
      dyz     :     0.013228
      dx2y2   :     0.072266
      dxy     :     0.054920
  2 C s       :     2.824819  s :     2.824819
      pz      :     1.014207  p :     3.061641
      px      :     1.013466
      py      :     1.033968
      dz2     :     0.012985  d :     0.189796
      dxz     :     0.014183
      dyz     :     0.034445
      dx2y2   :     0.071327
      dxy     :     0.056855
  3 C s       :     2.815983  s :     2.815983
      pz      :     0.962021  p :     2.903885
      px      :     0.967404
      py      :     0.974460
      dz2     :     0.027669  d :     0.346582
      dxz     :     0.047426
      dyz     :     0.057201
      dx2y2   :     0.100363
      dxy     :     0.113923
  4 C s       :     2.824322  s :     2.824322
      pz      :     0.982182  p :     3.030200
      px      :     1.028629
      py      :     1.019389
      dz2     :     0.015571  d :     0.187102
      dxz     :     0.031996
      dyz     :     0.012887
      dx2y2   :     0.074093
      dxy     :     0.052556
  5 C s       :     2.825554  s :     2.825554
      pz      :     0.956680  p :     3.014882
      px      :     1.032117
      py      :     1.026085
      dz2     :     0.012568  d :     0.188409
      dxz     :     0.014167
      dyz     :     0.033904
      dx2y2   :     0.070319
      dxy     :     0.057452
  6 H s       :     0.894228  s :     0.894228
      pz      :     0.019359  p :     0.079695
      px      :     0.016971
      py      :     0.043365
  7 H s       :     0.892959  s :     0.892959
      pz      :     0.021819  p :     0.079870
      px      :     0.040801
      py      :     0.017250
  8 H s       :     0.876452  s :     0.876452
      pz      :     0.020825  p :     0.091702
      px      :     0.053088
      py      :     0.017790
  9 H s       :     0.883845  s :     0.883845
      pz      :     0.018670  p :     0.080194
      px      :     0.016025
      py      :     0.045499
 10 O s       :     3.385553  s :     3.385553
      pz      :     1.708186  p :     4.515601
      px      :     1.259559
      py      :     1.547855
      dz2     :     0.003356  d :     0.027107
      dxz     :     0.002910
      dyz     :     0.003092
      dx2y2   :     0.005847
      dxy     :     0.011902
 11 H s       :     0.742113  s :     0.742113
      pz      :     0.056954  p :     0.193235
      px      :     0.080776
      py      :     0.055505
 12 N s       :     3.003978  s :     3.003978
      pz      :     1.467864  p :     3.762744
      px      :     1.167418
      py      :     1.127462
      dz2     :     0.007249  d :     0.087664
      dxz     :     0.013963
      dyz     :     0.006816
      dx2y2   :     0.031669
      dxy     :     0.027967
 13 C s       :     2.837176  s :     2.837176
      pz      :     0.861000  p :     2.820464
      px      :     0.937983
      py      :     1.021481
      dz2     :     0.039040  d :     0.485287
      dxz     :     0.072097
      dyz     :     0.062828
      dx2y2   :     0.181296
      dxy     :     0.130026
 14 H s       :     0.795263  s :     0.795263
      pz      :     0.042341  p :     0.136875
      px      :     0.028347
      py      :     0.066187
 15 C s       :     2.833319  s :     2.833319
      pz      :     1.053496  p :     3.141427
      px      :     1.060323
      py      :     1.027608
      dz2     :     0.021698  d :     0.124869
      dxz     :     0.010640
      dyz     :     0.036232
      dx2y2   :     0.031737
      dxy     :     0.024562
 16 H s       :     0.873290  s :     0.873290
      pz      :     0.015738  p :     0.076315
      px      :     0.045580
      py      :     0.014997
 17 H s       :     0.881282  s :     0.881282
      pz      :     0.035415  p :     0.076419
      px      :     0.015738
      py      :     0.025266
 18 H s       :     0.875261  s :     0.875261
      pz      :     0.032864  p :     0.076419
      px      :     0.019462
      py      :     0.024093
 19 O s       :     3.505303  s :     3.505303
      pz      :     1.390488  p :     4.518460
      px      :     1.625665
      py      :     1.502306
      dz2     :     0.004046  d :     0.029699
      dxz     :     0.001864
      dyz     :     0.005597
      dx2y2   :     0.007687
      dxy     :     0.010505


                      *****************************
                      * MAYER POPULATION ANALYSIS *
                      *****************************

  NA   - Mulliken gross atomic population
  ZA   - Total nuclear charge
  QA   - Mulliken gross atomic charge
  VA   - Mayer's total valence
  BVA  - Mayer's bonded valence
  FA   - Mayer's free valence

  ATOM       NA         ZA         QA         VA         BVA        FA
  0 C      5.9524     6.0000     0.0476     4.0873     4.0873     0.0000
  1 C      6.0033     6.0000    -0.0033     3.9477     3.9477     0.0000
  2 C      6.0109     6.0000    -0.0109     3.9452     3.9452    -0.0000
  3 C      5.9622     6.0000     0.0378     4.1261     4.1261    -0.0000
  4 C      5.9689     6.0000     0.0311     3.9560     3.9560    -0.0000
  5 C      5.9733     6.0000     0.0267     3.9816     3.9816     0.0000
  6 H      1.0232     1.0000    -0.0232     0.9771     0.9771    -0.0000
  7 H      1.0182     1.0000    -0.0182     0.9758     0.9758     0.0000
  8 H      0.9898     1.0000     0.0102     1.0348     1.0348     0.0000
  9 H      1.0047     1.0000    -0.0047     0.9856     0.9856     0.0000
 10 O      8.1668     8.0000    -0.1668     2.3474     2.3474     0.0000
 11 H      0.8500     1.0000     0.1500     1.0402     1.0402     0.0000
 12 N      7.1057     7.0000    -0.1057     3.3748     3.3748     0.0000
 13 C      5.9329     6.0000     0.0671     4.3933     4.3933     0.0000
 14 H      0.9164     1.0000     0.0836     1.0231     1.0231     0.0000
 15 C      6.0784     6.0000    -0.0784     3.9187     3.9187     0.0000
 16 H      0.9338     1.0000     0.0662     1.0031     1.0031     0.0000
 17 H      0.9430     1.0000     0.0570     0.9810     0.9810    -0.0000
 18 H      0.9327     1.0000     0.0673     0.9789     0.9789    -0.0000
 19 O      8.2336     8.0000    -0.2336     2.3607     2.3607     0.0000

  Mayer bond orders larger than 0.100000
B(  0-C ,  1-C ) :   1.3703 B(  0-C ,  5-C ) :   1.3920 B(  0-C , 12-N ) :   1.0919 
B(  1-C ,  2-C ) :   1.4855 B(  1-C ,  6-H ) :   0.9173 B(  2-C ,  3-C ) :   1.3436 
B(  2-C ,  7-H ) :   0.9154 B(  3-C ,  4-C ) :   1.3731 B(  3-C , 10-O ) :   1.2160 
B(  4-C ,  5-C ) :   1.4832 B(  4-C ,  9-H ) :   0.9211 B(  5-C ,  8-H ) :   0.9043 
B( 10-O , 11-H ) :   0.9934 B( 12-N , 13-C ) :   1.1942 B( 12-N , 14-H ) :   0.9297 
B( 13-C , 15-C ) :   1.0319 B( 13-C , 19-O ) :   2.0508 B( 15-C , 16-H ) :   0.9562 
B( 15-C , 17-H ) :   0.9504 B( 15-C , 18-H ) :   0.9484 

-------
TIMINGS
-------

Total SCF time: 0 days 0 hours 1 min 15 sec 

Total time                  ....      75.441 sec
Sum of individual times     ....      72.333 sec  ( 95.9%)

Fock matrix formation       ....      65.481 sec  ( 86.8%)
  Split-RI-J                ....      20.660 sec  ( 31.6% of F)
  XC integration            ....      44.637 sec  ( 68.2% of F)
    Basis function eval.    ....      18.417 sec  ( 41.3% of XC)
    Density eval.           ....      12.478 sec  ( 28.0% of XC)
    XC-Functional eval.     ....       2.910 sec  (  6.5% of XC)
    XC-Potential eval.      ....       8.981 sec  ( 20.1% of XC)
Diagonalization             ....       0.087 sec  (  0.1%)
Density matrix formation    ....       0.028 sec  (  0.0%)
Population analysis         ....       0.039 sec  (  0.1%)
Initial guess               ....       2.478 sec  (  3.3%)
Orbital Transformation      ....       0.000 sec  (  0.0%)
Orbital Orthonormalization  ....       0.000 sec  (  0.0%)
DIIS solution               ....       0.083 sec  (  0.1%)
SOSCF solution              ....       0.117 sec  (  0.2%)
Grid generation             ....       4.020 sec  (  5.3%)

Maximum memory used throughout the entire SCF-calculation: 62.6 MB


-------------------------------------------------------------------------------
                          DFT DISPERSION CORRECTION                            
                                                                               
                                 DFTD4 V2.5                                    
-------------------------------------------------------------------------------
The BP86 functional is recognized
Active option DFTDOPT                   ...         5   

Starting D4
-------------------------   ----------------
Dispersion correction           -0.027152525
-------------------------   ----------------


-------------------------   --------------------
FINAL SINGLE POINT ENERGY      -515.557122121672
-------------------------   --------------------

------------------------------------------------------------------------------
                         ORCA SCF GRADIENT CALCULATION
------------------------------------------------------------------------------

Gradient of the Kohn-Sham DFT energy:
Kohn-Sham wavefunction type      ... RKS
Hartree-Fock exchange scaling    ...    0.000
Number of operators              ...    1
Number of atoms                  ...   20
Basis set dimensions             ...  199
Integral neglect threshold       ... 2.5e-11
Integral primitive cutoff        ... 2.5e-12
SHARK Integral package           ... ON

Nuc. rep. gradient       (SHARK) ... done (  0.0 sec)
HCore & Overlap gradient (SHARK) ... done (  1.0 sec)
RI-J gradient            (SHARK) ... done (  4.5 sec)
Exchange-correlation gradient    ... done
Dispersion correction            ... Starting D4


------------------- 
Dispersion Gradient 
------------------- 
   1  :   -0.000071374    0.000048548    0.000024748
   2  :   -0.000317359    0.000281129    0.000107769
   3  :   -0.000411375    0.000015967    0.000116105
   4  :   -0.000255234   -0.000242540    0.000055618
   5  :   -0.000087331   -0.000466461   -0.000005962
   6  :    0.000115216   -0.000272303   -0.000049280
   7  :   -0.000101813    0.000137294    0.000037489
   8  :   -0.000138402    0.000042033    0.000041445
   9  :    0.000122290   -0.000092305   -0.000040201
  10  :    0.000020014   -0.000156776   -0.000015869
  11  :   -0.000352112   -0.000337739    0.000076770
  12  :   -0.000070565   -0.000066207    0.000015487
  13  :    0.000205077    0.000269015   -0.000036066
  14  :    0.000431671    0.000238176   -0.000106110
  15  :    0.000002865    0.000169689    0.000011112
  16  :    0.000298617    0.000338704   -0.000065725
  17  :    0.000060097    0.000041096   -0.000013667
  18  :    0.000075007    0.000084065    0.000001058
  19  :    0.000066034    0.000080002   -0.000033223
  20  :    0.000408675   -0.000111386   -0.000121497

  |G| =    0.001290846

done

------------------
CARTESIAN GRADIENT
------------------

   1   C   :   -0.000067835   -0.000054419   -0.000007372
   2   C   :   -0.000208636   -0.000155704    0.000027332
   3   C   :    0.000207312    0.000209858   -0.000051978
   4   C   :   -0.000287767    0.000135650    0.000092838
   5   C   :   -0.000106909   -0.000062661    0.000038344
   6   C   :    0.000246145    0.000398559   -0.000039241
   7   H   :    0.000036867   -0.000095109   -0.000024884
   8   H   :    0.000048146   -0.000091882   -0.000025114
   9   H   :   -0.000203064   -0.000310850    0.000042000
  10   H   :    0.000118847    0.000112016   -0.000017678
  11   O   :    0.000067306   -0.000382100   -0.000018802
  12   H   :    0.000017426    0.000201509    0.000004917
  13   N   :    0.000172901    0.000127346   -0.000076540
  14   C   :    0.000756631   -0.000752766   -0.000238247
  15   H   :   -0.000099721    0.000057158    0.000027866
  16   C   :   -0.001260429   -0.003839204    0.000338346
  17   H   :    0.004307246   -0.001311275   -0.000745988
  18   H   :   -0.000875083    0.002711248    0.004607231
  19   H   :   -0.002366645    0.002567793   -0.004120832
  20   O   :   -0.000502737    0.000534832    0.000187800

Difference to translation invariance:
           :    0.0000000000    0.0000000000    0.0000000000

Difference to rotation invariance:
           :   -0.0002491764   -0.0000426086   -0.0003085559

Norm of the cartesian gradient     ...    0.0099257369
RMS gradient                       ...    0.0012814071
MAX gradient                       ...    0.0046072310

-------
TIMINGS
-------

Total SCF gradient time            ...       19.152 sec

One electron gradient       ....       1.040 sec  (  5.4%)
RI-J Coulomb gradient       ....       4.462 sec  ( 23.3%)
XC gradient                 ....      13.116 sec  ( 68.5%)

Maximum memory used throughout the entire SCFGRAD-calculation: 59.4 MB
------------------------------------------------------------------------------
                         ORCA GEOMETRY RELAXATION STEP
------------------------------------------------------------------------------

Reading the OPT-File                    .... done
Getting information on internals        .... done
Copying old internal coords+grads       .... done
Making the new internal coordinates     .... (new redundants).... done
Validating the new internal coordinates .... (new redundants).... done
Calculating the B-matrix                .... done
Calculating the G,G- and P matrices     .... done
Transforming gradient to internals      .... done
Projecting the internal gradient        .... done
Number of atoms                         ....  20
Number of internal coordinates          ....  91
Current Energy                          ....  -515.557122122 Eh
Current gradient norm                   ....     0.009925737 Eh/bohr
Maximum allowed component of the step   ....  0.300
Current trust radius                    ....  0.300
Evaluating the initial hessian          ....  (Almloef) done
Projecting the Hessian                  .... done
Forming the augmented Hessian           .... done
Diagonalizing the augmented Hessian     .... done
Last element of RFO vector              ....  0.999585876
Lowest eigenvalues of augmented Hessian:
 -0.000249714  0.010600882  0.016723131  0.020747020  0.022204672
Length of the computed step             ....  0.028788250
The final length of the internal step   ....  0.028788250
Converting the step to cartesian space:
 Initial RMS(Int)=    0.0030178286
Transforming coordinates:
 Iter   0:  RMS(Cart)=    0.0045206600 RMS(Int)=    1.3170988376
 Iter   1:  RMS(Cart)=    0.0000146559 RMS(Int)=    0.0000086110
 Iter   2:  RMS(Cart)=    0.0000001059 RMS(Int)=    0.0000000693
 Iter   3:  RMS(Cart)=    0.0000000006 RMS(Int)=    0.0000000004
done
Storing new coordinates                 .... done

                                .--------------------.
          ----------------------|Geometry convergence|-------------------------
          Item                value                   Tolerance       Converged
          ---------------------------------------------------------------------
          RMS gradient        0.0009465139            0.0001000000      NO
          MAX gradient        0.0054061073            0.0003000000      NO
          RMS step            0.0030178286            0.0020000000      NO
          MAX step            0.0166798974            0.0040000000      NO
          ........................................................
          Max(Bonds)      0.0088      Max(Angles)    0.12
          Max(Dihed)        0.17      Max(Improp)    0.00
          ---------------------------------------------------------------------

The optimization has not yet converged - more geometry cycles are needed


    ---------------------------------------------------------------------------
                         Redundant Internal Coordinates
                            (Angstroem and degrees)

        Definition                    Value    dE/dq     Step     New-Value
    ----------------------------------------------------------------------------
     1. B(C   1,C   0)                1.4104  0.000063 -0.0001    1.4104   
     2. B(C   2,C   1)                1.4005 -0.000138  0.0001    1.4006   
     3. B(C   3,C   2)                1.4076 -0.000064  0.0001    1.4076   
     4. B(C   4,C   3)                1.4078 -0.000008  0.0000    1.4078   
     5. B(C   5,C   0)                1.4139 -0.000057  0.0000    1.4140   
     6. B(C   5,C   4)                1.3993  0.000013 -0.0000    1.3993   
     7. B(H   6,C   1)                1.1018 -0.000105  0.0002    1.1020   
     8. B(H   7,C   2)                1.1020 -0.000078  0.0001    1.1021   
     9. B(H   8,C   5)                1.0951 -0.000118  0.0002    1.0952   
    10. B(H   9,C   4)                1.0991 -0.000080  0.0001    1.0992   
    11. B(O  10,C   3)                1.3743  0.000075 -0.0001    1.3743   
    12. B(H  11,O  10)                0.9783  0.000068 -0.0001    0.9782   
    13. B(N  12,C   0)                1.4143  0.000164 -0.0002    1.4141   
[...]
     34      -0.344966   0.168410  -0.017564  -0.000069   0.000002  -0.002651
     35       0.025732  -0.015394   0.000338  -0.000023   0.000012   0.001990
     36       0.075180  -0.041991  -0.017728  -0.000012   0.000050   0.000079
     37      -0.018535  -0.021849   0.073810  -0.000137  -0.000069   0.000167
     38      -0.022488   0.010388   0.009682   0.000003  -0.000270  -0.000012
     39      -0.037002   0.003396   0.316282  -0.002020  -0.000294  -0.000329
     40       0.000218  -0.007820  -0.603353  -0.001031  -0.000195  -0.000127
     41       0.010515  -0.001722  -0.126656   0.000540   0.000864   0.000087
     42      -0.396417   0.108829  -0.401008   0.001731   0.001305  -0.004014
     43      -0.209839   0.043063  -0.098463   0.001860   0.000980  -0.005036
     44       0.097718  -0.027971   0.108439  -0.000334   0.002526   0.000794
     45       0.003129   0.003920  -0.014126   0.003713   0.017238   0.000470
     46       0.001966   0.002547   0.052612   0.052461   0.001924  -0.000101
     47      -0.001300  -0.000639   0.006876  -0.002832   0.090266  -0.000050
     48       0.009848   0.001922  -0.039622  -0.359042  -0.026539  -0.005265
     49       0.038187  -0.005717  -0.260214   0.067949   0.005089   0.000782
     50       0.000626  -0.001210   0.014369   0.057565   0.025963   0.000864
     51       0.015855  -0.008226   0.010444   0.075734   0.090833  -0.000062
     52      -0.015034  -0.002645   0.166864  -0.346607  -0.393603   0.000192
     53       0.010335   0.002736  -0.080376  -0.543569  -0.575344   0.000373
     54       0.010207  -0.008705   0.006716   0.251180  -0.269698  -0.000304
     55      -0.012898  -0.003340   0.136465  -0.329052   0.368815   0.000385
     56      -0.013673  -0.000307   0.063553   0.517361  -0.535892  -0.000635
     57       0.005546  -0.000306  -0.186378   0.000478   0.000096   0.000115
     58      -0.002396   0.004802   0.359430  -0.000338  -0.000018  -0.000089
     59      -0.001700   0.000421   0.075816  -0.000163   0.000067  -0.000039
                 54         55         56         57         58         59    
      0      -0.003668   0.000297   0.000028  -0.000604  -0.001142  -0.000026
      1      -0.000253   0.000160  -0.000442   0.003502   0.000176  -0.000058
      2       0.001011  -0.000076  -0.000039   0.000402   0.000314   0.000002
      3       0.012587  -0.000280   0.000512  -0.000299  -0.000046  -0.000147
      4      -0.059948   0.001018  -0.002559  -0.000598  -0.000705  -0.000019
      5      -0.007549   0.000151  -0.000315   0.000042  -0.000029   0.000040
      6       0.059301  -0.000422   0.000728  -0.000642   0.000120   0.001666
      7      -0.016474   0.000101  -0.000808   0.000289   0.000045   0.000037
      8      -0.017696   0.000123  -0.000257   0.000199  -0.000031  -0.000463
      9       0.000446   0.000006   0.004050  -0.001153   0.000006  -0.001947
     10       0.004216  -0.000015   0.000438  -0.000032  -0.000046   0.002268
     11       0.000160  -0.000003  -0.001107   0.000318  -0.000004   0.000697
     12      -0.000074   0.000038  -0.019108  -0.000753  -0.000070   0.000763
     13      -0.002580  -0.000040   0.083112  -0.012098   0.000147  -0.000371
     14      -0.000152  -0.000015   0.010934  -0.000606   0.000032  -0.000238
     15       0.000028  -0.000206   0.006915   0.080054   0.000167  -0.000169
     16       0.000729   0.000021  -0.004973  -0.023724  -0.000944   0.000127
     17       0.000040   0.000061  -0.002269  -0.024006  -0.000116   0.000056
     18      -0.159400   0.002916  -0.006620  -0.001426   0.001575   0.000213
     19       0.666093  -0.011804   0.027454   0.007595   0.004584   0.000867
     20       0.089350  -0.001607   0.003696   0.000897  -0.000157  -0.000001
     21      -0.658726   0.004495  -0.010544   0.006080   0.000004  -0.008463
     22       0.202157  -0.001388   0.003785  -0.001993   0.000122  -0.000506
     23       0.197822  -0.001356   0.003205  -0.001831   0.000001   0.002329
     24       0.003145   0.001727  -0.109938  -0.911418  -0.002369   0.000609
     25      -0.002803  -0.000869   0.034311   0.270392   0.001087  -0.000580
     26      -0.001070  -0.000520   0.033096   0.273399   0.000741  -0.000210
     27      -0.004949  -0.000135   0.214351  -0.023168   0.000395   0.000552
     28       0.027382   0.000292  -0.956971   0.113536  -0.000125   0.000375
     29       0.003223   0.000052  -0.124300   0.014132  -0.000115  -0.000129
     30       0.000106  -0.000007  -0.000487   0.000048   0.000025  -0.054527
     31      -0.000727  -0.000010   0.000016   0.000060  -0.000061   0.024086
     32      -0.000079   0.000002   0.000138  -0.000009  -0.000011   0.016924
     33      -0.008262   0.000010  -0.000561   0.000983  -0.000995   0.869854
     34      -0.000817   0.000067  -0.002209  -0.000071   0.000428  -0.407050
     35       0.002266   0.000002   0.000013  -0.000278   0.000307  -0.271532
     36       0.000423   0.000276   0.000161   0.000759  -0.025500   0.000134
     37      -0.000205  -0.000228   0.000030  -0.000570   0.067043   0.000141
     38      -0.000132  -0.000148  -0.000043  -0.000247   0.011628  -0.000028
     39      -0.000062  -0.001581  -0.000235  -0.001093   0.001254  -0.000186
     40       0.000314   0.001927   0.000039   0.000513   0.001443   0.000086
     41       0.000040   0.000445   0.000072   0.000344  -0.000267   0.000063
     42       0.003099   0.002264   0.000076  -0.001625   0.344776   0.000395
     43       0.004596   0.002124   0.000973   0.001773  -0.922406  -0.001005
     44      -0.000568  -0.000526   0.000042   0.000568  -0.158024  -0.000179
     45      -0.000989  -0.084065  -0.000064  -0.000068  -0.000147  -0.000001
     46       0.000302   0.032710   0.000030   0.000035   0.000068   0.000008
     47       0.000154   0.015911   0.000005  -0.000008   0.000097  -0.000004
     48       0.011516   0.906720   0.001017   0.001804   0.000755   0.000101
     49      -0.001637  -0.146052  -0.000110  -0.000049   0.000011   0.000024
     50      -0.001879  -0.147504  -0.000161  -0.000276  -0.000158  -0.000005
     51       0.000179   0.021090   0.000001  -0.000018   0.000954   0.000030
     52      -0.001022  -0.144696  -0.000017  -0.000772  -0.001281   0.000043
     53      -0.001696  -0.227484  -0.000030  -0.000469  -0.001187   0.000028
     54       0.000698   0.075438   0.000035   0.000191   0.000346   0.000039
     55      -0.000891  -0.113549  -0.000001  -0.000603  -0.000475   0.000063
     56       0.001560   0.185653   0.000034   0.000399   0.000132  -0.000044
     57      -0.000000   0.000570   0.000198   0.001156   0.000429   0.000050
     58      -0.000035  -0.000525   0.000024  -0.000011  -0.000933  -0.000078
     59      -0.000003  -0.000155  -0.000055  -0.000326  -0.000183  -0.000020


-----------
IR SPECTRUM
-----------

 Mode   freq       eps      Int      T**2         TX        TY        TZ
       cm**-1   L/(mol*cm) km/mol    a.u.
----------------------------------------------------------------------------
  7:     56.42   0.000033    0.17  0.000181  ( 0.003076 -0.000771  0.013091)
  8:     73.58   0.000769    3.88  0.003259  (-0.015922  0.003782 -0.054696)
  9:    151.04   0.000720    3.64  0.001488  ( 0.035088  0.013229 -0.009063)
 10:    170.49   0.000022    0.11  0.000040  ( 0.002225 -0.000095  0.005920)
 11:    305.48   0.001132    5.72  0.001156  (-0.025039 -0.022291  0.005663)
 12:    307.97   0.000044    0.22  0.000044  ( 0.003106 -0.005561 -0.001954)
 13:    354.59   0.018431   93.14  0.016221  ( 0.034227 -0.008348  0.122390)
 14:    366.43   0.000635    3.21  0.000541  (-0.006594  0.001210 -0.022274)
 15:    407.66   0.000151    0.76  0.000116  ( 0.001510 -0.002039  0.010457)
 16:    408.73   0.001891    9.56  0.001444  ( 0.027501  0.025724 -0.005102)
 17:    487.68   0.004128   20.86  0.002642  ( 0.038594  0.032123 -0.010971)
 18:    503.58   0.008575   43.33  0.005314  (-0.021333  0.002242 -0.069667)
 19:    508.99   0.002360   11.93  0.001447  ( 0.009773 -0.002918  0.036648)
 20:    590.57   0.002389   12.07  0.001262  (-0.008987  0.003678 -0.034174)
 21:    613.78   0.000263    1.33  0.000134  (-0.000553 -0.011006 -0.003528)
 22:    637.92   0.000395    1.99  0.000193  ( 0.012071  0.005794 -0.003708)
 23:    698.43   0.000058    0.29  0.000026  ( 0.001152 -0.000435  0.004947)
 24:    764.79   0.003793   19.17  0.001548  ( 0.010934 -0.002089  0.037732)
 25:    775.74   0.002625   13.27  0.001056  ( 0.021957  0.023501 -0.004656)
 26:    825.53   0.005275   26.66  0.001994  ( 0.011877 -0.003095  0.042934)
 27:    842.30   0.001700    8.59  0.000630  ( 0.020346  0.013887 -0.004812)
 28:    871.23   0.000042    0.21  0.000015  (-0.001047  0.000237 -0.003733)
 29:    938.20   0.002932   14.82  0.000975  ( 0.025390  0.016769 -0.007035)
 30:    949.89   0.000113    0.57  0.000037  (-0.002017  0.000374 -0.005730)
 31:    958.51   0.005006   25.30  0.001630  (-0.034680 -0.018544  0.009125)
 32:    988.77   0.000487    2.46  0.000154  ( 0.001300 -0.003444  0.011832)
 33:    989.39   0.000424    2.15  0.000134  (-0.005973 -0.006185  0.007743)
 34:   1083.15   0.003172   16.03  0.000914  ( 0.022516 -0.018744 -0.007455)
 35:   1141.33   0.000872    4.41  0.000238  ( 0.013340  0.007057 -0.003272)
 36:   1162.95   0.034815  175.94  0.009342  (-0.066015 -0.069204  0.013961)
 37:   1203.15   0.012183   61.57  0.003160  (-0.045596 -0.030700  0.011762)
 38:   1229.02   0.012164   61.47  0.003089  (-0.040249 -0.037241  0.009043)
 39:   1269.13   0.006229   31.48  0.001532  (-0.037513 -0.004268  0.010308)
 40:   1284.07   0.005921   29.92  0.001439  ( 0.018146  0.033211 -0.002599)
 41:   1312.15   0.002508   12.67  0.000596  (-0.010143 -0.021983  0.003211)
 42:   1377.51   0.029820  150.70  0.006755  ( 0.074086  0.029576 -0.019797)
 43:   1392.58   0.004346   21.96  0.000974  (-0.029758  0.005442  0.007667)
 44:   1408.49   0.001640    8.29  0.000363  (-0.005849 -0.000609 -0.018132)
 45:   1420.54   0.020400  103.09  0.004481  (-0.055426 -0.035250  0.012919)
 46:   1489.90   0.004597   23.23  0.000963  (-0.012133 -0.028542  0.001005)
 47:   1513.91   0.085061  429.86  0.017534  ( 0.109477  0.069583 -0.026585)
 48:   1598.27   0.006519   32.94  0.001273  (-0.028273 -0.020705  0.006692)
 49:   1630.09   0.000761    3.85  0.000146  (-0.007531 -0.009310  0.001505)
 50:   1716.34   0.041224  208.33  0.007495  ( 0.071672 -0.043072 -0.022434)
 51:   2964.55   0.001824    9.22  0.000192  ( 0.002219  0.013675  0.000188)
 52:   3038.88   0.001998   10.10  0.000205  ( 0.002194  0.001987  0.014017)
 53:   3078.05   0.004511   22.80  0.000457  ( 0.014595  0.015330 -0.003057)
 54:   3095.90   0.003124   15.79  0.000315  ( 0.013394 -0.010749 -0.004462)
 55:   3100.56   0.000739    3.74  0.000074  (-0.008023  0.002311  0.002170)
 56:   3125.38   0.001116    5.64  0.000111  ( 0.000924  0.010508  0.000411)
 57:   3172.24   0.001604    8.11  0.000158  (-0.011497 -0.004065  0.003010)
 58:   3496.11   0.002167   10.95  0.000193  ( 0.007440 -0.011402 -0.002838)
 59:   3650.79   0.010262   51.86  0.000877  ( 0.028403  0.003161 -0.007776)

* The epsilon (eps) is given for a Dirac delta lineshape.
** The dipole moment derivative (T) already includes vibrational overlap.

The first frequency considered to be a vibration is 7
The total number of vibrations considered is 53


--------------------------
THERMOCHEMISTRY AT 298.15K
--------------------------

Temperature         ... 298.15 K
Pressure            ... 1.00 atm
Total Mass          ... 151.16 AMU

Throughout the following assumptions are being made:
  (1) The electronic state is orbitally nondegenerate
  (2) There are no thermally accessible electronically excited states
  (3) Hindered rotations indicated by low frequency modes are not
      treated as such but are treated as vibrations and this may
      cause some error
  (4) All equations used are the standard statistical mechanics
      equations for an ideal gas
  (5) All vibrations are strictly harmonic

freq.      56.42  E(vib)   ...       0.52 
freq.      73.58  E(vib)   ...       0.49 
freq.     151.04  E(vib)   ...       0.40 
freq.     170.49  E(vib)   ...       0.38 
freq.     305.48  E(vib)   ...       0.26 
freq.     307.97  E(vib)   ...       0.26 
freq.     354.59  E(vib)   ...       0.22 
freq.     366.43  E(vib)   ...       0.22 
freq.     407.66  E(vib)   ...       0.19 
freq.     408.73  E(vib)   ...       0.19 
freq.     487.68  E(vib)   ...       0.15 
freq.     503.58  E(vib)   ...       0.14 
freq.     508.99  E(vib)   ...       0.14 
freq.     590.57  E(vib)   ...       0.10 
freq.     613.78  E(vib)   ...       0.10 
freq.     637.92  E(vib)   ...       0.09 
freq.     698.43  E(vib)   ...       0.07 
freq.     764.79  E(vib)   ...       0.06 
freq.     775.74  E(vib)   ...       0.05 
freq.     825.53  E(vib)   ...       0.04 
freq.     842.30  E(vib)   ...       0.04 
freq.     871.23  E(vib)   ...       0.04 
freq.     938.20  E(vib)   ...       0.03 
freq.     949.89  E(vib)   ...       0.03 
freq.     958.51  E(vib)   ...       0.03 
freq.     988.77  E(vib)   ...       0.02 
freq.     989.39  E(vib)   ...       0.02 
freq.    1083.15  E(vib)   ...       0.02 
freq.    1141.33  E(vib)   ...       0.01 
freq.    1162.95  E(vib)   ...       0.01 
freq.    1203.15  E(vib)   ...       0.01 
freq.    1229.02  E(vib)   ...       0.01 
freq.    1269.13  E(vib)   ...       0.01 
freq.    1284.07  E(vib)   ...       0.01 
freq.    1312.15  E(vib)   ...       0.01 
freq.    1377.51  E(vib)   ...       0.01 
freq.    1392.58  E(vib)   ...       0.00 
freq.    1408.49  E(vib)   ...       0.00 
freq.    1420.54  E(vib)   ...       0.00 
freq.    1489.90  E(vib)   ...       0.00 
freq.    1513.91  E(vib)   ...       0.00 
freq.    1598.27  E(vib)   ...       0.00 
freq.    1630.09  E(vib)   ...       0.00 
freq.    1716.34  E(vib)   ...       0.00 
freq.    2964.55  E(vib)   ...       0.00 
freq.    3038.88  E(vib)   ...       0.00 
freq.    3078.05  E(vib)   ...       0.00 
freq.    3095.90  E(vib)   ...       0.00 
freq.    3100.56  E(vib)   ...       0.00 
freq.    3125.38  E(vib)   ...       0.00 
freq.    3172.24  E(vib)   ...       0.00 
freq.    3496.11  E(vib)   ...       0.00 
freq.    3650.79  E(vib)   ...       0.00 

------------
INNER ENERGY
------------

The inner energy is: U= E(el) + E(ZPE) + E(vib) + E(rot) + E(trans)
    E(el)   - is the total energy from the electronic structure calculation
              = E(kin-el) + E(nuc-el) + E(el-el) + E(nuc-nuc)
    E(ZPE)  - the the zero temperature vibrational energy from the frequency calculation
    E(vib)  - the the finite temperature correction to E(ZPE) due to population
              of excited vibrational states
    E(rot)  - is the rotational thermal energy
    E(trans)- is the translational thermal energy

Summary of contributions to the inner energy U:
Electronic energy                ...   -515.55725386 Eh
Zero point energy                ...      0.15378257 Eh      96.50 kcal/mol
Thermal vibrational correction   ...      0.00699486 Eh       4.39 kcal/mol
Thermal rotational correction    ...      0.00141627 Eh       0.89 kcal/mol
Thermal translational correction ...      0.00141627 Eh       0.89 kcal/mol
-----------------------------------------------------------------------
Total thermal energy                   -515.39364389 Eh


Summary of corrections to the electronic energy:
(perhaps to be used in another calculation)
Total thermal correction                  0.00982740 Eh       6.17 kcal/mol
Non-thermal (ZPE) correction              0.15378257 Eh      96.50 kcal/mol
-----------------------------------------------------------------------
Total correction                          0.16360997 Eh     102.67 kcal/mol


--------
ENTHALPY
--------

The enthalpy is H = U + kB*T
                kB is Boltzmann's constant
Total free energy                 ...   -515.39364389 Eh 
Thermal Enthalpy correction       ...      0.00094421 Eh       0.59 kcal/mol
-----------------------------------------------------------------------
Total Enthalpy                    ...   -515.39269968 Eh


Note: Only C1 symmetry has been detected, increase convergence thresholds 
      if your molecule has a higher symmetry. Symmetry factor of 1.0 is   
      used for the rotational entropy correction. 
 

Note: Rotational entropy computed according to Herzberg 
Infrared and Raman Spectra, Chapter V,1, Van Nostrand Reinhold, 1945 
Point Group:  C1, Symmetry Number:   1  
Rotational constants in cm-1:     0.117766     0.018015     0.015672 

Vibrational entropy computed according to the QRRHO of S. Grimme
Chem.Eur.J. 2012 18 9955


-------
ENTROPY
-------

The entropy contributions are T*S = T*(S(el)+S(vib)+S(rot)+S(trans))
     S(el)   - electronic entropy
     S(vib)  - vibrational entropy
     S(rot)  - rotational entropy
     S(trans)- translational entropy
The entropies will be listed as multiplied by the temperature to get
units of energy

Electronic entropy                ...      0.00000000 Eh      0.00 kcal/mol
Vibrational entropy               ...      0.01157552 Eh      7.26 kcal/mol
Rotational entropy                ...      0.01437876 Eh      9.02 kcal/mol
Translational entropy             ...      0.01945645 Eh     12.21 kcal/mol
-----------------------------------------------------------------------
Final entropy term                ...      0.04541072 Eh     28.50 kcal/mol

In case the symmetry of your molecule has not been determined correctly
or in case you have a reason to use a different symmetry number we print 
out the resulting rotational entropy values for sn=1,12 :
 --------------------------------------------------------
|  sn= 1 | S(rot)=       0.01437876 Eh      9.02 kcal/mol|
|  sn= 2 | S(rot)=       0.01372430 Eh      8.61 kcal/mol|
|  sn= 3 | S(rot)=       0.01334147 Eh      8.37 kcal/mol|
|  sn= 4 | S(rot)=       0.01306985 Eh      8.20 kcal/mol|
|  sn= 5 | S(rot)=       0.01285916 Eh      8.07 kcal/mol|
|  sn= 6 | S(rot)=       0.01268702 Eh      7.96 kcal/mol|
|  sn= 7 | S(rot)=       0.01254147 Eh      7.87 kcal/mol|
|  sn= 8 | S(rot)=       0.01241539 Eh      7.79 kcal/mol|
|  sn= 9 | S(rot)=       0.01230418 Eh      7.72 kcal/mol|
|  sn=10 | S(rot)=       0.01220470 Eh      7.66 kcal/mol|
|  sn=11 | S(rot)=       0.01211471 Eh      7.60 kcal/mol|
|  sn=12 | S(rot)=       0.01203256 Eh      7.55 kcal/mol|
 --------------------------------------------------------


-------------------
GIBBS FREE ENERGY
-------------------

The Gibbs free energy is G = H - T*S

Total enthalpy                    ...   -515.39269968 Eh 
Total entropy correction          ...     -0.04541072 Eh    -28.50 kcal/mol
-----------------------------------------------------------------------
Final Gibbs free energy         ...   -515.43811041 Eh

For completeness - the Gibbs free energy minus the electronic energy
G-E(el)                           ...      0.11914345 Eh     74.76 kcal/mol


Timings for individual modules:

Sum of individual times         ...      942.879 sec (=  15.715 min)
GTO integral calculation        ...        2.607 sec (=   0.043 min)   0.3 %
SCF iterations                  ...      149.827 sec (=   2.497 min)  15.9 %
SCF Gradient evaluation         ...       37.620 sec (=   0.627 min)   4.0 %
Geometry relaxation             ...        0.356 sec (=   0.006 min)   0.0 %
Analytical frequency calculation...      752.469 sec (=  12.541 min)  79.8 %
                             ****ORCA TERMINATED NORMALLY****
TOTAL RUN TIME: 0 days 0 hours 15 minutes 45 seconds 476 msec
