
                                 *****************
                                 * O   R   C   A *
                                 *****************

                                            #,                                       
                                            ###                                      
                                            ####                                     
                                            #####                                    
                                            ######                                   
                                           ########,                                 
                                     ,,################,,,,,                         
                               ,,#################################,,                 
                          ,,##########################################,,             
                       ,#########################################, ''#####,          
                    ,#############################################,,   '####,        
                  ,##################################################,,,,####,       
                ,###########''''           ''''###############################       
              ,#####''   ,,,,##########,,,,          '''####'''          '####       
            ,##' ,,,,###########################,,,                        '##       
           ' ,,###''''                  '''############,,,                           
         ,,##''                                '''############,,,,        ,,,,,,###''
      ,#''                                            '''#######################'''  
     '                                                          ''''####''''         
             ,#######,   #######,   ,#######,      ##                                
            ,#'     '#,  ##    ##  ,#'     '#,    #''#        ######   ,####,        
            ##       ##  ##   ,#'  ##            #'  '#       #        #'  '#        
            ##       ##  #######   ##           ,######,      #####,   #    #        
            '#,     ,#'  ##    ##  '#,     ,#' ,#      #,         ##   #,  ,#        
             '#######'   ##     ##  '#######'  #'      '#     #####' # '####'        



                  #######################################################
                  #                        -***-                        #
                  #          Department of theory and spectroscopy      #
                  #    Directorship and core code : Frank Neese         #
                  #        Max Planck Institute fuer Kohlenforschung    #
                  #                Kaiser Wilhelm Platz 1               #
                  #                 D-45470 Muelheim/Ruhr               #
                  #                      Germany                        #
                  #                                                     #
                  #                  All rights reserved                #
                  #                        -***-                        #
                  #######################################################



                         Program Version 5.0.4 -  RELEASE  -

 With contributions from (in alphabetic order):
   Daniel Aravena         : Magnetic Suceptibility
   Michael Atanasov       : Ab Initio Ligand Field Theory (pilot matlab implementation)
   Alexander A. Auer      : GIAO ZORA, VPT2 properties, NMR spectrum
   Ute Becker             : Parallelization
   Giovanni Bistoni       : ED, misc. LED, open-shell LED, HFLD
   Martin Brehm           : Molecular dynamics
   Dmytro Bykov           : SCF Hessian
   Vijay G. Chilkuri      : MRCI spin determinant printing, contributions to CSF-ICE
   Dipayan Datta          : RHF DLPNO-CCSD density
   Achintya Kumar Dutta   : EOM-CC, STEOM-CC
   Dmitry Ganyushin       : Spin-Orbit,Spin-Spin,Magnetic field MRCI
   Miquel Garcia          : C-PCM and meta-GGA Hessian, CC/C-PCM, Gaussian charge scheme
   Yang Guo               : DLPNO-NEVPT2, F12-NEVPT2, CIM, IAO-localization
   Andreas Hansen         : Spin unrestricted coupled pair/coupled cluster methods
   Benjamin Helmich-Paris : MC-RPA, TRAH-SCF, COSX integrals
   Lee Huntington         : MR-EOM, pCC
   Robert Izsak           : Overlap fitted RIJCOSX, COSX-SCS-MP3, EOM
   Marcus Kettner         : VPT2
   Christian Kollmar      : KDIIS, OOCD, Brueckner-CCSD(T), CCSD density, CASPT2, CASPT2-K
   Simone Kossmann        : Meta GGA functionals, TD-DFT gradient, OOMP2, MP2 Hessian
   Martin Krupicka        : Initial AUTO-CI
   Lucas Lang             : DCDCAS
   Marvin Lechner         : AUTO-CI (C++ implementation), FIC-MRCC
   Dagmar Lenk            : GEPOL surface, SMD
   Dimitrios Liakos       : Extrapolation schemes; Compound Job, initial MDCI parallelization
   Dimitrios Manganas     : Further ROCIS development; embedding schemes
   Dimitrios Pantazis     : SARC Basis sets
   Anastasios Papadopoulos: AUTO-CI, single reference methods and gradients
   Taras Petrenko         : DFT Hessian,TD-DFT gradient, ASA, ECA, R-Raman, ABS, FL, XAS/XES, NRVS
   Peter Pinski           : DLPNO-MP2, DLPNO-MP2 Gradient
   Christoph Reimann      : Effective Core Potentials
   Marius Retegan         : Local ZFS, SOC
   Christoph Riplinger    : Optimizer, TS searches, QM/MM, DLPNO-CCSD(T), (RO)-DLPNO pert. Triples
   Tobias Risthaus        : Range-separated hybrids, TD-DFT gradient, RPA, STAB
   Michael Roemelt        : Original ROCIS implementation
   Masaaki Saitow         : Open-shell DLPNO-CCSD energy and density
   Barbara Sandhoefer     : DKH picture change effects
   Avijit Sen             : IP-ROCIS
   Kantharuban Sivalingam : CASSCF convergence, NEVPT2, FIC-MRCI
   Bernardo de Souza      : ESD, SOC TD-DFT
   Georgi Stoychev        : AutoAux, RI-MP2 NMR, DLPNO-MP2 response
   Willem Van den Heuvel  : Paramagnetic NMR
   Boris Wezisla          : Elementary symmetry handling
   Frank Wennmohs         : Technical directorship


 We gratefully acknowledge several colleagues who have allowed us to
 interface, adapt or use parts of their codes:
   Stefan Grimme, W. Hujo, H. Kruse, P. Pracht,  : VdW corrections, initial TS optimization,
                  C. Bannwarth, S. Ehlert          DFT functionals, gCP, sTDA/sTD-DF
   Ed Valeev, F. Pavosevic, A. Kumar             : LibInt (2-el integral package), F12 methods
   Garnet Chan, S. Sharma, J. Yang, R. Olivares  : DMRG
   Ulf Ekstrom                                   : XCFun DFT Library
   Mihaly Kallay                                 : mrcc  (arbitrary order and MRCC methods)
   Jiri Pittner, Ondrej Demel                    : Mk-CCSD
   Frank Weinhold                                : gennbo (NPA and NBO analysis)
   Christopher J. Cramer and Donald G. Truhlar   : smd solvation model
   Lars Goerigk                                  : TD-DFT with DH, B97 family of functionals
   V. Asgeirsson, H. Jonsson                     : NEB implementation
   FAccTs GmbH                                   : IRC, NEB, NEB-TS, DLPNO-Multilevel, CI-OPT
                                                   MM, QMMM, 2- and 3-layer-ONIOM, Crystal-QMMM,
                                                   LR-CPCM, SF, NACMEs, symmetry and pop. for TD-DFT,
                                                   nearIR, NL-DFT gradient (VV10), updates on ESD,
                                                   ML-optimized integration grids
   S Lehtola, MJT Oliveira, MAL Marques          : LibXC Library
   Liviu Ungur et al                             : ANISO software


 Your calculation uses the libint2 library for the computation of 2-el integrals
 For citations please refer to: http://libint.valeyev.net

 Your ORCA version has been built with support for libXC version: 5.1.0
 For citations please refer to: https://tddft.org/programs/libxc/

 This ORCA versions uses:
   CBLAS   interface :  Fast vector & matrix operations
   LAPACKE interface :  Fast linear algebra routines
   Shared memory     :  Shared parallel matrices


Your calculation utilizes the atom-pairwise dispersion correction
based on tight binding partial charges (D4)
Cite in your paper:
E.Caldeweyher, C.Bannwarth, S.Grimme, J.Chem.Phys., (2017), 147, 034112.
E.Caldeweyher, S.Ehlert, A.Hansen, H.Neugebauer, S.Grimme, J.Chem.Phys., (2018), in progress.
   

================================================================================

----- Orbital basis set information -----
Your calculation utilizes the basis: def2-QZVPPD
   F. Weigend and R. Ahlrichs, Phys. Chem. Chem. Phys. 7, 3297 (2005).
   D. Rappoport and F. Furche, J. Chem. Phys. 133 134105 (2010).

----- AuxJ basis set information -----
Your calculation utilizes the auxiliary basis: def2/J
   F. Weigend, Phys. Chem. Chem. Phys. 8, 1057 (2006).

================================================================================
                                        WARNINGS
                       Please study these warnings very carefully!
================================================================================


WARNING: your system is open-shell and RHF/RKS was chosen
  ===> : WILL SWITCH to UHF/UKS


INFO   : the flag for use of the SHARK integral package has been found!

================================================================================
                                       INPUT FILE
================================================================================
NAME = anion.inp
|  1> !B3LYP DEF2-QZVPPD D4 KEEPDENS SOSCF
|  2> 
|  3> %scf
|  4> convergence tight
|  5> end
|  6> 
|  7> * xyz 1 2
|  8>   C   -4.88569336155230      2.98207060676121      0.04333537261272
|  9>   C   -6.14959695789773      2.35864301241116      0.02758592588736
| 10>   C   -6.25559380286015      0.96845232728990     -0.00121869885868
| 11>   C   -5.11290643775582      0.16234415122468     -0.01440284580436
| 12>   C   -3.85586007858743      0.77497453451715      0.00208204091935
| 13>   C   -3.73800009771254      2.16417133781313      0.03090801634500
| 14>   H   -7.05256446988853      2.97652953111245      0.03476026878305
| 15>   H   -7.24815752893036      0.50936420781894     -0.01176333836965
| 16>   H   -5.20066374355790     -0.92621478272232     -0.03568755561573
| 17>   H   -2.94935247147236      0.16323446923219     -0.00589977089820
| 18>   H   -2.74782466200470      2.62955680400795      0.04054469739011
| 19>   N   -4.77400026474504      4.36582607320833      0.02173325533785
| 20>   H   -5.57985384924347      4.88619583261605      0.34871705822918
| 21>   H   -3.89604227379165      4.75045189470918      0.35073557404198
| 22> **                         ****END OF INPUT****
================================================================================

                       ****************************
                       * Single Point Calculation *
                       ****************************

---------------------------------
CARTESIAN COORDINATES (ANGSTROEM)
---------------------------------
  C     -4.885693    2.982071    0.043335
  C     -6.149597    2.358643    0.027586
  C     -6.255594    0.968452   -0.001219
  C     -5.112906    0.162344   -0.014403
  C     -3.855860    0.774975    0.002082
  C     -3.738000    2.164171    0.030908
  H     -7.052564    2.976530    0.034760
  H     -7.248158    0.509364   -0.011763
  H     -5.200664   -0.926215   -0.035688
  H     -2.949352    0.163234   -0.005900
  H     -2.747825    2.629557    0.040545
  N     -4.774000    4.365826    0.021733
  H     -5.579854    4.886196    0.348717
  H     -3.896042    4.750452    0.350736

----------------------------
CARTESIAN COORDINATES (A.U.)
----------------------------
  NO LB      ZA    FRAG     MASS         X           Y           Z
   0 C     6.0000    0    12.011   -9.232622    5.635297    0.081892
   1 C     6.0000    0    12.011  -11.621054    4.457189    0.052130
   2 C     6.0000    0    12.011  -11.821359    1.830110   -0.002303
   3 C     6.0000    0    12.011   -9.661993    0.306786   -0.027217
   4 C     6.0000    0    12.011   -7.286520    1.464490    0.003934
   5 C     6.0000    0    12.011   -7.063796    4.089691    0.058408
   6 H     1.0000    0     1.008  -13.327415    5.624826    0.065687
   7 H     1.0000    0     1.008  -13.697033    0.962559   -0.022229
   8 H     1.0000    0     1.008   -9.827830   -1.750292   -0.067440
   9 H     1.0000    0     1.008   -5.573468    0.308468   -0.011149
  10 H     1.0000    0     1.008   -5.192636    4.969142    0.076618
  11 N     7.0000    0    14.007   -9.021553    8.250216    0.041070
  12 H     1.0000    0     1.008  -10.544396    9.233572    0.658980
  13 H     1.0000    0     1.008   -7.362453    8.977053    0.662794

--------------------------------
INTERNAL COORDINATES (ANGSTROEM)
--------------------------------
 C      0   0   0     0.000000000000     0.00000000     0.00000000
 C      1   0   0     1.409383663636     0.00000000     0.00000000
 C      2   1   0     1.394523280030   120.62124987     0.00000000
 C      3   2   1     1.398470102512   120.84505814     0.03409859
 C      4   3   2     1.398482494392   118.80549324     0.00000000
 C      5   4   3     1.394485449992   120.83857368     0.00000000
 H      2   1   3     1.094159745604   119.35417300   180.20519390
 H      3   2   1     1.093643379339   119.18675301   179.92817755
 H      4   3   2     1.092298007079   120.59622984   179.92176950
 H      5   4   3     1.093638723963   119.99578905   179.88486531
 H      6   5   4     1.094131569440   120.02673924   180.18119945
 N      1   2   3     1.388423995135   120.85195132   177.58252821
 H     12   1   2     1.013460948191   116.27916399    22.84360398
 H     12   1   2     1.013405043483   116.28935887   159.57318851

---------------------------
INTERNAL COORDINATES (A.U.)
---------------------------
 C      0   0   0     0.000000000000     0.00000000     0.00000000
 C      1   0   0     2.663349141895     0.00000000     0.00000000
 C      2   1   0     2.635267086635   120.62124987     0.00000000
 C      3   2   1     2.642725500224   120.84505814     0.03409859
 C      4   3   2     2.642748917485   118.80549324     0.00000000
 C      5   4   3     2.635195598222   120.83857368     0.00000000
 H      2   1   3     2.067662265952   119.35417300   180.20519390
 H      3   2   1     2.066686475127   119.18675301   179.92817755
 H      4   3   2     2.064144090008   120.59622984   179.92176950
 H      5   4   3     2.066677677742   119.99578905   179.88486531
 H      6   5   4     2.067609020720   120.02673924   180.18119945
 N      1   2   3     2.623741108571   120.85195132   177.58252821
 H     12   1   2     1.915163639505   116.27916399    22.84360398
 H     12   1   2     1.915057994917   116.28935887   159.57318851

---------------------
BASIS SET INFORMATION
---------------------
There are 3 groups of distinct atoms

 Group   1 Type C   : 16s8p4d2f1g contracted to 8s4p4d2f1g pattern {82111111/5111/1111/11/1}
 Group   2 Type H   : 7s4p2d1f contracted to 4s4p2d1f pattern {4111/1111/11/1}
 Group   3 Type N   : 16s8p4d2f1g contracted to 8s4p4d2f1g pattern {82111111/5111/1111/11/1}

Atom   0C    basis set group =>   1
Atom   1C    basis set group =>   1
Atom   2C    basis set group =>   1
Atom   3C    basis set group =>   1
Atom   4C    basis set group =>   1
Atom   5C    basis set group =>   1
Atom   6H    basis set group =>   2
Atom   7H    basis set group =>   2
Atom   8H    basis set group =>   2
Atom   9H    basis set group =>   2
Atom  10H    basis set group =>   2
Atom  11N    basis set group =>   3
Atom  12H    basis set group =>   2
Atom  13H    basis set group =>   2
---------------------------------
AUXILIARY/J BASIS SET INFORMATION
---------------------------------
There are 3 groups of distinct atoms

 Group   1 Type C   : 12s5p4d2f1g contracted to 6s4p3d1f1g pattern {711111/2111/211/2/1}
 Group   2 Type H   : 5s2p1d contracted to 3s1p1d pattern {311/2/1}
 Group   3 Type N   : 12s5p4d2f1g contracted to 6s4p3d1f1g pattern {711111/2111/211/2/1}

Atom   0C    basis set group =>   1
Atom   1C    basis set group =>   1
Atom   2C    basis set group =>   1
Atom   3C    basis set group =>   1
Atom   4C    basis set group =>   1
Atom   5C    basis set group =>   1
Atom   6H    basis set group =>   2
Atom   7H    basis set group =>   2
Atom   8H    basis set group =>   2
Atom   9H    basis set group =>   2
Atom  10H    basis set group =>   2
Atom  11N    basis set group =>   3
Atom  12H    basis set group =>   2
Atom  13H    basis set group =>   2
------------------------------------------------------------------------------
                           ORCA GTO INTEGRAL CALCULATION
                           -- RI-GTO INTEGRALS CHOSEN --
------------------------------------------------------------------------------
------------------------------------------------------------------------------
                   ___                                                        
                  /   \      - P O W E R E D   B Y -                         
                 /     \                                                     
                 |  |  |   _    _      __       _____    __    __             
                 |  |  |  | |  | |    /  \     |  _  \  |  |  /  |          
                  \  \/   | |  | |   /    \    | | | |  |  | /  /          
                 / \  \   | |__| |  /  /\  \   | |_| |  |  |/  /          
                |  |  |   |  __  | /  /__\  \  |    /   |      \           
                |  |  |   | |  | | |   __   |  |    \   |  |\   \          
                \     /   | |  | | |  |  |  |  | |\  \  |  | \   \       
                 \___/    |_|  |_| |__|  |__|  |_| \__\ |__|  \__/        
                                                                              
                      - O R C A' S   B I G   F R I E N D -                    
                                      &                                       
                       - I N T E G R A L  F E E D E R -                       
                                                                              
 v1 FN, 2020, v2 2021                                                         
------------------------------------------------------------------------------


Reading SHARK input file anion.SHARKINP.tmp ... ok
----------------------
SHARK INTEGRAL PACKAGE
----------------------

Number of atoms                             ...     14
Number of basis functions                   ...    672
Number of shells                            ...    210
Maximum angular momentum                    ...      4
Integral batch strategy                     ... SHARK/LIBINT Hybrid
RI-J (if used) integral strategy            ... SPLIT-RIJ (Revised 2003 algorithm where possible)
Printlevel                                  ...      1
Contraction scheme used                     ... SEGMENTED contraction
Coulomb Range Separation                    ... NOT USED
Exchange Range Separation                   ... NOT USED
Finite Nucleus Model                        ... NOT USED
Auxiliary Coulomb fitting basis             ... AVAILABLE
   # of basis functions in Aux-J            ...    420
   # of shells in Aux-J                     ...    140
   Maximum angular momentum in Aux-J        ...      4
Auxiliary J/K fitting basis                 ... NOT available
Auxiliary Correlation fitting basis         ... NOT available
Auxiliary 'external' fitting basis          ... NOT available
Integral threshold                          ...     2.500000e-11
Primitive cut-off                           ...     2.500000e-12
Primitive pair pre-selection threshold      ...     2.500000e-12

Calculating pre-screening integrals         ... done (  1.7 sec) Dimension = 210
Organizing shell pair data                  ... done (  2.7 sec)
Shell pair information
Total number of shell pairs                 ...     22155
Shell pairs after pre-screening             ...     19856
Total number of primitive shell pairs       ...     50085
Primitive shell pairs kept                  ...     36257
          la=0 lb=0:   3035 shell pairs
          la=1 lb=0:   4268 shell pairs
          la=1 lb=1:   1506 shell pairs
          la=2 lb=0:   3121 shell pairs
          la=2 lb=1:   2183 shell pairs
          la=2 lb=2:    815 shell pairs
          la=3 lb=0:   1521 shell pairs
          la=3 lb=1:   1064 shell pairs
          la=3 lb=2:    785 shell pairs
          la=3 lb=3:    201 shell pairs
          la=4 lb=0:    547 shell pairs
          la=4 lb=1:    371 shell pairs
          la=4 lb=2:    273 shell pairs
          la=4 lb=3:    138 shell pairs
          la=4 lb=4:     28 shell pairs

Calculating one electron integrals          ... done (  1.0 sec)
Calculating RI/J V-Matrix + Cholesky decomp.... done (  0.0 sec)
Calculating Nuclear repulsion               ... done (  0.0 sec) ENN=    270.631545540734 Eh

SHARK setup successfully completed in   8.9 seconds

Maximum memory used throughout the entire GTOINT-calculation: 605.7 MB
-------------------------------------------------------------------------------
                                 ORCA SCF
-------------------------------------------------------------------------------

------------
SCF SETTINGS
------------
Hamiltonian:
 Density Functional     Method          .... DFT(GTOs)
 Exchange Functional    Exchange        .... B88
   X-Alpha parameter    XAlpha          ....  0.666667
   Becke's b parameter  XBeta           ....  0.004200
 Correlation Functional Correlation     .... LYP
 LDA part of GGA corr.  LDAOpt          .... VWN-5
 Gradients option       PostSCFGGA      .... off
 Hybrid DFT is turned on
   Fraction HF Exchange ScalHFX         ....  0.200000
   Scaling of DF-GGA-X  ScalDFX         ....  0.720000
   Scaling of DF-GGA-C  ScalDFC         ....  0.810000
   Scaling of DF-LDA-C  ScalLDAC        ....  1.000000
   Perturbative correction              ....  0.000000
   Density functional embedding theory  .... OFF
   NL short-range parameter             ....  4.800000
 RI-approximation to the Coulomb term is turned on
   Number of AuxJ basis functions       .... 420
   RIJ-COSX (HFX calculated with COS-X)).... on


General Settings:
 Integral files         IntName         .... anion
 Hartree-Fock type      HFTyp           .... UHF
 Total Charge           Charge          ....    1
 Multiplicity           Mult            ....    2
 Number of Electrons    NEL             ....   49
 Basis Dimension        Dim             ....  672
 Nuclear Repulsion      ENuc            ....    270.6315455407 Eh

Convergence Acceleration:
 DIIS                   CNVDIIS         .... on
   Start iteration      DIISMaxIt       ....    12
   Startup error        DIISStart       ....  0.200000
   # of expansion vecs  DIISMaxEq       ....     5
   Bias factor          DIISBfac        ....   1.050
   Max. coefficient     DIISMaxC        ....  10.000
 Trust-Rad. Augm. Hess. CNVTRAH         .... auto
   Auto Start mean grad. ratio tolernc. ....  1.125000
   Auto Start start iteration           ....    20
   Auto Start num. interpolation iter.  ....    10
   Max. Number of Micro iterations      ....    16
   Max. Number of Macro iterations      .... Maxiter - #DIIS iter
   Number of Davidson start vectors     ....     2
   Converg. threshold I  (grad. norm)   ....   1.000e-05
   Converg. threshold II (energy diff.) ....   1.000e-08
   Grad. Scal. Fac. for Micro threshold ....   0.100
   Minimum threshold for Micro iter.    ....   0.010
   NR start threshold (gradient norm)   ....   0.001
   Initial trust radius                 ....   0.400
   Minimum AH scaling param. (alpha)    ....   1.000
   Maximum AH scaling param. (alpha)    .... 1000.000
   Orbital update algorithm             .... Taylor
   White noise on init. David. guess    .... on
   Maximum white noise                  ....   0.010
   Quad. conv. algorithm                .... NR
 SOSCF                  CNVSOSCF        .... on
   Start iteration      SOSCFMaxIt      ....   150
   Startup grad/error   SOSCFStart      ....  0.003300
 Level Shifting         CNVShift        .... on
   Level shift para.    LevelShift      ....    0.2500
   Turn off err/grad.   ShiftErr        ....    0.0010
 Zerner damping         CNVZerner       .... off
 Static damping         CNVDamp         .... on
   Fraction old density DampFac         ....    0.7000
   Max. Damping (<1)    DampMax         ....    0.9800
   Min. Damping (>=0)   DampMin         ....    0.0000
   Turn off err/grad.   DampErr         ....    0.1000
 Fernandez-Rico         CNVRico         .... off

SCF Procedure:
 Maximum # iterations   MaxIter         ....   125
 SCF integral mode      SCFMode         .... Direct
   Integral package                     .... SHARK and LIBINT hybrid scheme
 Reset frequency        DirectResetFreq ....    20
 Integral Threshold     Thresh          ....  2.500e-11 Eh
 Primitive CutOff       TCut            ....  2.500e-12 Eh

Convergence Tolerance:
 Convergence Check Mode ConvCheckMode   .... Total+1el-Energy
 Convergence forced     ConvForced      .... 0
 Energy Change          TolE            ....  1.000e-08 Eh
 1-El. energy change                    ....  1.000e-05 Eh
 Orbital Gradient       TolG            ....  1.000e-05
 Orbital Rotation angle TolX            ....  1.000e-05
 DIIS Error             TolErr          ....  5.000e-07


Diagonalization of the overlap matrix:
Smallest eigenvalue                        ... 2.654e-09
Time for diagonalization                   ...    0.427 sec
Threshold for overlap eigenvalues          ... 1.000e-08
Number of eigenvalues below threshold      ... 1
Smallest eigenvalue above threshold        ... 3.612e-08
Time for construction of square roots      ...    0.283 sec
Total time needed                          ...    0.712 sec

Time for model grid setup =    2.302 sec

------------------------------
INITIAL GUESS: MODEL POTENTIAL
------------------------------
Loading Hartree-Fock densities                     ... done
Calculating cut-offs                               ... done
Initializing the effective Hamiltonian             ... done
Setting up the integral package (SHARK)            ... done
Starting the Coulomb interaction                   ... done (   5.7 sec)
Reading the grid                                   ... done
Mapping shells                                     ... done
Starting the XC term evaluation                    ... done (   7.3 sec)
  promolecular density results
     # of electrons  =     49.994921020
     EX              =    -39.489886076
     EC              =     -1.657603049
     EX+EC           =    -41.147489125
Transforming the Hamiltonian                       ... done (   0.1 sec)
Diagonalizing the Hamiltonian                      ... done (   0.2 sec)
Back transforming the eigenvectors                 ... done (   0.0 sec)
Now organizing SCF variables                       ... done
                      ------------------
                      INITIAL GUESS DONE (  15.7 sec)
                      ------------------
-------------------
DFT GRID GENERATION
-------------------

General Integration Accuracy     IntAcc      ... 4.388
Radial Grid Type                 RadialGrid  ... OptM3 with GC (2021)
Angular Grid (max. ang.)         AngularGrid ... 4 (Lebedev-302)
Angular grid pruning method      GridPruning ... 4 (adaptive)
Weight generation scheme         WeightScheme... Becke
Basis function cutoff            BFCut       ... 1.0000e-11
Integration weight cutoff        WCut        ... 1.0000e-14
Angular grids for H and He will be reduced by one unit
Partially contracted basis set               ... off
Rotationally invariant grid construction     ... off

Total number of grid points                  ...    67965
Total number of batches                      ...     1070
Average number of points per batch           ...       63
Average number of grid points per atom       ...     4855
Time for grid setup =    7.903 sec

--------------------
COSX GRID GENERATION
--------------------

GRIDX 1
-------
General Integration Accuracy     IntAcc      ... 3.816
Radial Grid Type                 RadialGrid  ... OptM3 with GC (2021)
Angular Grid (max. ang.)         AngularGrid ... 1 (Lebedev-50)
Angular grid pruning method      GridPruning ... 4 (adaptive)
Weight generation scheme         WeightScheme... Becke
Basis function cutoff            BFCut       ... 1.0000e-11
Integration weight cutoff        WCut        ... 1.0000e-14
Angular grids for H and He will be reduced by one unit
Partially contracted basis set               ... on
Rotationally invariant grid construction     ... off

Total number of grid points                  ...     8537
Total number of batches                      ...      140
Average number of points per batch           ...       60
Average number of grid points per atom       ...      610
UseSFitting                                  ... on

GRIDX 2
-------
General Integration Accuracy     IntAcc      ... 4.020
Radial Grid Type                 RadialGrid  ... OptM3 with GC (2021)
Angular Grid (max. ang.)         AngularGrid ... 2 (Lebedev-110)
Angular grid pruning method      GridPruning ... 4 (adaptive)
Weight generation scheme         WeightScheme... Becke
Basis function cutoff            BFCut       ... 1.0000e-11
Integration weight cutoff        WCut        ... 1.0000e-14
Angular grids for H and He will be reduced by one unit
Partially contracted basis set               ... on
Rotationally invariant grid construction     ... off

Total number of grid points                  ...    20781
Total number of batches                      ...      332
Average number of points per batch           ...       62
Average number of grid points per atom       ...     1484
UseSFitting                                  ... on

GRIDX 3
-------
General Integration Accuracy     IntAcc      ... 4.338
Radial Grid Type                 RadialGrid  ... OptM3 with GC (2021)
Angular Grid (max. ang.)         AngularGrid ... 3 (Lebedev-194)
Angular grid pruning method      GridPruning ... 4 (adaptive)
Weight generation scheme         WeightScheme... Becke
Basis function cutoff            BFCut       ... 1.0000e-11
Integration weight cutoff        WCut        ... 1.0000e-14
Angular grids for H and He will be reduced by one unit
Partially contracted basis set               ... on
Rotationally invariant grid construction     ... off

Total number of grid points                  ...    46418
Total number of batches                      ...      733
Average number of points per batch           ...       63
Average number of grid points per atom       ...     3316
UseSFitting                                  ... on

Time for X-Grid setup             =   19.400 sec

--------------
SCF ITERATIONS
--------------
ITER       Energy         Delta-E        Max-DP      RMS-DP      [F,P]     Damp
               ***  Starting incremental Fock matrix formation  ***
  0   -287.1506937672   0.000000000000 0.10830641  0.00089304  0.0988334 0.7000
  1   -287.2048241472  -0.054130379999 0.10357915  0.00092885  0.0493320 0.7000
                               ***Turning on DIIS***
  2   -287.2286504744  -0.023826327152 0.24041223  0.00200029  0.0199098 0.0000
  3   -287.2646049194  -0.035954445020 0.05203229  0.00055348  0.0239765 0.0000
                      *** Initiating the SOSCF procedure ***
                           *** Shutting down DIIS ***
                      *** Re-Reading the Fockian *** 
                      *** Removing any level shift *** 
ITER      Energy       Delta-E        Grad      Rot      Max-DP    RMS-DP
  4   -287.27304254  -0.0084376241  0.003193  0.003193  0.049349  0.000396
               *** Restarting incremental Fock matrix formation ***
  5   -287.27341653  -0.0003739872  0.002946  0.011870  0.027605  0.000172
  6   -287.27342074  -0.0000042109  0.004091  0.008413  0.019786  0.000107
  7   -287.27356587  -0.0001451325  0.000477  0.002818  0.011511  0.000077
  8   -287.27357128  -0.0000054086  0.000840  0.002996  0.010327  0.000080
  9   -287.27357824  -0.0000069618  0.000367  0.000992  0.011534  0.000088
 10   -287.27357930  -0.0000010530  0.000163  0.000293  0.029250  0.000132
 11   -287.27358010  -0.0000008040  0.000049  0.000231  0.029277  0.000219
 12   -287.27358018  -0.0000000758  0.000018  0.000048  0.021417  0.000177
 13   -287.27358019  -0.0000000159  0.000008  0.000025  0.051412  0.000285
 14   -287.27358019   0.0000000011  0.000010  0.000012  0.052518  0.000362
                 **** Energy Check signals convergence ****
              ***Rediagonalizing the Fockian in SOSCF/NRSCF***

               *****************************************************
               *                     SUCCESS                       *
               *           SCF CONVERGED AFTER  15 CYCLES          *
               *****************************************************

Old exchange energy                            =     -7.977998349 Eh
New exchange energy                            =     -7.977999859 Eh
Exchange energy change after final integration =     -0.000001510 Eh
Total energy after final integration           =   -287.273581709 Eh
Final COS-X integration done in                =   445.234 sec

----------------
TOTAL SCF ENERGY
----------------

Total Energy       :         -287.27358171 Eh           -7817.11157 eV

Components:
Nuclear Repulsion  :          270.63154554 Eh            7364.25875 eV
Electronic Energy  :         -557.90512725 Eh          -15181.37032 eV
One Electron Energy:         -912.50423534 Eh          -24830.50260 eV
Two Electron Energy:          354.59910809 Eh            9649.13228 eV
Max COSX asymmetry :            0.00000036 Eh               0.00001 eV

Virial components:
Potential Energy   :         -573.09290252 Eh          -15594.65069 eV
Kinetic Energy     :          285.81932081 Eh            7777.53912 eV
Virial Ratio       :            2.00508804


DFT components:
N(Alpha)           :       25.000008334612 electrons
N(Beta)            :       24.000004154491 electrons
N(Total)           :       49.000012489102 electrons
E(X)               :      -31.710058200629 Eh       
E(C)               :       -1.928192433172 Eh       
E(XC)              :      -33.638250633802 Eh       
DFET-embed. en.    :        0.000000000000 Eh       

---------------
SCF CONVERGENCE
---------------

  Last Energy change         ...   -7.0852e-09  Tolerance :   1.0000e-08
  Last MAX-Density change    ...    8.8818e-16  Tolerance :   1.0000e-07
  Last RMS-Density change    ...    7.4185e-18  Tolerance :   5.0000e-09
  Last Orbital Gradient      ...    1.2972e-05  Tolerance :   1.0000e-05
  Last Orbital Rotation      ...    2.8472e-05  Tolerance :   1.0000e-05

             **** THE GBW FILE WAS UPDATED (anion.gbw) ****
             **** DENSITY anion.scfp WAS UPDATED ****
             **** ENERGY FILE WAS UPDATED (anion.en.tmp) ****
----------------------
UHF SPIN CONTAMINATION
----------------------

Warning: in a DFT calculation there is little theoretical justification to 
         calculate <S**2> as in Hartree-Fock theory. We will do it anyways
         but you should keep in mind that the values have only limited relevance

Expectation value of <S**2>     :     0.768034
Ideal value S*(S+1) for S=0.5   :     0.750000
Deviation                       :     0.018034

             **** THE GBW FILE WAS UPDATED (anion.gbw) ****
             **** DENSITY anion.scfp WAS UPDATED ****
----------------
ORBITAL ENERGIES
----------------
                 SPIN UP ORBITALS
  NO   OCC          E(Eh)            E(eV) 
   0   1.0000     -14.580305      -396.7503 
   1   1.0000     -10.450052      -284.3604 
   2   1.0000     -10.392016      -282.7811 
   3   1.0000     -10.388505      -282.6856 
   4   1.0000     -10.388487      -282.6851 
   5   1.0000     -10.376002      -282.3454 
   6   1.0000     -10.375988      -282.3450 
   7   1.0000      -1.157661       -31.5016 
   8   1.0000      -1.051317       -28.6078 
   9   1.0000      -0.947970       -25.7956 
  10   1.0000      -0.945713       -25.7342 
  11   1.0000      -0.820421       -22.3248 
  12   1.0000      -0.810601       -22.0576 
  13   1.0000      -0.734079       -19.9753 
  14   1.0000      -0.730697       -19.8833 
  15   1.0000      -0.685450       -18.6520 
  16   1.0000      -0.642698       -17.4887 
  17   1.0000      -0.631301       -17.1786 
  18   1.0000      -0.615687       -16.7537 
  19   1.0000      -0.614012       -16.7081 
  20   1.0000      -0.560522       -15.2526 
  21   1.0000      -0.541755       -14.7419 
  22   1.0000      -0.540823       -14.7166 
  23   1.0000      -0.456649       -12.4261 
  24   1.0000      -0.443205       -12.0602 
  25   0.0000      -0.211806        -5.7635 
  26   0.0000      -0.211544        -5.7564 
  27   0.0000      -0.153932        -4.1887 
  28   0.0000      -0.123834        -3.3697 
  29   0.0000      -0.117793        -3.2053 
  30   0.0000      -0.097660        -2.6575 
  31   0.0000      -0.089671        -2.4401 
  32   0.0000      -0.085872        -2.3367 
  33   0.0000      -0.076627        -2.0851 
  34   0.0000      -0.058546        -1.5931 
  35   0.0000      -0.058229        -1.5845 
  36   0.0000      -0.046493        -1.2651 
  37   0.0000      -0.029834        -0.8118 
  38   0.0000      -0.026011        -0.7078 
  39   0.0000      -0.024465        -0.6657 
  40   0.0000      -0.020582        -0.5601 
  41   0.0000      -0.007257        -0.1975 
  42   0.0000       0.007989         0.2174 
  43   0.0000       0.012536         0.3411 
  44   0.0000       0.017898         0.4870 
  45   0.0000       0.024021         0.6537 
  46   0.0000       0.028565         0.7773 
  47   0.0000       0.029701         0.8082 
  48   0.0000       0.035490         0.9657 
  49   0.0000       0.039870         1.0849 
  50   0.0000       0.054012         1.4698 
  51   0.0000       0.057197         1.5564 
  52   0.0000       0.060688         1.6514 
  53   0.0000       0.071659         1.9499 
  54   0.0000       0.073709         2.0057 
  55   0.0000       0.077067         2.0971 
  56   0.0000       0.086345         2.3496 
  57   0.0000       0.089417         2.4332 
  58   0.0000       0.096587         2.6283 
  59   0.0000       0.103411         2.8140 
  60   0.0000       0.106436         2.8963 
  61   0.0000       0.114257         3.1091 
  62   0.0000       0.120268         3.2727 
  63   0.0000       0.126790         3.4501 
  64   0.0000       0.128255         3.4900 
  65   0.0000       0.141361         3.8466 
  66   0.0000       0.142595         3.8802 
  67   0.0000       0.155519         4.2319 
  68   0.0000       0.158923         4.3245 
  69   0.0000       0.160452         4.3661 
  70   0.0000       0.163004         4.4356 
  71   0.0000       0.175042         4.7631 
  72   0.0000       0.177149         4.8205 
  73   0.0000       0.184088         5.0093 
  74   0.0000       0.185206         5.0397 
  75   0.0000       0.194248         5.2858 
  76   0.0000       0.195778         5.3274 
  77   0.0000       0.204303         5.5594 
  78   0.0000       0.209631         5.7044 
  79   0.0000       0.217341         5.9141 
  80   0.0000       0.217407         5.9159 
  81   0.0000       0.230631         6.2758 
  82   0.0000       0.231564         6.3012 
  83   0.0000       0.238936         6.5018 
  84   0.0000       0.251695         6.8490 
  85   0.0000       0.256396         6.9769 
  86   0.0000       0.257974         7.0198 
  87   0.0000       0.268857         7.3160 
  88   0.0000       0.271030         7.3751 
  89   0.0000       0.277011         7.5379 
  90   0.0000       0.282106         7.6765 
  91   0.0000       0.285759         7.7759 
  92   0.0000       0.291273         7.9259 
  93   0.0000       0.300496         8.1769 
  94   0.0000       0.301411         8.2018 
  95   0.0000       0.305695         8.3184 
  96   0.0000       0.311163         8.4672 
  97   0.0000       0.330340         8.9890 
  98   0.0000       0.331887         9.0311 
  99   0.0000       0.334836         9.1113 
 100   0.0000       0.338053         9.1989 
 101   0.0000       0.350568         9.5394 
 102   0.0000       0.354605         9.6493 
 103   0.0000       0.357853         9.7377 
 104   0.0000       0.362594         9.8667 
 105   0.0000       0.368739        10.0339 
 106   0.0000       0.372642        10.1401 
 107   0.0000       0.381629        10.3847 
 108   0.0000       0.386161        10.5080 
 109   0.0000       0.391416        10.6510 
 110   0.0000       0.391998        10.6668 
 111   0.0000       0.395537        10.7631 
 112   0.0000       0.395761        10.7692 
 113   0.0000       0.401915        10.9367 
 114   0.0000       0.408782        11.1235 
 115   0.0000       0.410836        11.1794 
 116   0.0000       0.418216        11.3802 
 117   0.0000       0.430395        11.7116 
 118   0.0000       0.434384        11.8202 
 119   0.0000       0.441575        12.0159 
 120   0.0000       0.444353        12.0915 
 121   0.0000       0.444806        12.1038 
 122   0.0000       0.454224        12.3601 
 123   0.0000       0.465868        12.6769 
 124   0.0000       0.476125        12.9560 
 125   0.0000       0.480994        13.0885 
 126   0.0000       0.492952        13.4139 
 127   0.0000       0.498969        13.5776 
 128   0.0000       0.505859        13.7651 
 129   0.0000       0.514336        13.9958 
 130   0.0000       0.516051        14.0425 
 131   0.0000       0.523897        14.2560 
 132   0.0000       0.528807        14.3896 
 133   0.0000       0.544803        14.8249 
 134   0.0000       0.557937        15.1822 
 135   0.0000       0.565631        15.3916 
 136   0.0000       0.571610        15.5543 
 137   0.0000       0.573052        15.5935 
 138   0.0000       0.573254        15.5990 
 139   0.0000       0.596248        16.2247 
 140   0.0000       0.617062        16.7911 
 141   0.0000       0.632068        17.1994 
 142   0.0000       0.645506        17.5651 
 143   0.0000       0.648681        17.6515 
 144   0.0000       0.664547        18.0832 
 145   0.0000       0.676495        18.4084 
 146   0.0000       0.689222        18.7547 
 147   0.0000       0.701926        19.1004 
 148   0.0000       0.707495        19.2519 
 149   0.0000       0.711518        19.3614 
 150   0.0000       0.717014        19.5109 
 151   0.0000       0.721293        19.6274 
 152   0.0000       0.723135        19.6775 
 153   0.0000       0.735992        20.0274 
 154   0.0000       0.748809        20.3761 
 155   0.0000       0.767178        20.8760 
 156   0.0000       0.767891        20.8954 
 157   0.0000       0.770786        20.9742 
 158   0.0000       0.777234        21.1496 
 159   0.0000       0.782465        21.2919 
 160   0.0000       0.791419        21.5356 
 161   0.0000       0.796494        21.6737 
 162   0.0000       0.800690        21.7879 
 163   0.0000       0.804800        21.8997 
 164   0.0000       0.840486        22.8708 
 165   0.0000       0.850893        23.1540 
 166   0.0000       0.851549        23.1718 
 167   0.0000       0.857324        23.3290 
 168   0.0000       0.868863        23.6430 
 169   0.0000       0.872456        23.7407 
 170   0.0000       0.897975        24.4351 
 171   0.0000       0.916791        24.9472 
 172   0.0000       0.926298        25.2059 
 173   0.0000       0.933140        25.3920 
 174   0.0000       0.935162        25.4471 
 175   0.0000       0.942958        25.6592 
 176   0.0000       0.963517        26.2186 
 177   0.0000       0.963781        26.2258 
 178   0.0000       0.973693        26.4955 
 179   0.0000       0.993853        27.0441 
 180   0.0000       0.996049        27.1039 
 181   0.0000       1.021001        27.7829 
 182   0.0000       1.022441        27.8220 
 183   0.0000       1.030471        28.0405 
 184   0.0000       1.033428        28.1210 
 185   0.0000       1.046381        28.4735 
 186   0.0000       1.072045        29.1718 
 187   0.0000       1.081585        29.4314 
 188   0.0000       1.086440        29.5635 
 189   0.0000       1.098272        29.8855 
 190   0.0000       1.118559        30.4375 
 191   0.0000       1.148497        31.2522 
 192   0.0000       1.154845        31.4249 
 193   0.0000       1.167882        31.7797 
 194   0.0000       1.172634        31.9090 
 195   0.0000       1.213517        33.0215 
 196   0.0000       1.216323        33.0978 
 197   0.0000       1.236332        33.6423 
 198   0.0000       1.254871        34.1468 
 199   0.0000       1.259330        34.2681 
 200   0.0000       1.278418        34.7875 
 201   0.0000       1.295880        35.2627 
 202   0.0000       1.316462        35.8227 
 203   0.0000       1.325029        36.0559 
 204   0.0000       1.328179        36.1416 
 205   0.0000       1.355852        36.8946 
 206   0.0000       1.358138        36.9568 
 207   0.0000       1.384771        37.6815 
 208   0.0000       1.438252        39.1368 
 209   0.0000       1.445645        39.3380 
 210   0.0000       1.447612        39.3915 
 211   0.0000       1.465972        39.8911 
 212   0.0000       1.487162        40.4677 
 213   0.0000       1.489146        40.5217 
 214   0.0000       1.536529        41.8111 
 215   0.0000       1.538050        41.8525 
 216   0.0000       1.568893        42.6917 
 217   0.0000       1.569764        42.7155 
 218   0.0000       1.582444        43.0605 
 219   0.0000       1.611319        43.8462 
 220   0.0000       1.612335        43.8739 
 221   0.0000       1.632925        44.4341 
 222   0.0000       1.637711        44.5644 
 223   0.0000       1.655477        45.0478 
 224   0.0000       1.674598        45.5681 
 225   0.0000       1.675628        45.5961 
 226   0.0000       1.696953        46.1764 
 227   0.0000       1.701122        46.2899 
 228   0.0000       1.711668        46.5768 
 229   0.0000       1.731646        47.1205 
 230   0.0000       1.750520        47.6341 
 231   0.0000       1.758133        47.8412 
 232   0.0000       1.777511        48.3685 
 233   0.0000       1.803665        49.0802 
 234   0.0000       1.811611        49.2964 
 235   0.0000       1.823934        49.6318 
 236   0.0000       1.841482        50.1093 
 237   0.0000       1.844645        50.1953 
 238   0.0000       1.847678        50.2779 
 239   0.0000       1.859141        50.5898 
 240   0.0000       1.876830        51.0711 
 241   0.0000       1.883960        51.2652 
 242   0.0000       1.896853        51.6160 
 243   0.0000       1.898842        51.6701 
 244   0.0000       1.913988        52.0823 
 245   0.0000       1.920457        52.2583 
 246   0.0000       1.932128        52.5759 
 247   0.0000       1.936814        52.7034 
 248   0.0000       1.956481        53.2386 
 249   0.0000       1.983818        53.9824 
 250   0.0000       1.989232        54.1297 
 251   0.0000       2.018779        54.9338 
 252   0.0000       2.037210        55.4353 
 253   0.0000       2.039090        55.4865 
 254   0.0000       2.068997        56.3003 
 255   0.0000       2.073117        56.4124 
 256   0.0000       2.080200        56.6051 
 257   0.0000       2.110579        57.4318 
 258   0.0000       2.118887        57.6579 
 259   0.0000       2.120695        57.7070 
 260   0.0000       2.121057        57.7169 
 261   0.0000       2.133534        58.0564 
 262   0.0000       2.138720        58.1975 
 263   0.0000       2.160380        58.7869 
 264   0.0000       2.185819        59.4791 
 265   0.0000       2.197119        59.7866 
 266   0.0000       2.213861        60.2422 
 267   0.0000       2.225861        60.5687 
 268   0.0000       2.246212        61.1225 
 269   0.0000       2.257983        61.4428 
 270   0.0000       2.306778        62.7706 
 271   0.0000       2.314847        62.9902 
 272   0.0000       2.333642        63.5016 
 273   0.0000       2.343014        63.7566 
 274   0.0000       2.348633        63.9095 
 275   0.0000       2.355511        64.0967 
 276   0.0000       2.368353        64.4462 
 277   0.0000       2.372525        64.5597 
 278   0.0000       2.384050        64.8733 
 279   0.0000       2.392840        65.1125 
 280   0.0000       2.398880        65.2768 
 281   0.0000       2.400372        65.3174 
 282   0.0000       2.410658        65.5973 
 283   0.0000       2.424339        65.9696 
 284   0.0000       2.441933        66.4484 
 285   0.0000       2.460864        66.9635 
 286   0.0000       2.478438        67.4417 
 287   0.0000       2.506596        68.2079 
 288   0.0000       2.509636        68.2907 
 289   0.0000       2.514503        68.4231 
 290   0.0000       2.519466        68.5582 
 291   0.0000       2.520102        68.5755 
 292   0.0000       2.525661        68.7267 
 293   0.0000       2.537843        69.0582 
 294   0.0000       2.554100        69.5006 
 295   0.0000       2.565136        69.8009 
 296   0.0000       2.575641        70.0868 
 297   0.0000       2.591488        70.5180 
 298   0.0000       2.599061        70.7240 
 299   0.0000       2.599496        70.7359 
 300   0.0000       2.609275        71.0020 
 301   0.0000       2.613224        71.1094 
 302   0.0000       2.622467        71.3610 
 303   0.0000       2.640657        71.8559 
 304   0.0000       2.654611        72.2356 
 305   0.0000       2.659988        72.3820 
 306   0.0000       2.675313        72.7990 
 307   0.0000       2.686241        73.0963 
 308   0.0000       2.688090        73.1466 
 309   0.0000       2.725381        74.1614 
 310   0.0000       2.727170        74.2101 
 311   0.0000       2.749467        74.8168 
 312   0.0000       2.759256        75.0832 
 313   0.0000       2.761371        75.1407 
 314   0.0000       2.783528        75.7436 
 315   0.0000       2.812989        76.5453 
 316   0.0000       2.839417        77.2645 
 317   0.0000       2.858536        77.7847 
 318   0.0000       2.879803        78.3634 
 319   0.0000       2.887299        78.5674 
 320   0.0000       2.890453        78.6532 
 321   0.0000       2.909511        79.1718 
 322   0.0000       2.911337        79.2215 
 323   0.0000       2.950532        80.2881 
 324   0.0000       2.975866        80.9774 
 325   0.0000       2.989579        81.3506 
 326   0.0000       3.011023        81.9341 
 327   0.0000       3.015063        82.0440 
 328   0.0000       3.044726        82.8512 
 329   0.0000       3.054077        83.1057 
 330   0.0000       3.121738        84.9468 
 331   0.0000       3.124738        85.0284 
 332   0.0000       3.131505        85.2126 
 333   0.0000       3.161871        86.0389 
 334   0.0000       3.183355        86.6235 
 335   0.0000       3.187864        86.7462 
 336   0.0000       3.216137        87.5155 
 337   0.0000       3.230521        87.9069 
 338   0.0000       3.237051        88.0846 
 339   0.0000       3.258337        88.6639 
 340   0.0000       3.294943        89.6600 
 341   0.0000       3.298992        89.7701 
 342   0.0000       3.315246        90.2124 
 343   0.0000       3.339796        90.8805 
 344   0.0000       3.344506        91.0086 
 345   0.0000       3.366882        91.6175 
 346   0.0000       3.373787        91.8054 
 347   0.0000       3.424577        93.1875 
 348   0.0000       3.425816        93.2212 
 349   0.0000       3.445967        93.7695 
 350   0.0000       3.462790        94.2273 
 351   0.0000       3.485776        94.8528 
 352   0.0000       3.503675        95.3399 
 353   0.0000       3.515968        95.6743 
 354   0.0000       3.533779        96.1590 
 355   0.0000       3.567112        97.0661 
 356   0.0000       3.602828        98.0379 
 357   0.0000       3.618505        98.4645 
 358   0.0000       3.662889        99.6723 
 359   0.0000       3.718163       101.1764 
 360   0.0000       3.727720       101.4364 
 361   0.0000       3.728420       101.4555 
 362   0.0000       3.797455       103.3340 
 363   0.0000       3.820409       103.9586 
 364   0.0000       3.885095       105.7188 
 365   0.0000       3.897988       106.0696 
 366   0.0000       3.930529       106.9551 
 367   0.0000       3.963695       107.8576 
 368   0.0000       3.974333       108.1471 
 369   0.0000       4.024168       109.5032 
 370   0.0000       4.033007       109.7437 
 371   0.0000       4.074191       110.8644 
 372   0.0000       4.097135       111.4887 
 373   0.0000       4.158518       113.1590 
 374   0.0000       4.164175       113.3130 
 375   0.0000       4.242209       115.4364 
 376   0.0000       4.300831       117.0316 
 377   0.0000       4.334342       117.9434 
 378   0.0000       4.368816       118.8815 
 379   0.0000       4.389065       119.4325 
 380   0.0000       4.434797       120.6770 
 381   0.0000       4.464589       121.4876 
 382   0.0000       4.515399       122.8703 
 383   0.0000       4.538591       123.5013 
 384   0.0000       4.601309       125.2080 
 385   0.0000       4.673285       127.1665 
 386   0.0000       4.699799       127.8880 
 387   0.0000       4.706048       128.0581 
 388   0.0000       4.760966       129.5525 
 389   0.0000       4.789055       130.3168 
 390   0.0000       4.845352       131.8487 
 391   0.0000       4.857128       132.1692 
 392   0.0000       4.904339       133.4538 
 393   0.0000       4.912524       133.6766 
 394   0.0000       4.919272       133.8602 
 395   0.0000       4.920469       133.8928 
 396   0.0000       4.960293       134.9764 
 397   0.0000       4.972365       135.3049 
 398   0.0000       4.992907       135.8639 
 399   0.0000       5.022207       136.6612 
 400   0.0000       5.026758       136.7850 
 401   0.0000       5.060881       137.7136 
 402   0.0000       5.068185       137.9123 
 403   0.0000       5.098940       138.7492 
 404   0.0000       5.122983       139.4034 
 405   0.0000       5.159299       140.3917 
 406   0.0000       5.169727       140.6754 
 407   0.0000       5.211180       141.8034 
 408   0.0000       5.224713       142.1717 
 409   0.0000       5.238357       142.5429 
 410   0.0000       5.246782       142.7722 
 411   0.0000       5.264719       143.2603 
 412   0.0000       5.291672       143.9937 
 413   0.0000       5.298035       144.1669 
 414   0.0000       5.320020       144.7651 
 415   0.0000       5.356046       145.7454 
 416   0.0000       5.372113       146.1826 
 417   0.0000       5.406939       147.1303 
 418   0.0000       5.426108       147.6519 
 419   0.0000       5.443518       148.1257 
 420   0.0000       5.459081       148.5491 
 421   0.0000       5.495820       149.5489 
 422   0.0000       5.509406       149.9186 
 423   0.0000       5.516655       150.1158 
 424   0.0000       5.521571       150.2496 
 425   0.0000       5.598465       152.3420 
 426   0.0000       5.599573       152.3721 
 427   0.0000       5.623832       153.0322 
 428   0.0000       5.645384       153.6187 
 429   0.0000       5.692959       154.9133 
 430   0.0000       5.693887       154.9386 
 431   0.0000       5.717901       155.5920 
 432   0.0000       5.726269       155.8197 
 433   0.0000       5.737130       156.1152 
 434   0.0000       5.739709       156.1854 
 435   0.0000       5.764470       156.8592 
 436   0.0000       5.784611       157.4073 
 437   0.0000       5.796555       157.7323 
 438   0.0000       5.820073       158.3722 
 439   0.0000       5.838674       158.8784 
 440   0.0000       5.840188       158.9196 
 441   0.0000       5.862322       159.5219 
 442   0.0000       5.862799       159.5349 
 443   0.0000       5.864533       159.5821 
 444   0.0000       5.875236       159.8733 
 445   0.0000       5.919724       161.0839 
 446   0.0000       5.922797       161.1675 
 447   0.0000       5.932192       161.4231 
 448   0.0000       5.936921       161.5518 
 449   0.0000       5.949471       161.8933 
 450   0.0000       5.953573       162.0049 
 451   0.0000       5.971585       162.4951 
 452   0.0000       5.979574       162.7125 
 453   0.0000       6.023921       163.9192 
 454   0.0000       6.027018       164.0035 
 455   0.0000       6.041661       164.4020 
 456   0.0000       6.074039       165.2830 
 457   0.0000       6.074644       165.2995 
 458   0.0000       6.113230       166.3494 
 459   0.0000       6.117931       166.4774 
 460   0.0000       6.130462       166.8183 
 461   0.0000       6.143509       167.1734 
 462   0.0000       6.145737       167.2340 
 463   0.0000       6.157255       167.5474 
 464   0.0000       6.166245       167.7921 
 465   0.0000       6.167733       167.8326 
 466   0.0000       6.180728       168.1862 
 467   0.0000       6.187588       168.3728 
 468   0.0000       6.202493       168.7784 
 469   0.0000       6.223267       169.3437 
 470   0.0000       6.252941       170.1512 
 471   0.0000       6.253965       170.1790 
 472   0.0000       6.281157       170.9190 
 473   0.0000       6.292328       171.2230 
 474   0.0000       6.295896       171.3200 
 475   0.0000       6.324983       172.1115 
 476   0.0000       6.381069       173.6377 
 477   0.0000       6.408451       174.3828 
 478   0.0000       6.412249       174.4862 
 479   0.0000       6.421359       174.7341 
 480   0.0000       6.428615       174.9315 
 481   0.0000       6.428994       174.9418 
 482   0.0000       6.445161       175.3817 
 483   0.0000       6.465603       175.9380 
 484   0.0000       6.466876       175.9726 
 485   0.0000       6.472783       176.1334 
 486   0.0000       6.496989       176.7921 
 487   0.0000       6.518813       177.3859 
 488   0.0000       6.529510       177.6770 
 489   0.0000       6.548984       178.2069 
 490   0.0000       6.550083       178.2368 
 491   0.0000       6.555141       178.3745 
 492   0.0000       6.556007       178.3980 
 493   0.0000       6.597244       179.5201 
 494   0.0000       6.643148       180.7692 
 495   0.0000       6.651364       180.9928 
 496   0.0000       6.719329       182.8422 
 497   0.0000       6.733650       183.2319 
 498   0.0000       6.743301       183.4946 
 499   0.0000       6.747947       183.6210 
 500   0.0000       6.757615       183.8841 
 501   0.0000       6.804608       185.1628 
 502   0.0000       6.810450       185.3218 
 503   0.0000       6.839376       186.1089 
 504   0.0000       6.863227       186.7579 
 505   0.0000       6.874651       187.0688 
 506   0.0000       6.890247       187.4932 
 507   0.0000       6.913560       188.1275 
 508   0.0000       6.920112       188.3058 
 509   0.0000       6.975683       189.8180 
 510   0.0000       6.982815       190.0121 
 511   0.0000       7.002436       190.5460 
 512   0.0000       7.038244       191.5204 
 513   0.0000       7.044909       191.7017 
 514   0.0000       7.120187       193.7501 
 515   0.0000       7.122459       193.8120 
 516   0.0000       7.197795       195.8620 
 517   0.0000       7.212884       196.2725 
 518   0.0000       7.220101       196.4689 
 519   0.0000       7.256714       197.4652 
 520   0.0000       7.269545       197.8144 
 521   0.0000       7.299890       198.6401 
 522   0.0000       7.309096       198.8906 
 523   0.0000       7.318031       199.1337 
 524   0.0000       7.332946       199.5396 
 525   0.0000       7.347772       199.9430 
 526   0.0000       7.361938       200.3285 
 527   0.0000       7.367144       200.4702 
 528   0.0000       7.382451       200.8867 
 529   0.0000       7.400721       201.3839 
 530   0.0000       7.405351       201.5099 
 531   0.0000       7.408830       201.6045 
 532   0.0000       7.441736       202.4999 
 533   0.0000       7.461102       203.0269 
 534   0.0000       7.499172       204.0628 
 535   0.0000       7.500060       204.0870 
 536   0.0000       7.534129       205.0141 
 537   0.0000       7.551122       205.4765 
 538   0.0000       7.591548       206.5765 
 539   0.0000       7.602317       206.8696 
 540   0.0000       7.635610       207.7755 
 541   0.0000       7.648727       208.1324 
 542   0.0000       7.677820       208.9241 
 543   0.0000       7.725447       210.2201 
 544   0.0000       7.735443       210.4921 
 545   0.0000       7.745054       210.7536 
 546   0.0000       7.751976       210.9420 
 547   0.0000       7.777643       211.6404 
 548   0.0000       7.790616       211.9934 
 549   0.0000       7.836178       213.2332 
 550   0.0000       7.847625       213.5447 
 551   0.0000       7.852340       213.6730 
 552   0.0000       7.870905       214.1782 
 553   0.0000       7.914882       215.3749 
 554   0.0000       7.917318       215.4412 
 555   0.0000       7.947527       216.2632 
 556   0.0000       7.967659       216.8110 
 557   0.0000       7.970341       216.8840 
 558   0.0000       7.990897       217.4434 
 559   0.0000       7.999711       217.6832 
 560   0.0000       8.024952       218.3700 
 561   0.0000       8.031726       218.5544 
 562   0.0000       8.057141       219.2460 
 563   0.0000       8.067062       219.5159 
 564   0.0000       8.070608       219.6124 
 565   0.0000       8.071377       219.6333 
 566   0.0000       8.095648       220.2938 
 567   0.0000       8.104824       220.5435 
 568   0.0000       8.123029       221.0388 
 569   0.0000       8.125429       221.1042 
 570   0.0000       8.141114       221.5310 
 571   0.0000       8.146729       221.6838 
 572   0.0000       8.153798       221.8761 
 573   0.0000       8.197207       223.0573 
 574   0.0000       8.212518       223.4740 
 575   0.0000       8.223443       223.7713 
 576   0.0000       8.236574       224.1286 
 577   0.0000       8.244173       224.3353 
 578   0.0000       8.250986       224.5207 
 579   0.0000       8.253058       224.5771 
 580   0.0000       8.289235       225.5616 
 581   0.0000       8.295515       225.7324 
 582   0.0000       8.341797       226.9918 
 583   0.0000       8.354452       227.3362 
 584   0.0000       8.359145       227.4639 
 585   0.0000       8.378448       227.9892 
 586   0.0000       8.403817       228.6795 
 587   0.0000       8.431468       229.4319 
 588   0.0000       8.437479       229.5955 
 589   0.0000       8.475269       230.6238 
 590   0.0000       8.496113       231.1910 
 591   0.0000       8.529421       232.0974 
 592   0.0000       8.569232       233.1807 
 593   0.0000       8.574705       233.3296 
 594   0.0000       8.576136       233.3685 
 595   0.0000       8.590890       233.7700 
 596   0.0000       8.610149       234.2941 
 597   0.0000       8.610811       234.3121 
 598   0.0000       8.674719       236.0511 
 599   0.0000       8.695034       236.6039 
 600   0.0000       8.755213       238.2415 
 601   0.0000       8.793072       239.2716 
 602   0.0000       8.800134       239.4638 
 603   0.0000       8.875006       241.5012 
 604   0.0000       8.884251       241.7528 
 605   0.0000       8.922356       242.7897 
 606   0.0000       9.074055       246.9176 
 607   0.0000       9.145318       248.8567 
 608   0.0000       9.184052       249.9108 
 609   0.0000       9.248193       251.6561 
 610   0.0000       9.276122       252.4161 
 611   0.0000       9.330827       253.9047 
 612   0.0000       9.348313       254.3805 
 613   0.0000       9.455783       257.3049 
 614   0.0000       9.481549       258.0061 
 615   0.0000       9.484137       258.0765 
 616   0.0000       9.508192       258.7311 
 617   0.0000       9.521255       259.0865 
 618   0.0000       9.574590       260.5378 
 619   0.0000       9.594725       261.0857 
 620   0.0000       9.637881       262.2601 
 621   0.0000       9.656911       262.7779 
 622   0.0000       9.657305       262.7886 
 623   0.0000       9.681617       263.4502 
 624   0.0000       9.694774       263.8082 
 625   0.0000       9.766361       265.7562 
 626   0.0000       9.786254       266.2975 
 627   0.0000       9.875050       268.7138 
 628   0.0000       9.899369       269.3755 
 629   0.0000       9.925547       270.0879 
 630   0.0000       9.978463       271.5278 
 631   0.0000      10.035584       273.0821 
 632   0.0000      10.069779       274.0126 
 633   0.0000      10.117183       275.3025 
 634   0.0000      10.151096       276.2254 
 635   0.0000      10.275228       279.6032 
 636   0.0000      10.281071       279.7622 
 637   0.0000      10.425305       283.6870 
 638   0.0000      10.523078       286.3475 
 639   0.0000      10.526522       286.4412 
 640   0.0000      10.549218       287.0588 
 641   0.0000      10.714956       291.5688 
 642   0.0000      11.112180       302.3778 
 643   0.0000      11.173421       304.0443 
 644   0.0000      11.250064       306.1298 
 645   0.0000      11.424170       310.8675 
 646   0.0000      11.447251       311.4955 
 647   0.0000      11.548225       314.2432 
 648   0.0000      11.722430       318.9835 
 649   0.0000      11.730401       319.2004 
 650   0.0000      12.047335       327.8247 
 651   0.0000      12.497980       340.0873 
 652   0.0000      12.612099       343.1926 
 653   0.0000      12.760274       347.2247 
 654   0.0000      13.031513       354.6055 
 655   0.0000      14.436018       392.8240 
 656   0.0000      14.900774       405.4707 
 657   0.0000      27.820537       757.0353 
 658   0.0000      28.223453       767.9992 
 659   0.0000      28.330316       770.9071 
 660   0.0000      28.631933       779.1145 
 661   0.0000      28.782654       783.2158 
 662   0.0000      29.089475       791.5649 
 663   0.0000      38.015327      1034.4496 
 664   0.0000     146.910250      3997.6311 
 665   0.0000     147.287593      4007.8992 
 666   0.0000     147.383726      4010.5151 
 667   0.0000     147.642119      4017.5463 
 668   0.0000     147.790482      4021.5835 
 669   0.0000     148.119896      4030.5473 
 670   0.0000     197.326482      5369.5266 
 671   0.0000       0.000000         0.0000 

                 SPIN DOWN ORBITALS
  NO   OCC          E(Eh)            E(eV) 
   0   1.0000     -14.572131      -396.5279 
   1   1.0000     -10.448196      -284.3099 
   2   1.0000     -10.386890      -282.6416 
   3   1.0000     -10.385973      -282.6167 
   4   1.0000     -10.385954      -282.6162 
   5   1.0000     -10.377066      -282.3743 
   6   1.0000     -10.377047      -282.3738 
   7   1.0000      -1.143724       -31.1223 
   8   1.0000      -1.042950       -28.3801 
   9   1.0000      -0.944711       -25.7069 
  10   1.0000      -0.932138       -25.3648 
  11   1.0000      -0.816774       -22.2255 
  12   1.0000      -0.804628       -21.8950 
  13   1.0000      -0.731138       -19.8953 
  14   1.0000      -0.725460       -19.7408 
  15   1.0000      -0.681028       -18.5317 
  16   1.0000      -0.639021       -17.3886 
  17   1.0000      -0.628313       -17.0973 
  18   1.0000      -0.613325       -16.6894 
  19   1.0000      -0.586271       -15.9533 
  20   1.0000      -0.558022       -15.1846 
  21   1.0000      -0.538857       -14.6631 
  22   1.0000      -0.506604       -13.7854 
  23   1.0000      -0.448768       -12.2116 
  24   0.0000      -0.358021        -9.7422 
  25   0.0000      -0.200499        -5.4559 
  26   0.0000      -0.186365        -5.0712 
  27   0.0000      -0.151724        -4.1286 
  28   0.0000      -0.122993        -3.3468 
  29   0.0000      -0.116963        -3.1827 
  30   0.0000      -0.095968        -2.6114 
  31   0.0000      -0.088320        -2.4033 
  32   0.0000      -0.085575        -2.3286 
  33   0.0000      -0.071533        -1.9465 
  34   0.0000      -0.057441        -1.5631 
  35   0.0000      -0.057361        -1.5609 
  36   0.0000      -0.035632        -0.9696 
  37   0.0000      -0.028372        -0.7720 
  38   0.0000      -0.024442        -0.6651 
  39   0.0000      -0.019643        -0.5345 
  40   0.0000      -0.018957        -0.5158 
  41   0.0000      -0.006840        -0.1861 
  42   0.0000       0.008200         0.2231 
  43   0.0000       0.015312         0.4167 
  44   0.0000       0.021340         0.5807 
  45   0.0000       0.024049         0.6544 
  46   0.0000       0.030363         0.8262 
  47   0.0000       0.032551         0.8858 
  48   0.0000       0.035846         0.9754 
  49   0.0000       0.041655         1.1335 
  50   0.0000       0.054644         1.4869 
  51   0.0000       0.058898         1.6027 
  52   0.0000       0.060818         1.6550 
  53   0.0000       0.073904         2.0110 
  54   0.0000       0.075652         2.0586 
  55   0.0000       0.078250         2.1293 
  56   0.0000       0.086926         2.3654 
  57   0.0000       0.092877         2.5273 
  58   0.0000       0.097653         2.6573 
  59   0.0000       0.103839         2.8256 
  60   0.0000       0.108556         2.9540 
  61   0.0000       0.115976         3.1559 
  62   0.0000       0.121568         3.3080 
  63   0.0000       0.128094         3.4856 
  64   0.0000       0.128727         3.5028 
  65   0.0000       0.142290         3.8719 
  66   0.0000       0.143903         3.9158 
  67   0.0000       0.156861         4.2684 
  68   0.0000       0.161182         4.3860 
  69   0.0000       0.161711         4.4004 
  70   0.0000       0.164461         4.4752 
  71   0.0000       0.177476         4.8294 
  72   0.0000       0.178232         4.8499 
  73   0.0000       0.185045         5.0353 
  74   0.0000       0.186847         5.0844 
  75   0.0000       0.194512         5.2929 
  76   0.0000       0.198423         5.3994 
  77   0.0000       0.205821         5.6007 
  78   0.0000       0.210732         5.7343 
  79   0.0000       0.217960         5.9310 
  80   0.0000       0.219003         5.9594 
  81   0.0000       0.231186         6.2909 
  82   0.0000       0.236758         6.4425 
  83   0.0000       0.241854         6.5812 
  84   0.0000       0.253708         6.9037 
  85   0.0000       0.258668         7.0387 
  86   0.0000       0.261252         7.1090 
  87   0.0000       0.271225         7.3804 
  88   0.0000       0.271660         7.3923 
  89   0.0000       0.278018         7.5652 
  90   0.0000       0.282438         7.6855 
  91   0.0000       0.287694         7.8285 
  92   0.0000       0.291520         7.9327 
  93   0.0000       0.301758         8.2113 
  94   0.0000       0.302817         8.2401 
  95   0.0000       0.305964         8.3257 
  96   0.0000       0.312992         8.5170 
  97   0.0000       0.331618         9.0238 
  98   0.0000       0.334488         9.1019 
  99   0.0000       0.338177         9.2023 
 100   0.0000       0.341458         9.2916 
 101   0.0000       0.353793         9.6272 
 102   0.0000       0.355374         9.6702 
 103   0.0000       0.357480         9.7275 
 104   0.0000       0.366120         9.9626 
 105   0.0000       0.369744        10.0612 
 106   0.0000       0.377261        10.2658 
 107   0.0000       0.382786        10.4161 
 108   0.0000       0.388733        10.5780 
 109   0.0000       0.391882        10.6636 
 110   0.0000       0.395954        10.7744 
 111   0.0000       0.396497        10.7892 
 112   0.0000       0.399855        10.8806 
 113   0.0000       0.404220        10.9994 
 114   0.0000       0.410793        11.1782 
 115   0.0000       0.411535        11.1984 
 116   0.0000       0.420105        11.4316 
 117   0.0000       0.432243        11.7619 
 118   0.0000       0.438305        11.9269 
 119   0.0000       0.440647        11.9906 
 120   0.0000       0.448441        12.2027 
 121   0.0000       0.452192        12.3048 
 122   0.0000       0.456088        12.4108 
 123   0.0000       0.468232        12.7412 
 124   0.0000       0.481068        13.0905 
 125   0.0000       0.482147        13.1199 
 126   0.0000       0.495525        13.4839 
 127   0.0000       0.504646        13.7321 
 128   0.0000       0.507583        13.8120 
 129   0.0000       0.516763        14.0618 
 130   0.0000       0.517452        14.0806 
 131   0.0000       0.531801        14.4710 
 132   0.0000       0.533457        14.5161 
 133   0.0000       0.547099        14.8873 
 134   0.0000       0.560982        15.2651 
 135   0.0000       0.568199        15.4615 
 136   0.0000       0.573410        15.6033 
 137   0.0000       0.576123        15.6771 
 138   0.0000       0.577461        15.7135 
 139   0.0000       0.600272        16.3342 
 140   0.0000       0.618309        16.8250 
 141   0.0000       0.632334        17.2067 
 142   0.0000       0.650531        17.7018 
 143   0.0000       0.650799        17.7091 
 144   0.0000       0.666739        18.1429 
 145   0.0000       0.678521        18.4635 
 146   0.0000       0.695937        18.9374 
 147   0.0000       0.707576        19.2541 
 148   0.0000       0.709358        19.3026 
 149   0.0000       0.716385        19.4938 
 150   0.0000       0.722447        19.6588 
 151   0.0000       0.726142        19.7593 
 152   0.0000       0.737856        20.0781 
 153   0.0000       0.750512        20.4225 
 154   0.0000       0.757754        20.6195 
 155   0.0000       0.768640        20.9158 
 156   0.0000       0.771757        21.0006 
 157   0.0000       0.778090        21.1729 
 158   0.0000       0.783593        21.3227 
 159   0.0000       0.785114        21.3640 
 160   0.0000       0.795711        21.6524 
 161   0.0000       0.798972        21.7411 
 162   0.0000       0.801630        21.8134 
 163   0.0000       0.807815        21.9818 
 164   0.0000       0.841179        22.8897 
 165   0.0000       0.852949        23.2099 
 166   0.0000       0.856093        23.2955 
 167   0.0000       0.860126        23.4052 
 168   0.0000       0.873404        23.7665 
 169   0.0000       0.875456        23.8224 
 170   0.0000       0.902378        24.5550 
 171   0.0000       0.918247        24.9868 
 172   0.0000       0.929967        25.3057 
 173   0.0000       0.935094        25.4452 
 174   0.0000       0.940860        25.6021 
 175   0.0000       0.944205        25.6931 
 176   0.0000       0.965715        26.2784 
 177   0.0000       0.965820        26.2813 
 178   0.0000       0.977164        26.5900 
 179   0.0000       0.997691        27.1485 
 180   0.0000       1.002447        27.2780 
 181   0.0000       1.023097        27.8399 
 182   0.0000       1.028074        27.9753 
 183   0.0000       1.033334        28.1184 
 184   0.0000       1.039777        28.2938 
 185   0.0000       1.052577        28.6421 
 186   0.0000       1.075551        29.2672 
 187   0.0000       1.082275        29.4502 
 188   0.0000       1.092581        29.7306 
 189   0.0000       1.102248        29.9937 
 190   0.0000       1.120170        30.4814 
 191   0.0000       1.152486        31.3607 
 192   0.0000       1.159417        31.5493 
 193   0.0000       1.170891        31.8616 
 194   0.0000       1.177883        32.0518 
 195   0.0000       1.218608        33.1600 
 196   0.0000       1.222488        33.2656 
 197   0.0000       1.240663        33.7602 
 198   0.0000       1.258288        34.2398 
 199   0.0000       1.260300        34.2945 
 200   0.0000       1.282767        34.9059 
 201   0.0000       1.297738        35.3132 
 202   0.0000       1.319453        35.9041 
 203   0.0000       1.326044        36.0835 
 204   0.0000       1.338695        36.4277 
 205   0.0000       1.358103        36.9559 
 206   0.0000       1.364400        37.1272 
 207   0.0000       1.392887        37.9024 
 208   0.0000       1.438520        39.1441 
 209   0.0000       1.450193        39.4618 
 210   0.0000       1.454789        39.5868 
 211   0.0000       1.472189        40.0603 
 212   0.0000       1.485887        40.4330 
 213   0.0000       1.493820        40.6489 
 214   0.0000       1.540607        41.9221 
 215   0.0000       1.542194        41.9652 
 216   0.0000       1.569809        42.7167 
 217   0.0000       1.573606        42.8200 
 218   0.0000       1.585971        43.1565 
 219   0.0000       1.614980        43.9458 
 220   0.0000       1.615267        43.9536 
 221   0.0000       1.635060        44.4922 
 222   0.0000       1.642349        44.6906 
 223   0.0000       1.660754        45.1914 
 224   0.0000       1.676563        45.6216 
 225   0.0000       1.681832        45.7650 
 226   0.0000       1.702030        46.3146 
 227   0.0000       1.703532        46.3555 
 228   0.0000       1.717873        46.7457 
 229   0.0000       1.738349        47.3029 
 230   0.0000       1.751468        47.6599 
 231   0.0000       1.761122        47.9226 
 232   0.0000       1.782287        48.4985 
 233   0.0000       1.808523        49.2124 
 234   0.0000       1.815417        49.4000 
 235   0.0000       1.828872        49.7661 
 236   0.0000       1.844573        50.1934 
 237   0.0000       1.847362        50.2693 
 238   0.0000       1.852818        50.4177 
 239   0.0000       1.864429        50.7337 
 240   0.0000       1.881815        51.2068 
 241   0.0000       1.885682        51.3120 
 242   0.0000       1.901582        51.7447 
 243   0.0000       1.902256        51.7630 
 244   0.0000       1.916276        52.1445 
 245   0.0000       1.927792        52.4579 
 246   0.0000       1.933364        52.6095 
 247   0.0000       1.938643        52.7532 
 248   0.0000       1.961874        53.3853 
 249   0.0000       1.985828        54.0371 
 250   0.0000       1.994193        54.2648 
 251   0.0000       2.021920        55.0192 
 252   0.0000       2.041164        55.5429 
 253   0.0000       2.041218        55.5444 
 254   0.0000       2.075141        56.4675 
 255   0.0000       2.075590        56.4797 
 256   0.0000       2.082851        56.6773 
 257   0.0000       2.112811        57.4925 
 258   0.0000       2.122457        57.7550 
 259   0.0000       2.123774        57.7908 
 260   0.0000       2.124965        57.8233 
 261   0.0000       2.136967        58.1498 
 262   0.0000       2.141703        58.2787 
 263   0.0000       2.163331        58.8672 
 264   0.0000       2.191436        59.6320 
 265   0.0000       2.201483        59.9054 
 266   0.0000       2.220466        60.4219 
 267   0.0000       2.227382        60.6101 
 268   0.0000       2.248333        61.1803 
 269   0.0000       2.260176        61.5025 
 270   0.0000       2.310464        62.8709 
 271   0.0000       2.318415        63.0873 
[...]
      dx2y2   :     0.015790
      dxy     :     0.023687
      f0      :     0.000866  f :     0.009054
      f+1     :     0.000248
      f-1     :     0.001004
      f+2     :     0.001421
      f-2     :     0.000076
      f+3     :     0.003338
      f-3     :     0.002101
  9 H s       :     0.696972  s :     0.696972
      pz      :     0.064958  p :     0.264359
      px      :     0.113165
      py      :     0.086236
      dz2     :     0.005091  d :     0.062635
      dxz     :     0.012598
      dyz     :     0.006218
      dx2y2   :     0.022379
      dxy     :     0.016349
      f0      :     0.000953  f :     0.009084
      f+1     :     0.000754
      f-1     :     0.000473
      f+2     :     0.000225
      f-2     :     0.001400
      f+3     :     0.003228
      f-3     :     0.002050
 10 H s       :     0.691471  s :     0.691471
      pz      :     0.066418  p :     0.265384
      px      :     0.119458
      py      :     0.079509
      dz2     :     0.005138  d :     0.063418
      dxz     :     0.015769
      dyz     :     0.003892
      dx2y2   :     0.020068
      dxy     :     0.018550
      f0      :     0.000993  f :     0.009170
      f+1     :     0.000862
      f-1     :     0.000359
      f+2     :     0.000666
      f-2     :     0.001047
      f+3     :     0.003188
      f-3     :     0.002053
 11 N s       :     2.688609  s :     2.688609
      pz      :     1.033097  p :     3.094230
      px      :     1.034709
      py      :     1.026424
      dz2     :     0.036741  d :     0.368467
      dxz     :     0.021383
      dyz     :     0.064088
      dx2y2   :     0.096525
      dxy     :     0.149730
      f0      :     0.003390  f :     0.034809
      f+1     :     0.000688
      f-1     :     0.003056
      f+2     :     0.006390
      f-2     :     0.003556
      f+3     :     0.010758
      f-3     :     0.006970
      g0      :     0.000192  g :     0.001737
      g+1     :     0.000153
      g-1     :     0.000244
      g+2     :     0.000202
      g-2     :     0.000098
      g+3     :     0.000036
      g-3     :     0.000219
      g+4     :     0.000129
      g-4     :     0.000464
 12 H s       :     0.626797  s :     0.626797
      pz      :     0.118746  p :     0.372970
      px      :     0.145153
      py      :     0.109071
      dz2     :     0.015691  d :     0.117561
      dxz     :     0.029654
      dyz     :     0.013650
      dx2y2   :     0.032694
      dxy     :     0.025871
      f0      :     0.001508  f :     0.021127
      f+1     :     0.003689
      f-1     :     0.001740
      f+2     :     0.001835
      f-2     :     0.003605
      f+3     :     0.005660
      f-3     :     0.003089
 13 H s       :     0.626816  s :     0.626816
      pz      :     0.118903  p :     0.373011
      px      :     0.155232
      py      :     0.098876
      dz2     :     0.015787  d :     0.117576
      dxz     :     0.034487
      dyz     :     0.008798
      dx2y2   :     0.029086
      dxy     :     0.029418
      f0      :     0.001496  f :     0.021131
      f+1     :     0.004412
      f-1     :     0.001046
      f+2     :     0.002631
      f-2     :     0.002814
      f+3     :     0.005352
      f-3     :     0.003380

SPIN
  0 C s       :     0.000712  s :     0.000712
      pz      :     0.082770  p :     0.078782
      px      :    -0.001548
      py      :    -0.002440
      dz2     :    -0.000277  d :     0.055318
      dxz     :     0.010160
      dyz     :     0.042704
      dx2y2   :     0.001597
      dxy     :     0.001134
      f0      :     0.000749  f :     0.016675
      f+1     :    -0.000123
      f-1     :    -0.000038
      f+2     :     0.012868
      f-2     :     0.002250
      f+3     :     0.000457
      f-3     :     0.000512
      g0      :     0.000004  g :     0.001663
      g+1     :     0.000166
      g-1     :     0.001209
      g+2     :     0.000030
      g-2     :    -0.000029
      g+3     :     0.000007
      g-3     :     0.000176
      g+4     :     0.000056
      g-4     :     0.000045
  1 C s       :     0.002065  s :     0.002065
      pz      :     0.097735  p :     0.100122
      px      :     0.000574
      py      :     0.001813
      dz2     :    -0.000703  d :     0.003223
      dxz     :     0.006006
      dyz     :    -0.000840
      dx2y2   :    -0.000507
      dxy     :    -0.000732
      f0      :    -0.000492  f :     0.002181
      f+1     :    -0.000166
      f-1     :    -0.000125
      f+2     :     0.002497
      f-2     :     0.000816
      f+3     :    -0.000241
      f-3     :    -0.000108
      g0      :    -0.000004  g :     0.000078
      g+1     :     0.000172
      g-1     :    -0.000031
      g+2     :    -0.000007
      g-2     :    -0.000022
      g+3     :     0.000044
      g-3     :    -0.000045
      g+4     :    -0.000016
      g-4     :    -0.000013
  2 C s       :    -0.001449  s :    -0.001449
      pz      :    -0.025400  p :    -0.030852
      px      :    -0.002507
      py      :    -0.002945
      dz2     :     0.000260  d :     0.054119
      dxz     :     0.010212
      dyz     :     0.041504
      dx2y2   :     0.000891
      dxy     :     0.001252
      f0      :     0.001154  f :     0.011300
      f+1     :     0.000039
      f-1     :     0.000018
      f+2     :     0.004220
      f-2     :     0.005327
      f+3     :     0.000221
      f-3     :     0.000320
      g0      :    -0.000002  g :     0.001024
      g+1     :     0.000234
      g-1     :     0.000543
      g+2     :     0.000010
      g-2     :    -0.000009
      g+3     :     0.000014
      g-3     :     0.000172
      g+4     :     0.000030
      g-4     :     0.000033
  3 C s       :     0.004534  s :     0.004534
      pz      :     0.197679  p :     0.205210
      px      :     0.003846
      py      :     0.003685
      dz2     :    -0.001391  d :    -0.012934
      dxz     :    -0.008606
      dyz     :    -0.001194
      dx2y2   :    -0.000898
      dxy     :    -0.000845
      f0      :    -0.001350  f :    -0.003458
      f+1     :    -0.000233
      f-1     :    -0.000282
      f+2     :     0.000456
      f-2     :    -0.001569
      f+3     :    -0.000184
      f-3     :    -0.000296
      g0      :    -0.000002  g :    -0.000403
      g+1     :    -0.000159
      g-1     :    -0.000020
      g+2     :    -0.000021
      g-2     :    -0.000017
      g+3     :    -0.000006
      g-3     :    -0.000127
      g+4     :    -0.000029
      g-4     :    -0.000022
  4 C s       :    -0.001449  s :    -0.001449
      pz      :    -0.025415  p :    -0.030867
      px      :    -0.002900
      py      :    -0.002552
      dz2     :     0.000267  d :     0.054114
      dxz     :     0.016812
      dyz     :     0.034891
      dx2y2   :     0.001154
      dxy     :     0.000990
      f0      :     0.001154  f :     0.011301
      f+1     :     0.000033
      f-1     :     0.000025
      f+2     :     0.006856
      f-2     :     0.002692
      f+3     :     0.000231
      f-3     :     0.000310
      g0      :    -0.000001  g :     0.001024
      g+1     :     0.000336
      g-1     :     0.000440
      g+2     :     0.000006
      g-2     :    -0.000005
      g+3     :     0.000012
      g-3     :     0.000173
      g+4     :     0.000037
      g-4     :     0.000026
  5 C s       :     0.002065  s :     0.002065
      pz      :     0.097736  p :     0.100123
      px      :     0.000834
      py      :     0.001553
      dz2     :    -0.000706  d :     0.003222
      dxz     :     0.004597
      dyz     :     0.000569
      dx2y2   :    -0.000870
      dxy     :    -0.000368
      f0      :    -0.000492  f :     0.002181
      f+1     :    -0.000168
      f-1     :    -0.000125
      f+2     :     0.001195
      f-2     :     0.002118
      f+3     :    -0.000302
      f-3     :    -0.000046
      g0      :    -0.000004  g :     0.000078
      g+1     :     0.000138
      g-1     :     0.000003
      g+2     :    -0.000003
      g-2     :    -0.000026
      g+3     :     0.000013
      g-3     :    -0.000013
      g+4     :    -0.000011
      g-4     :    -0.000017
  6 H s       :    -0.002644  s :    -0.002644
      pz      :     0.008489  p :     0.009317
      px      :     0.000598
      py      :     0.000230
      dz2     :    -0.000010  d :     0.003982
      dxz     :     0.002941
      dyz     :     0.000840
      dx2y2   :     0.000050
      dxy     :     0.000161
      f0      :     0.000198  f :     0.000574
      f+1     :    -0.000003
      f-1     :    -0.000001
      f+2     :     0.000083
      f-2     :     0.000276
      f+3     :     0.000007
      f-3     :     0.000015
  7 H s       :     0.000721  s :     0.000721
      pz      :    -0.003178  p :    -0.004039
      px      :    -0.000433
      py      :    -0.000429
      dz2     :    -0.000003  d :    -0.001308
      dxz     :    -0.000671
      dyz     :    -0.000349
      dx2y2   :    -0.000150
      dxy     :    -0.000136
      f0      :    -0.000061  f :    -0.000192
      f+1     :    -0.000001
      f-1     :    -0.000001
      f+2     :     0.000004
      f-2     :    -0.000091
      f+3     :    -0.000033
      f-3     :    -0.000008
  8 H s       :    -0.005003  s :    -0.005003
      pz      :     0.020520  p :     0.022696
      px      :     0.000145
      py      :     0.002031
      dz2     :    -0.000011  d :     0.008141
      dxz     :     0.000036
      dyz     :     0.007544
      dx2y2   :     0.000376
      dxy     :     0.000196
      f0      :     0.000392  f :     0.001137
      f+1     :    -0.000001
      f-1     :    -0.000004
      f+2     :     0.000667
      f-2     :     0.000015
      f+3     :     0.000038
      f-3     :     0.000029
  9 H s       :     0.000720  s :     0.000720
      pz      :    -0.003182  p :    -0.004043
      px      :    -0.000437
      py      :    -0.000424
      dz2     :    -0.000003  d :    -0.001310
      dxz     :    -0.000458
      dyz     :    -0.000563
      dx2y2   :    -0.000197
      dxy     :    -0.000089
      f0      :    -0.000061  f :    -0.000192
      f+1     :    -0.000001
      f-1     :    -0.000001
      f+2     :     0.000027
      f-2     :    -0.000115
      f+3     :    -0.000037
      f-3     :    -0.000005
 10 H s       :    -0.002642  s :    -0.002642
      pz      :     0.008490  p :     0.009318
      px      :     0.000741
      py      :     0.000087
      dz2     :    -0.000010  d :     0.003983
      dxz     :     0.003395
      dyz     :     0.000387
      dx2y2   :     0.000092
      dxy     :     0.000120
      f0      :     0.000198  f :     0.000574
      f+1     :    -0.000003
      f-1     :    -0.000001
      f+2     :     0.000197
      f-2     :     0.000163
      f+3     :     0.000010
      f-3     :     0.000012
 11 N s       :     0.010189  s :     0.010189
      pz      :     0.214196  p :     0.230789
      px      :     0.004375
      py      :     0.012218
      dz2     :     0.000843  d :     0.022250
      dxz     :    -0.000091
      dyz     :     0.022871
      dx2y2   :    -0.000454
      dxy     :    -0.000919
      f0      :     0.000929  f :     0.002103
      f+1     :    -0.000028
      f-1     :    -0.000007
      f+2     :     0.001056
      f-2     :    -0.000038
      f+3     :    -0.000062
      f-3     :     0.000252
      g0      :     0.000050  g :     0.000217
      g+1     :    -0.000004
      g-1     :     0.000082
      g+2     :     0.000008
      g-2     :    -0.000002
      g+3     :     0.000006
      g-3     :     0.000082
      g+4     :     0.000000
      g-4     :    -0.000005
 12 H s       :    -0.002616  s :    -0.002616
      pz      :     0.018334  p :     0.020622
      px      :     0.001325
      py      :     0.000964
      dz2     :     0.002666  d :     0.011925
      dxz     :     0.006398
      dyz     :     0.001443
      dx2y2   :     0.000263
      dxy     :     0.001155
      f0      :     0.000120  f :     0.002544
      f+1     :     0.001026
      f-1     :     0.000405
      f+2     :     0.000250
      f-2     :     0.000389
      f+3     :     0.000125
      f-3     :     0.000229
 13 H s       :    -0.002617  s :    -0.002617
      pz      :     0.018340  p :     0.020630
      px      :     0.001650
      py      :     0.000639
      dz2     :     0.002702  d :     0.011928
      dxz     :     0.007193
      dyz     :     0.000610
      dx2y2   :     0.000409
      dxy     :     0.001013
      f0      :     0.000116  f :     0.002545
      f+1     :     0.001225
      f-1     :     0.000217
      f+2     :     0.000437
      f-2     :     0.000195
      f+3     :     0.000060
      f-3     :     0.000295


                      *****************************
                      * MAYER POPULATION ANALYSIS *
                      *****************************

  NA   - Mulliken gross atomic population
  ZA   - Total nuclear charge
  QA   - Mulliken gross atomic charge
  VA   - Mayer's total valence
  BVA  - Mayer's bonded valence
  FA   - Mayer's free valence

  ATOM       NA         ZA         QA         VA         BVA        FA
  0 C      6.4715     6.0000    -0.4715     3.9740     3.9464     0.0275
  1 C      5.8434     6.0000     0.1566     4.0431     4.0177     0.0254
  2 C      6.3686     6.0000    -0.3686     3.5944     3.5903     0.0041
  3 C      6.3942     6.0000    -0.3942     4.7267     4.6374     0.0893
  4 C      6.3875     6.0000    -0.3875     3.6232     3.6192     0.0041
  5 C      5.8357     6.0000     0.1643     4.0309     4.0054     0.0255
  6 H      0.9970     1.0000     0.0030     1.3299     1.3299     0.0000
  7 H      0.0481     1.0000     0.9519    -0.1794    -0.1794     0.0000
  8 H      0.9119     1.0000     0.0881     1.3675     1.3673     0.0001
  9 H      0.0316     1.0000     0.9684    -0.2127    -0.2128     0.0000
 10 H      0.9950     1.0000     0.0050     1.3332     1.3332     0.0001
 11 N      7.2003     7.0000    -0.2003     3.2244     3.1106     0.1138
 12 H      0.7576     1.0000     0.2424     0.9525     0.9522     0.0003
 13 H      0.7574     1.0000     0.2426     0.9530     0.9527     0.0003

  Mayer bond orders larger than 0.100000
B(  0-C ,  1-C ) :   1.0258 B(  0-C ,  5-C ) :   1.0245 B(  0-C ,  6-H ) :   0.4018 
B(  0-C , 10-H ) :   0.4045 B(  0-C , 11-N ) :   1.2102 B(  1-C ,  2-C ) :   1.5790 
B(  1-C ,  3-C ) :   0.4387 B(  1-C ,  5-C ) :   0.3475 B(  1-C ,  6-H ) :   0.7136 
B(  2-C ,  3-C ) :   1.5250 B(  2-C ,  4-C ) :  -0.2667 B(  2-C ,  6-H ) :   0.3206 
B(  2-C ,  8-H ) :   0.2866 B(  3-C ,  4-C ) :   1.5342 B(  3-C ,  5-C ) :   0.4544 
B(  3-C ,  8-H ) :   0.7173 B(  4-C ,  5-C ) :   1.5868 B(  4-C ,  8-H ) :   0.3110 
B(  4-C , 10-H ) :   0.3308 B(  5-C , 10-H ) :   0.7036 B(  6-H ,  7-H ) :  -0.1771 
B(  6-H ,  8-H ) :   0.1690 B(  6-H ,  9-H ) :  -0.2020 B(  6-H , 10-H ) :   0.1955 
B(  7-H ,  8-H ) :  -0.1319 B(  7-H ,  9-H ) :   0.2110 B(  7-H , 10-H ) :  -0.2142 
B(  8-H ,  9-H ) :  -0.1434 B(  8-H , 10-H ) :   0.1801 B(  9-H , 10-H ) :  -0.1781 
B( 11-N , 12-H ) :   0.9292 B( 11-N , 13-H ) :   0.9291 

-------
TIMINGS
-------

Total SCF time: 0 days 1 hours 0 min 49 sec 

Total time                  ....    3649.528 sec
Sum of individual times     ....    3634.370 sec  ( 99.6%)

Fock matrix formation       ....    3577.361 sec  ( 98.0%)
  Split-RI-J                ....     157.452 sec  (  4.4% of F)
  Chain of spheres X        ....    2878.814 sec  ( 80.5% of F)
  XC integration            ....     535.053 sec  ( 15.0% of F)
    Basis function eval.    ....      50.172 sec  (  9.4% of XC)
    Density eval.           ....     205.904 sec  ( 38.5% of XC)
    XC-Functional eval.     ....       4.204 sec  (  0.8% of XC)
    XC-Potential eval.      ....     268.559 sec  ( 50.2% of XC)
Diagonalization             ....       4.227 sec  (  0.1%)
Density matrix formation    ....       0.717 sec  (  0.0%)
Population analysis         ....       0.924 sec  (  0.0%)
Initial guess               ....      13.417 sec  (  0.4%)
Orbital Transformation      ....       0.000 sec  (  0.0%)
Orbital Orthonormalization  ....       0.000 sec  (  0.0%)
DIIS solution               ....       1.404 sec  (  0.0%)
SOSCF solution              ....       6.715 sec  (  0.2%)
Grid generation             ....      29.605 sec  (  0.8%)

Maximum memory used throughout the entire SCF-calculation: 740.7 MB


-------------------------------------------------------------------------------
                          DFT DISPERSION CORRECTION                            
                                                                               
                                 DFTD4 V2.5                                    
-------------------------------------------------------------------------------
The B3LYP functional is recognized
Active option DFTDOPT                   ...         5   

Starting D4
-------------------------   ----------------
Dispersion correction           -0.018866650
-------------------------   ----------------


-------------------------   --------------------
FINAL SINGLE POINT ENERGY      -287.292448359162
-------------------------   --------------------


                            ***************************************
                            *     ORCA property calculations      *
                            ***************************************

                                    ---------------------
                                    Active property flags
                                    ---------------------
   (+) Dipole Moment


------------------------------------------------------------------------------
                       ORCA ELECTRIC PROPERTIES CALCULATION
------------------------------------------------------------------------------

Dipole Moment Calculation                       ... on
Quadrupole Moment Calculation                   ... off
Polarizability Calculation                      ... off
GBWName                                         ... anion.gbw
Electron density                                ... anion.scfp
The origin for moment calculation is the CENTER OF MASS  = (-9.377165,  3.841028  0.042451)

-------------
DIPOLE MOMENT
-------------
                                X             Y             Z
Electronic contribution:      0.01367       0.16822      -0.19167
Nuclear contribution   :      0.05809       0.72683       0.52928
                        -----------------------------------------
Total Dipole Moment    :      0.07176       0.89504       0.33761
                        -----------------------------------------
Magnitude (a.u.)       :      0.95928
Magnitude (Debye)      :      2.43831



--------------------
Rotational spectrum 
--------------------
 
Rotational constants in cm-1:     0.186570     0.086136     0.059004 
Rotational constants in MHz :  5593.219850  2582.294403  1768.887501 

 Dipole components along the rotational axes: 
x,y,z [a.u.] :     0.904392     0.000052     0.319847 
x,y,z [Debye]:     2.298782     0.000132     0.812987 

 

Timings for individual modules:

Sum of individual times         ...     3698.671 sec (=  61.645 min)
GTO integral calculation        ...       47.988 sec (=   0.800 min)   1.3 %
SCF iterations                  ...     3650.683 sec (=  60.845 min)  98.7 %
                             ****ORCA TERMINATED NORMALLY****
TOTAL RUN TIME: 0 days 1 hours 1 minutes 43 seconds 669 msec
