
                                 *****************
                                 * O   R   C   A *
                                 *****************

                                            #,                                       
                                            ###                                      
                                            ####                                     
                                            #####                                    
                                            ######                                   
                                           ########,                                 
                                     ,,################,,,,,                         
                               ,,#################################,,                 
                          ,,##########################################,,             
                       ,#########################################, ''#####,          
                    ,#############################################,,   '####,        
                  ,##################################################,,,,####,       
                ,###########''''           ''''###############################       
              ,#####''   ,,,,##########,,,,          '''####'''          '####       
            ,##' ,,,,###########################,,,                        '##       
           ' ,,###''''                  '''############,,,                           
         ,,##''                                '''############,,,,        ,,,,,,###''
      ,#''                                            '''#######################'''  
     '                                                          ''''####''''         
             ,#######,   #######,   ,#######,      ##                                
            ,#'     '#,  ##    ##  ,#'     '#,    #''#        ######   ,####,        
            ##       ##  ##   ,#'  ##            #'  '#       #        #'  '#        
            ##       ##  #######   ##           ,######,      #####,   #    #        
            '#,     ,#'  ##    ##  '#,     ,#' ,#      #,         ##   #,  ,#        
             '#######'   ##     ##  '#######'  #'      '#     #####' # '####'        



                  #######################################################
                  #                        -***-                        #
                  #          Department of theory and spectroscopy      #
                  #    Directorship and core code : Frank Neese         #
                  #        Max Planck Institute fuer Kohlenforschung    #
                  #                Kaiser Wilhelm Platz 1               #
                  #                 D-45470 Muelheim/Ruhr               #
                  #                      Germany                        #
                  #                                                     #
                  #                  All rights reserved                #
                  #                        -***-                        #
                  #######################################################



                         Program Version 5.0.4 -  RELEASE  -

 With contributions from (in alphabetic order):
   Daniel Aravena         : Magnetic Suceptibility
   Michael Atanasov       : Ab Initio Ligand Field Theory (pilot matlab implementation)
   Alexander A. Auer      : GIAO ZORA, VPT2 properties, NMR spectrum
   Ute Becker             : Parallelization
   Giovanni Bistoni       : ED, misc. LED, open-shell LED, HFLD
   Martin Brehm           : Molecular dynamics
   Dmytro Bykov           : SCF Hessian
   Vijay G. Chilkuri      : MRCI spin determinant printing, contributions to CSF-ICE
   Dipayan Datta          : RHF DLPNO-CCSD density
   Achintya Kumar Dutta   : EOM-CC, STEOM-CC
   Dmitry Ganyushin       : Spin-Orbit,Spin-Spin,Magnetic field MRCI
   Miquel Garcia          : C-PCM and meta-GGA Hessian, CC/C-PCM, Gaussian charge scheme
   Yang Guo               : DLPNO-NEVPT2, F12-NEVPT2, CIM, IAO-localization
   Andreas Hansen         : Spin unrestricted coupled pair/coupled cluster methods
   Benjamin Helmich-Paris : MC-RPA, TRAH-SCF, COSX integrals
   Lee Huntington         : MR-EOM, pCC
   Robert Izsak           : Overlap fitted RIJCOSX, COSX-SCS-MP3, EOM
   Marcus Kettner         : VPT2
   Christian Kollmar      : KDIIS, OOCD, Brueckner-CCSD(T), CCSD density, CASPT2, CASPT2-K
   Simone Kossmann        : Meta GGA functionals, TD-DFT gradient, OOMP2, MP2 Hessian
   Martin Krupicka        : Initial AUTO-CI
   Lucas Lang             : DCDCAS
   Marvin Lechner         : AUTO-CI (C++ implementation), FIC-MRCC
   Dagmar Lenk            : GEPOL surface, SMD
   Dimitrios Liakos       : Extrapolation schemes; Compound Job, initial MDCI parallelization
   Dimitrios Manganas     : Further ROCIS development; embedding schemes
   Dimitrios Pantazis     : SARC Basis sets
   Anastasios Papadopoulos: AUTO-CI, single reference methods and gradients
   Taras Petrenko         : DFT Hessian,TD-DFT gradient, ASA, ECA, R-Raman, ABS, FL, XAS/XES, NRVS
   Peter Pinski           : DLPNO-MP2, DLPNO-MP2 Gradient
   Christoph Reimann      : Effective Core Potentials
   Marius Retegan         : Local ZFS, SOC
   Christoph Riplinger    : Optimizer, TS searches, QM/MM, DLPNO-CCSD(T), (RO)-DLPNO pert. Triples
   Tobias Risthaus        : Range-separated hybrids, TD-DFT gradient, RPA, STAB
   Michael Roemelt        : Original ROCIS implementation
   Masaaki Saitow         : Open-shell DLPNO-CCSD energy and density
   Barbara Sandhoefer     : DKH picture change effects
   Avijit Sen             : IP-ROCIS
   Kantharuban Sivalingam : CASSCF convergence, NEVPT2, FIC-MRCI
   Bernardo de Souza      : ESD, SOC TD-DFT
   Georgi Stoychev        : AutoAux, RI-MP2 NMR, DLPNO-MP2 response
   Willem Van den Heuvel  : Paramagnetic NMR
   Boris Wezisla          : Elementary symmetry handling
   Frank Wennmohs         : Technical directorship


 We gratefully acknowledge several colleagues who have allowed us to
 interface, adapt or use parts of their codes:
   Stefan Grimme, W. Hujo, H. Kruse, P. Pracht,  : VdW corrections, initial TS optimization,
                  C. Bannwarth, S. Ehlert          DFT functionals, gCP, sTDA/sTD-DF
   Ed Valeev, F. Pavosevic, A. Kumar             : LibInt (2-el integral package), F12 methods
   Garnet Chan, S. Sharma, J. Yang, R. Olivares  : DMRG
   Ulf Ekstrom                                   : XCFun DFT Library
   Mihaly Kallay                                 : mrcc  (arbitrary order and MRCC methods)
   Jiri Pittner, Ondrej Demel                    : Mk-CCSD
   Frank Weinhold                                : gennbo (NPA and NBO analysis)
   Christopher J. Cramer and Donald G. Truhlar   : smd solvation model
   Lars Goerigk                                  : TD-DFT with DH, B97 family of functionals
   V. Asgeirsson, H. Jonsson                     : NEB implementation
   FAccTs GmbH                                   : IRC, NEB, NEB-TS, DLPNO-Multilevel, CI-OPT
                                                   MM, QMMM, 2- and 3-layer-ONIOM, Crystal-QMMM,
                                                   LR-CPCM, SF, NACMEs, symmetry and pop. for TD-DFT,
                                                   nearIR, NL-DFT gradient (VV10), updates on ESD,
                                                   ML-optimized integration grids
   S Lehtola, MJT Oliveira, MAL Marques          : LibXC Library
   Liviu Ungur et al                             : ANISO software


 Your calculation uses the libint2 library for the computation of 2-el integrals
 For citations please refer to: http://libint.valeyev.net

 Your ORCA version has been built with support for libXC version: 5.1.0
 For citations please refer to: https://tddft.org/programs/libxc/

 This ORCA versions uses:
   CBLAS   interface :  Fast vector & matrix operations
   LAPACKE interface :  Fast linear algebra routines
   Shared memory     :  Shared parallel matrices


Your calculation utilizes the atom-pairwise dispersion correction
based on tight binding partial charges (D4)
Cite in your paper:
E.Caldeweyher, C.Bannwarth, S.Grimme, J.Chem.Phys., (2017), 147, 034112.
E.Caldeweyher, S.Ehlert, A.Hansen, H.Neugebauer, S.Grimme, J.Chem.Phys., (2018), in progress.
   

================================================================================

----- Orbital basis set information -----
Your calculation utilizes the basis: def2-TZVP
   F. Weigend and R. Ahlrichs, Phys. Chem. Chem. Phys. 7, 3297 (2005).

----- AuxJ basis set information -----
Your calculation utilizes the auxiliary basis: def2/J
   F. Weigend, Phys. Chem. Chem. Phys. 8, 1057 (2006).

================================================================================
                                        WARNINGS
                       Please study these warnings very carefully!
================================================================================


WARNING: Geometry Optimization
  ===> : Switching off AutoStart
         For restart on a previous wavefunction, please use MOREAD

INFO   : the flag for use of the SHARK integral package has been found!

================================================================================
                                       INPUT FILE
================================================================================
NAME = meta_products_optfreq.inp
|  1> !B3LYP DEF2-TZVP OPT FREQ D4 TIGHTSCF
|  2> 
|  3> * xyz 1 1
|  4>   C   -3.81192809690100      2.32751341263658     -0.66594700591614
|  5>   C   -4.54652352267319      1.75981829583643     -1.75391784621313
|  6>   C   -3.96519575207408      0.76940800018691     -2.51278442125803
|  7>   C   -2.66963279106436      0.28508430120691     -2.25256134720885
|  8>   C   -1.94026953619878      0.84039410361673     -1.17720419665433
|  9>   C   -2.49924953441040      1.84340523044767     -0.40217293723321
| 10>   C   -4.43269372000879      3.38972811932623      0.16327914920709
| 11>   H   -2.25891027866533     -0.50528504986913     -2.88283377486964
| 12>   H   -5.56047894293943      2.09039161903802     -1.98561198824302
| 13>   H   -3.76281371698088      3.76641762152938      0.94664598164782
| 14>   H   -5.36161234505435      3.01344048631931      0.63680937929909
| 15>   H   -4.76288950764105      4.23315510391554     -0.47351471649411
| 16>   H   -1.93353346120407      2.27545730275279      0.42616319765353
| 17>   H   -0.93459569588896      0.47164945252397     -0.96493481786161
| 18>   N   -4.71295411155961      0.21075200620330     -3.66528668561596
| 19>   O   -4.07921278794218     -0.50060110213294     -4.42505792288375
| 20>   O   -5.88433199610374      0.51111876976411     -3.76703883866618
| 21>   H   -16.64020420268960      0.79617232669813      8.19600879131047
| 22> *
| 23> 
| 24>                          ****END OF INPUT****
================================================================================

                       *****************************
                       * Geometry Optimization Run *
                       *****************************

Geometry optimization settings:
Update method            Update   .... BFGS
Choice of coordinates    CoordSys .... Z-matrix Internals
Initial Hessian          InHess   .... Almoef's Model

Convergence Tolerances:
Energy Change            TolE     ....  5.0000e-06 Eh
Max. Gradient            TolMAXG  ....  3.0000e-04 Eh/bohr
RMS Gradient             TolRMSG  ....  1.0000e-04 Eh/bohr
Max. Displacement        TolMAXD  ....  4.0000e-03 bohr
RMS Displacement         TolRMSD  ....  2.0000e-03 bohr
Strict Convergence                ....  False
------------------------------------------------------------------------------
                        ORCA OPTIMIZATION COORDINATE SETUP
------------------------------------------------------------------------------

The optimization will be done in new redundant internal coordinates
Making redundant internal coordinates   ...  (new redundants) done
Evaluating the initial hessian          ...  (Almloef) done
Evaluating the coordinates              ...  done
Calculating the B-matrix                .... done
Calculating the G-matrix                .... done
Diagonalizing the G-matrix              .... done
Small eigenvalue found = 3.034e-03
Small eigenvalue found = 2.021e-02
The first mode is                       ....   35
The number of degrees of freedom        ....   48

    -----------------------------------------------------------------
                    Redundant Internal Coordinates


    -----------------------------------------------------------------
         Definition                    Initial Value    Approx d2E/dq
    -----------------------------------------------------------------
      1. B(C   1,C   0)                  1.4302         0.538936   
      2. B(C   2,C   1)                  1.3765         0.656581   
      3. B(C   3,C   2)                  1.4074         0.586113   
      4. B(C   4,C   3)                  1.4131         0.574052   
      5. B(C   5,C   4)                  1.3853         0.635587   
      6. B(C   5,C   0)                  1.4237         0.551942   
      7. B(C   6,C   0)                  1.4837         0.442894   
      8. B(H   7,C   3)                  1.0912         0.358575   
      9. B(H   8,C   1)                  1.0914         0.358305   
     10. B(H   9,C   6)                  1.0974         0.350436   
     11. B(H  10,C   6)                  1.1085         0.336473   
     12. B(H  11,C   6)                  1.1072         0.338043   
     13. B(H  12,C   5)                  1.0922         0.357235   
     14. B(H  13,C   4)                  1.0920         0.357496   
     15. B(N  14,C   2)                  1.4831         0.397545   
     16. B(O  15,N  14)                  1.2186         0.940858   
     17. B(O  16,N  14)                  1.2135         0.958362   
     18. B(H  17,H  10)                 13.7573         0.000000   
     19. A(C   1,C   0,C   5)          118.6538         0.414611   
     20. A(C   1,C   0,C   6)          119.6320         0.398786   
     21. A(C   5,C   0,C   6)          121.7119         0.400463   
     22. A(C   0,C   1,C   2)          119.2126         0.427660   
     23. A(C   2,C   1,H   8)          119.5559         0.356053   
     24. A(C   0,C   1,H   8)          121.2286         0.344381   
     25. A(C   3,C   2,N  14)          118.5670         0.394566   
     26. A(C   1,C   2,N  14)          119.1121         0.402519   
     27. A(C   1,C   2,C   3)          122.3058         0.434153   
     28. A(C   2,C   3,C   4)          118.7257         0.423818   
     29. A(C   4,C   3,H   7)          122.0016         0.348100   
     30. A(C   2,C   3,H   7)          119.2726         0.349323   
     31. A(C   3,C   4,H  13)          119.3797         0.347924   
     32. A(C   5,C   4,H  13)          120.4872         0.353961   
     33. A(C   3,C   4,C   5)          120.1331         0.430015   
     34. A(C   0,C   5,C   4)          120.9677         0.426997   
     35. A(C   4,C   5,H  12)          120.1137         0.353917   
     36. A(C   0,C   5,H  12)          118.9186         0.345590   
     37. A(H   9,C   6,H  10)          108.8518         0.286543   
     38. A(C   0,C   6,H  10)          110.2641         0.329834   
     39. A(C   0,C   6,H   9)          112.9118         0.332060   
     40. A(H  10,C   6,H  11)          104.7361         0.284940   
     41. A(H   9,C   6,H  11)          109.3366         0.286751   
     42. A(C   0,C   6,H  11)          110.4082         0.330088   
     43. A(C   6,H  10,H  17)          167.5446         0.089003   
     44. A(O  15,N  14,O  16)          126.4562         0.493772   
     45. A(C   2,N  14,O  16)          117.2967         0.424884   
     46. A(C   2,N  14,O  15)          116.2444         0.423486   
     47. D(C   2,C   1,C   0,C   5)     -0.1617         0.019844   
     48. D(C   2,C   1,C   0,C   6)   -179.6258         0.019844   
     49. D(H   8,C   1,C   0,C   6)     -0.2463         0.019844   
     50. D(H   8,C   1,C   0,C   5)    179.2177         0.019844   
     51. D(C   3,C   2,C   1,C   0)      0.3821         0.030059   
     52. D(C   3,C   2,C   1,H   8)   -179.0079         0.030059   
     53. D(N  14,C   2,C   1,H   8)      2.4243         0.030059   
     54. D(N  14,C   2,C   1,C   0)   -178.1857         0.030059   
     55. D(H   7,C   3,C   2,N  14)     -1.7386         0.023625   
     56. D(H   7,C   3,C   2,C   1)    179.6861         0.023625   
     57. D(C   4,C   3,C   2,N  14)    178.3228         0.023625   
     58. D(C   4,C   3,C   2,C   1)     -0.2525         0.023625   
     59. D(C   5,C   4,C   3,H   7)    179.9603         0.022619   
     60. D(H  13,C   4,C   3,C   2)    179.9191         0.022619   
     61. D(C   5,C   4,C   3,C   2)     -0.1028         0.022619   
     62. D(H  13,C   4,C   3,H   7)     -0.0178         0.022619   
     63. D(H  12,C   5,C   4,H  13)      0.2481         0.028042   
     64. D(C   0,C   5,C   4,H  13)   -179.7062         0.028042   
     65. D(C   0,C   5,C   4,C   3)      0.3159         0.028042   
     66. D(H  12,C   5,C   0,C   6)     -0.6865         0.020845   
     67. D(H  12,C   5,C   0,C   1)    179.8612         0.020845   
     68. D(H  12,C   5,C   4,C   3)   -179.7298         0.028042   
     69. D(C   4,C   5,C   0,C   6)    179.2684         0.020845   
     70. D(C   4,C   5,C   0,C   1)     -0.1840         0.020845   
     71. D(H  11,C   6,C   0,C   5)    124.9927         0.014471   
     72. D(H  11,C   6,C   0,C   1)    -55.5601         0.014471   
     73. D(H  10,C   6,C   0,C   5)   -119.7506         0.014471   
     74. D(H  10,C   6,C   0,C   1)     59.6965         0.014471   
     75. D(H   9,C   6,C   0,C   5)      2.2541         0.014471   
     76. D(H   9,C   6,C   0,C   1)   -178.2988         0.014471   
     77. D(H  17,H  10,C   6,C   0)    166.2462         0.103047   
     78. D(H  17,H  10,C   6,H  11)    -74.9728         0.103047   
     79. D(H  17,H  10,C   6,H   9)     41.8729         0.103047   
     80. D(O  16,N  14,C   2,C   3)    170.5790         0.012488   
     81. D(O  16,N  14,C   2,C   1)    -10.7993         0.012488   
     82. D(O  15,N  14,C   2,C   3)     -9.9793         0.012488   
     83. D(O  15,N  14,C   2,C   1)    168.6424         0.012488   
    -----------------------------------------------------------------

Number of atoms                         .... 18
Number of degrees of freedom            .... 83

         *************************************************************
         *                GEOMETRY OPTIMIZATION CYCLE   1            *
         *************************************************************
---------------------------------
CARTESIAN COORDINATES (ANGSTROEM)
---------------------------------
  C     -3.811928    2.327513   -0.665947
  C     -4.546524    1.759818   -1.753918
  C     -3.965196    0.769408   -2.512784
  C     -2.669633    0.285084   -2.252561
  C     -1.940270    0.840394   -1.177204
  C     -2.499250    1.843405   -0.402173
  C     -4.432694    3.389728    0.163279
  H     -2.258910   -0.505285   -2.882834
  H     -5.560479    2.090392   -1.985612
  H     -3.762814    3.766418    0.946646
  H     -5.361612    3.013440    0.636809
  H     -4.762890    4.233155   -0.473515
  H     -1.933533    2.275457    0.426163
  H     -0.934596    0.471649   -0.964935
  N     -4.712954    0.210752   -3.665287
  O     -4.079213   -0.500601   -4.425058
  O     -5.884332    0.511119   -3.767039
  H    -16.640204    0.796172    8.196009

----------------------------
CARTESIAN COORDINATES (A.U.)
----------------------------
  NO LB      ZA    FRAG     MASS         X           Y           Z
   0 C     6.0000    0    12.011   -7.203500    4.398363   -1.258457
   1 C     6.0000    0    12.011   -8.591684    3.325575   -3.314424
   2 C     6.0000    0    12.011   -7.493134    1.453970   -4.748474
   3 C     6.0000    0    12.011   -5.044875    0.538731   -4.256724
   4 C     6.0000    0    12.011   -3.666578    1.588115   -2.224594
   5 C     6.0000    0    12.011   -4.722897    3.483531   -0.759997
   6 C     6.0000    0    12.011   -8.376577    6.405658    0.308553
   7 H     1.0000    0     1.008   -4.268722   -0.954850   -5.447766
   8 H     1.0000    0     1.008  -10.507782    3.950268   -3.752263
   9 H     1.0000    0     1.008   -7.110687    7.117498    1.788902
  10 H     1.0000    0     1.008  -10.131979    5.694577    1.203395
  11 H     1.0000    0     1.008   -9.000557    7.999504   -0.894813
  12 H     1.0000    0     1.008   -3.653849    4.299991    0.805332
  13 H     1.0000    0     1.008   -1.766130    0.891288   -1.823463
  14 N     7.0000    0    14.007   -8.906193    0.398264   -6.926388
  15 O     8.0000    0    15.999   -7.708595   -0.945999   -8.362148
  16 O     8.0000    0    15.999  -11.119776    0.965874   -7.118672
  17 H     1.0000    0     1.008  -31.445429    1.504548   15.488212

--------------------------------
INTERNAL COORDINATES (ANGSTROEM)
--------------------------------
 C      0   0   0     0.000000000000     0.00000000     0.00000000
 C      1   0   0     1.430240795999     0.00000000     0.00000000
 C      2   1   0     1.376493010995   119.21259430     0.00000000
 C      3   2   1     1.407397910899   122.30576391     0.38208555
 C      4   3   2     1.413057937754   118.72568453   359.74747064
 C      5   4   3     1.385338735482   120.13311030   359.89717234
 C      1   2   3     1.483666424194   119.63204073   180.37422734
 H      4   3   2     1.091155363081   119.27264090   179.68609547
 H      2   1   3     1.091359927682   121.22860118   179.37945128
 H      7   1   2     1.097405027187   112.91183973   181.70122742
 H      7   1   2     1.108473307537   110.26412744    59.69652317
 H      7   1   2     1.107205836283   110.40822048   304.43986465
 H      6   5   4     1.092174171562   120.11374838   180.27022638
 H      5   4   3     1.091975631581   119.37966057   179.91907055
 N      3   2   1     1.483071324362   119.11214893   181.81428072
 O     15   3   2     1.218566224290   116.24438433   168.64238067
 O     15   3   2     1.213548450496   117.29669356   349.20070132
 H     11   7   1    13.757340154744   167.54464232   166.24620922

---------------------------
INTERNAL COORDINATES (A.U.)
---------------------------
 C      0   0   0     0.000000000000     0.00000000     0.00000000
 C      1   0   0     2.702763410000     0.00000000     0.00000000
 C      2   1   0     2.601194816038   119.21259430     0.00000000
 C      3   2   1     2.659596613051   122.30576391     0.38208555
 C      4   3   2     2.670292513718   118.72568453   359.74747064
 C      5   4   3     2.617910812774   120.13311030   359.89717234
 C      1   2   3     2.803723215821   119.63204073   180.37422734
 H      4   3   2     2.061984805783   119.27264090   179.68609547
 H      2   1   3     2.062371376856   121.22860118   179.37945128
 H      7   1   2     2.073794959372   112.91183973   181.70122742
 H      7   1   2     2.094710978006   110.26412744    59.69652317
 H      7   1   2     2.092315804453   110.40822048   304.43986465
 H      6   5   4     2.063910074794   120.11374838   180.27022638
 H      5   4   3     2.063534888603   119.37966057   179.91907055
 N      3   2   1     2.802598640116   119.11214893   181.81428072
 O     15   3   2     2.302756439954   116.24438433   168.64238067
 O     15   3   2     2.293274221682   117.29669356   349.20070132
 H     11   7   1    25.997605223664   167.54464232   166.24620922

---------------------
BASIS SET INFORMATION
---------------------
There are 4 groups of distinct atoms

 Group   1 Type C   : 11s6p2d1f contracted to 5s3p2d1f pattern {62111/411/11/1}
 Group   2 Type H   : 5s1p contracted to 3s1p pattern {311/1}
 Group   3 Type N   : 11s6p2d1f contracted to 5s3p2d1f pattern {62111/411/11/1}
 Group   4 Type O   : 11s6p2d1f contracted to 5s3p2d1f pattern {62111/411/11/1}

Atom   0C    basis set group =>   1
Atom   1C    basis set group =>   1
Atom   2C    basis set group =>   1
Atom   3C    basis set group =>   1
Atom   4C    basis set group =>   1
Atom   5C    basis set group =>   1
Atom   6C    basis set group =>   1
Atom   7H    basis set group =>   2
Atom   8H    basis set group =>   2
Atom   9H    basis set group =>   2
Atom  10H    basis set group =>   2
Atom  11H    basis set group =>   2
Atom  12H    basis set group =>   2
Atom  13H    basis set group =>   2
Atom  14N    basis set group =>   3
Atom  15O    basis set group =>   4
Atom  16O    basis set group =>   4
Atom  17H    basis set group =>   2
---------------------------------
AUXILIARY/J BASIS SET INFORMATION
---------------------------------
There are 4 groups of distinct atoms

 Group   1 Type C   : 12s5p4d2f1g contracted to 6s4p3d1f1g pattern {711111/2111/211/2/1}
 Group   2 Type H   : 5s2p1d contracted to 3s1p1d pattern {311/2/1}
 Group   3 Type N   : 12s5p4d2f1g contracted to 6s4p3d1f1g pattern {711111/2111/211/2/1}
 Group   4 Type O   : 12s5p4d2f1g contracted to 6s4p3d1f1g pattern {711111/2111/211/2/1}

Atom   0C    basis set group =>   1
Atom   1C    basis set group =>   1
Atom   2C    basis set group =>   1
Atom   3C    basis set group =>   1
Atom   4C    basis set group =>   1
Atom   5C    basis set group =>   1
Atom   6C    basis set group =>   1
Atom   7H    basis set group =>   2
Atom   8H    basis set group =>   2
Atom   9H    basis set group =>   2
Atom  10H    basis set group =>   2
Atom  11H    basis set group =>   2
Atom  12H    basis set group =>   2
Atom  13H    basis set group =>   2
Atom  14N    basis set group =>   3
Atom  15O    basis set group =>   4
Atom  16O    basis set group =>   4
Atom  17H    basis set group =>   2
------------------------------------------------------------------------------
                           ORCA GTO INTEGRAL CALCULATION
                           -- RI-GTO INTEGRALS CHOSEN --
------------------------------------------------------------------------------
------------------------------------------------------------------------------
                   ___                                                        
                  /   \      - P O W E R E D   B Y -                         
                 /     \                                                     
                 |  |  |   _    _      __       _____    __    __             
                 |  |  |  | |  | |    /  \     |  _  \  |  |  /  |          
                  \  \/   | |  | |   /    \    | | | |  |  | /  /          
                 / \  \   | |__| |  /  /\  \   | |_| |  |  |/  /          
                |  |  |   |  __  | /  /__\  \  |    /   |      \           
                |  |  |   | |  | | |   __   |  |    \   |  |\   \          
                \     /   | |  | | |  |  |  |  | |\  \  |  | \   \       
                 \___/    |_|  |_| |__|  |__|  |_| \__\ |__|  \__/        
                                                                              
                      - O R C A' S   B I G   F R I E N D -                    
                                      &                                       
                       - I N T E G R A L  F E E D E R -                       
                                                                              
 v1 FN, 2020, v2 2021                                                         
------------------------------------------------------------------------------


Reading SHARK input file meta_products_optfreq.SHARKINP.tmp ... ok
----------------------
SHARK INTEGRAL PACKAGE
----------------------

Number of atoms                             ...     18
Number of basis functions                   ...    358
Number of shells                            ...    142
Maximum angular momentum                    ...      3
Integral batch strategy                     ... SHARK/LIBINT Hybrid
RI-J (if used) integral strategy            ... SPLIT-RIJ (Revised 2003 algorithm where possible)
Printlevel                                  ...      1
Contraction scheme used                     ... SEGMENTED contraction
Coulomb Range Separation                    ... NOT USED
Exchange Range Separation                   ... NOT USED
Finite Nucleus Model                        ... NOT USED
Auxiliary Coulomb fitting basis             ... AVAILABLE
   # of basis functions in Aux-J            ...    578
   # of shells in Aux-J                     ...    190
   Maximum angular momentum in Aux-J        ...      4
Auxiliary J/K fitting basis                 ... NOT available
Auxiliary Correlation fitting basis         ... NOT available
Auxiliary 'external' fitting basis          ... NOT available
Integral threshold                          ...     2.500000e-11
Primitive cut-off                           ...     2.500000e-12
Primitive pair pre-selection threshold      ...     2.500000e-12

Calculating pre-screening integrals         ... done (  0.2 sec) Dimension = 142
Organizing shell pair data                  ... done (  0.2 sec)
Shell pair information
Total number of shell pairs                 ...     10153
Shell pairs after pre-screening             ...      8410
Total number of primitive shell pairs       ...     31120
Primitive shell pairs kept                  ...     19043
          la=0 lb=0:   2132 shell pairs
          la=1 lb=0:   2346 shell pairs
          la=1 lb=1:    656 shell pairs
          la=2 lb=0:   1242 shell pairs
          la=2 lb=1:    678 shell pairs
          la=2 lb=2:    192 shell pairs
          la=3 lb=0:    598 shell pairs
          la=3 lb=1:    339 shell pairs
          la=3 lb=2:    179 shell pairs
          la=3 lb=3:     48 shell pairs

Calculating one electron integrals          ... done (  0.2 sec)
Calculating RI/J V-Matrix + Cholesky decomp.... done (  0.1 sec)
Calculating Nuclear repulsion               ... done (  0.0 sec) ENN=    495.859046411672 Eh

SHARK setup successfully completed in   1.1 seconds

Maximum memory used throughout the entire GTOINT-calculation: 128.1 MB
-------------------------------------------------------------------------------
                                 ORCA SCF
-------------------------------------------------------------------------------

------------
SCF SETTINGS
------------
Hamiltonian:
 Density Functional     Method          .... DFT(GTOs)
 Exchange Functional    Exchange        .... B88
   X-Alpha parameter    XAlpha          ....  0.666667
   Becke's b parameter  XBeta           ....  0.004200
 Correlation Functional Correlation     .... LYP
 LDA part of GGA corr.  LDAOpt          .... VWN-5
 Gradients option       PostSCFGGA      .... off
 Hybrid DFT is turned on
   Fraction HF Exchange ScalHFX         ....  0.200000
   Scaling of DF-GGA-X  ScalDFX         ....  0.720000
   Scaling of DF-GGA-C  ScalDFC         ....  0.810000
   Scaling of DF-LDA-C  ScalLDAC        ....  1.000000
   Perturbative correction              ....  0.000000
   Density functional embedding theory  .... OFF
   NL short-range parameter             ....  4.800000
 RI-approximation to the Coulomb term is turned on
   Number of AuxJ basis functions       .... 578
   RIJ-COSX (HFX calculated with COS-X)).... on


General Settings:
 Integral files         IntName         .... meta_products_optfreq
 Hartree-Fock type      HFTyp           .... RHF
 Total Charge           Charge          ....    1
 Multiplicity           Mult            ....    1
 Number of Electrons    NEL             ....   72
 Basis Dimension        Dim             ....  358
 Nuclear Repulsion      ENuc            ....    495.8590464117 Eh

Convergence Acceleration:
 DIIS                   CNVDIIS         .... on
   Start iteration      DIISMaxIt       ....    12
   Startup error        DIISStart       ....  0.200000
   # of expansion vecs  DIISMaxEq       ....     5
   Bias factor          DIISBfac        ....   1.050
   Max. coefficient     DIISMaxC        ....  10.000
 Trust-Rad. Augm. Hess. CNVTRAH         .... auto
   Auto Start mean grad. ratio tolernc. ....  1.125000
   Auto Start start iteration           ....    20
   Auto Start num. interpolation iter.  ....    10
   Max. Number of Micro iterations      ....    16
   Max. Number of Macro iterations      .... Maxiter - #DIIS iter
   Number of Davidson start vectors     ....     2
   Converg. threshold I  (grad. norm)   ....   1.000e-05
   Converg. threshold II (energy diff.) ....   1.000e-08
   Grad. Scal. Fac. for Micro threshold ....   0.100
   Minimum threshold for Micro iter.    ....   0.010
   NR start threshold (gradient norm)   ....   0.001
   Initial trust radius                 ....   0.400
   Minimum AH scaling param. (alpha)    ....   1.000
   Maximum AH scaling param. (alpha)    .... 1000.000
   Orbital update algorithm             .... Taylor
   White noise on init. David. guess    .... on
   Maximum white noise                  ....   0.010
   Quad. conv. algorithm                .... NR
 SOSCF                  CNVSOSCF        .... on
   Start iteration      SOSCFMaxIt      ....   150
   Startup grad/error   SOSCFStart      ....  0.003300
 Level Shifting         CNVShift        .... on
   Level shift para.    LevelShift      ....    0.2500
   Turn off err/grad.   ShiftErr        ....    0.0010
 Zerner damping         CNVZerner       .... off
 Static damping         CNVDamp         .... on
   Fraction old density DampFac         ....    0.7000
   Max. Damping (<1)    DampMax         ....    0.9800
   Min. Damping (>=0)   DampMin         ....    0.0000
   Turn off err/grad.   DampErr         ....    0.1000
 Fernandez-Rico         CNVRico         .... off

SCF Procedure:
 Maximum # iterations   MaxIter         ....   125
 SCF integral mode      SCFMode         .... Direct
   Integral package                     .... SHARK and LIBINT hybrid scheme
 Reset frequency        DirectResetFreq ....    20
 Integral Threshold     Thresh          ....  2.500e-11 Eh
 Primitive CutOff       TCut            ....  2.500e-12 Eh

Convergence Tolerance:
 Convergence Check Mode ConvCheckMode   .... Total+1el-Energy
 Convergence forced     ConvForced      .... 0
 Energy Change          TolE            ....  1.000e-08 Eh
 1-El. energy change                    ....  1.000e-05 Eh
 Orbital Gradient       TolG            ....  1.000e-05
 Orbital Rotation angle TolX            ....  1.000e-05
 DIIS Error             TolErr          ....  5.000e-07


Diagonalization of the overlap matrix:
Smallest eigenvalue                        ... 9.020e-06
Time for diagonalization                   ...    0.071 sec
Threshold for overlap eigenvalues          ... 1.000e-08
Number of eigenvalues below threshold      ... 0
Time for construction of square roots      ...    0.074 sec
Total time needed                          ...    0.146 sec

Time for model grid setup =    1.341 sec

------------------------------
INITIAL GUESS: MODEL POTENTIAL
------------------------------
Loading Hartree-Fock densities                     ... done
Calculating cut-offs                               ... done
Initializing the effective Hamiltonian             ... done
Setting up the integral package (SHARK)            ... done
Starting the Coulomb interaction                   ... done (   3.0 sec)
Reading the grid                                   ... done
Mapping shells                                     ... done
Starting the XC term evaluation                    ... done (   2.7 sec)
  promolecular density results
     # of electrons  =     72.995984686
     EX              =    -61.268234362
     EC              =     -2.479925907
     EX+EC           =    -63.748160269
Transforming the Hamiltonian                       ... done (   0.0 sec)
Diagonalizing the Hamiltonian                      ... done (   0.1 sec)
Back transforming the eigenvectors                 ... done (   0.0 sec)
Now organizing SCF variables                       ... done
                      ------------------
                      INITIAL GUESS DONE (   7.2 sec)
                      ------------------
-------------------
DFT GRID GENERATION
-------------------

General Integration Accuracy     IntAcc      ... 4.388
Radial Grid Type                 RadialGrid  ... OptM3 with GC (2021)
Angular Grid (max. ang.)         AngularGrid ... 4 (Lebedev-302)
Angular grid pruning method      GridPruning ... 4 (adaptive)
Weight generation scheme         WeightScheme... Becke
Basis function cutoff            BFCut       ... 1.0000e-11
Integration weight cutoff        WCut        ... 1.0000e-14
Angular grids for H and He will be reduced by one unit
Partially contracted basis set               ... off
Rotationally invariant grid construction     ... off

Total number of grid points                  ...    86255
Total number of batches                      ...     1358
Average number of points per batch           ...       63
Average number of grid points per atom       ...     4792
Time for grid setup =    3.845 sec

--------------------
COSX GRID GENERATION
--------------------

GRIDX 1
-------
General Integration Accuracy     IntAcc      ... 3.816
Radial Grid Type                 RadialGrid  ... OptM3 with GC (2021)
Angular Grid (max. ang.)         AngularGrid ... 1 (Lebedev-50)
Angular grid pruning method      GridPruning ... 4 (adaptive)
Weight generation scheme         WeightScheme... Becke
Basis function cutoff            BFCut       ... 1.0000e-11
Integration weight cutoff        WCut        ... 1.0000e-14
Angular grids for H and He will be reduced by one unit
Partially contracted basis set               ... on
Rotationally invariant grid construction     ... off

Total number of grid points                  ...    11005
Total number of batches                      ...      180
Average number of points per batch           ...       61
Average number of grid points per atom       ...      611
UseSFitting                                  ... on

GRIDX 2
-------
General Integration Accuracy     IntAcc      ... 4.020
Radial Grid Type                 RadialGrid  ... OptM3 with GC (2021)
Angular Grid (max. ang.)         AngularGrid ... 2 (Lebedev-110)
Angular grid pruning method      GridPruning ... 4 (adaptive)
Weight generation scheme         WeightScheme... Becke
Basis function cutoff            BFCut       ... 1.0000e-11
Integration weight cutoff        WCut        ... 1.0000e-14
Angular grids for H and He will be reduced by one unit
Partially contracted basis set               ... on
Rotationally invariant grid construction     ... off

Total number of grid points                  ...    24218
Total number of batches                      ...      388
Average number of points per batch           ...       62
Average number of grid points per atom       ...     1345
UseSFitting                                  ... on

GRIDX 3
-------
General Integration Accuracy     IntAcc      ... 4.338
Radial Grid Type                 RadialGrid  ... OptM3 with GC (2021)
Angular Grid (max. ang.)         AngularGrid ... 3 (Lebedev-194)
Angular grid pruning method      GridPruning ... 4 (adaptive)
Weight generation scheme         WeightScheme... Becke
Basis function cutoff            BFCut       ... 1.0000e-11
Integration weight cutoff        WCut        ... 1.0000e-14
Angular grids for H and He will be reduced by one unit
Partially contracted basis set               ... on
Rotationally invariant grid construction     ... off

Total number of grid points                  ...    53319
Total number of batches                      ...      843
Average number of points per batch           ...       63
Average number of grid points per atom       ...     2962
UseSFitting                                  ... on

Time for X-Grid setup             =    5.889 sec

--------------
SCF ITERATIONS
--------------
ITER       Energy         Delta-E        Max-DP      RMS-DP      [F,P]     Damp
               ***  Starting incremental Fock matrix formation  ***
  0   -475.6898917247   0.000000000000 0.15182430  0.00133166  0.2279787 0.7000
  1   -475.9660522627  -0.276160537992 0.09674028  0.00090616  0.0795047 0.7000
                               ***Turning on DIIS***
  2   -475.9659128448   0.000139417907 0.30775135  0.00211955  0.0441680 0.0000
  3   -475.5654920126   0.400420832204 0.13875579  0.00085716  0.2551603 0.7000
  4   -475.9447308539  -0.379238841318 0.32376351  0.00202642  0.0740509 0.0000
  5   -475.9395633185   0.005167535438 0.00846557  0.00020624  0.0627562 0.0000
  6   -475.9544445807  -0.014881262146 0.00411023  0.00010574  0.0512661 0.0000
  7   -475.9602240837  -0.005779503025 0.01251218  0.00030643  0.0464699 0.0000
  8   -475.9717885103  -0.011564426630 0.00929321  0.00021982  0.0344252 0.0000
  9   -475.9769741660  -0.005185655698 0.02768285  0.00070333  0.0292068 0.0000
 10   -475.9862046663  -0.009230500342 0.01400862  0.00031522  0.0181402 0.0000
 11   -475.9868995705  -0.000694904178 0.00535245  0.00013333  0.0191040 0.0000
                      *** Initiating the SOSCF procedure ***
                           *** Shutting down DIIS ***
                      *** Re-Reading the Fockian *** 
                      *** Removing any level shift *** 
ITER      Energy       Delta-E        Grad      Rot      Max-DP    RMS-DP
 12   -475.98761512  -0.0007155474  0.000862  0.000862  0.001609  0.000047
               *** Restarting incremental Fock matrix formation ***
 13   -475.98764760  -0.0000324863  0.000966  0.004198  0.002626  0.000055
 14   -475.98761451   0.0000330915  0.002852  0.003072  0.001383  0.000029
 15   -475.98765671  -0.0000421976  0.000071  0.000280  0.000260  0.000006
 16   -475.98765611   0.0000005975  0.000117  0.000208  0.000226  0.000004
 17   -475.98765716  -0.0000010460  0.000025  0.000098  0.000046  0.000001
 18   -475.98765713   0.0000000336  0.000042  0.000062  0.000044  0.000001
                  ***Gradient check signals convergence***
              ***Rediagonalizing the Fockian in SOSCF/NRSCF***

               *****************************************************
               *                     SUCCESS                       *
               *           SCF CONVERGED AFTER  19 CYCLES          *
               *****************************************************

Old exchange energy                            =    -12.338347905 Eh
New exchange energy                            =    -12.338348501 Eh
Exchange energy change after final integration =     -0.000000596 Eh
Total energy after final integration           =   -475.987657762 Eh
Final COS-X integration done in                =   134.054 sec

----------------
TOTAL SCF ENERGY
----------------

Total Energy       :         -475.98765776 Eh          -12952.28265 eV

Components:
Nuclear Repulsion  :          495.85904641 Eh           13493.01062 eV
Electronic Energy  :         -971.84670417 Eh          -26445.29327 eV
One Electron Energy:        -1626.55698391 Eh          -44260.86571 eV
Two Electron Energy:          654.71027973 Eh           17815.57244 eV
Max COSX asymmetry :            0.00000117 Eh               0.00003 eV

Virial components:
Potential Energy   :         -949.73713375 Eh          -25843.66128 eV
Kinetic Energy     :          473.74947599 Eh           12891.37863 eV
Virial Ratio       :            2.00472440


DFT components:
N(Alpha)           :       35.999954431517 electrons
N(Beta)            :       35.999954431517 electrons
N(Total)           :       71.999908863034 electrons
E(X)               :      -49.126633829041 Eh       
E(C)               :       -2.907836101565 Eh       
E(XC)              :      -52.034469930606 Eh       
DFET-embed. en.    :        0.000000000000 Eh       

---------------
SCF CONVERGENCE
---------------

  Last Energy change         ...   -4.0309e-08  Tolerance :   1.0000e-08
  Last MAX-Density change    ...    7.7716e-16  Tolerance :   1.0000e-07
  Last RMS-Density change    ...    1.5053e-17  Tolerance :   5.0000e-09
  Last Orbital Gradient      ...    1.9385e-06  Tolerance :   1.0000e-05
  Last Orbital Rotation      ...    4.7561e-06  Tolerance :   1.0000e-05

             **** THE GBW FILE WAS UPDATED (meta_products_optfreq.gbw) ****
             **** DENSITY meta_products_optfreq.scfp WAS UPDATED ****
             **** ENERGY FILE WAS UPDATED (meta_products_optfreq.en.tmp) ****
             **** THE GBW FILE WAS UPDATED (meta_products_optfreq.gbw) ****
             **** DENSITY meta_products_optfreq.scfp WAS UPDATED ****
----------------
ORBITAL ENERGIES
----------------

  NO   OCC          E(Eh)            E(eV) 
   0   2.0000     -19.193926      -522.2933 
   1   2.0000     -19.191765      -522.2345 
   2   2.0000     -14.586040      -396.9063 
   3   2.0000     -10.271910      -279.5129 
   4   2.0000     -10.247039      -278.8361 
   5   2.0000     -10.236809      -278.5577 
   6   2.0000     -10.236426      -278.5473 
   7   2.0000     -10.234285      -278.4891 
   8   2.0000     -10.233666      -278.4722 
   9   2.0000     -10.221727      -278.1473 
  10   2.0000      -1.270298       -34.5666 
  11   2.0000      -1.099108       -29.9083 
  12   2.0000      -0.921139       -25.0655 
  13   2.0000      -0.847098       -23.0507 
  14   2.0000      -0.819397       -22.2969 
  15   2.0000      -0.744871       -20.2690 
  16   2.0000      -0.731079       -19.8937 
  17   2.0000      -0.653361       -17.7789 
  18   2.0000      -0.621501       -16.9119 
  19   2.0000      -0.590163       -16.0592 
  20   2.0000      -0.575552       -15.6616 
  21   2.0000      -0.553703       -15.0670 
  22   2.0000      -0.543921       -14.8008 
  23   2.0000      -0.517739       -14.0884 
  24   2.0000      -0.493958       -13.4413 
  25   2.0000      -0.471186       -12.8216 
  26   2.0000      -0.465131       -12.6569 
  27   2.0000      -0.442486       -12.0407 
  28   2.0000      -0.418865       -11.3979 
  29   2.0000      -0.411779       -11.2051 
  30   2.0000      -0.402673       -10.9573 
  31   2.0000      -0.354398        -9.6437 
  32   2.0000      -0.346172        -9.4198 
  33   2.0000      -0.336328        -9.1520 
  34   2.0000      -0.319208        -8.6861 
  35   2.0000      -0.296651        -8.0723 
  36   0.0000      -0.500092       -13.6082 
  37   0.0000      -0.124547        -3.3891 
  38   0.0000      -0.073930        -2.0117 
  39   0.0000      -0.039693        -1.0801 
  40   0.0000      -0.002305        -0.0627 
  41   0.0000       0.015865         0.4317 
  42   0.0000       0.026804         0.7294 
  43   0.0000       0.036667         0.9977 
  44   0.0000       0.055872         1.5203 
  45   0.0000       0.058417         1.5896 
  46   0.0000       0.067471         1.8360 
  47   0.0000       0.069241         1.8841 
  48   0.0000       0.090040         2.4501 
  49   0.0000       0.104012         2.8303 
  50   0.0000       0.105844         2.8802 
  51   0.0000       0.130884         3.5615 
  52   0.0000       0.142778         3.8852 
  53   0.0000       0.145044         3.9468 
  54   0.0000       0.152719         4.1557 
  55   0.0000       0.177991         4.8434 
  56   0.0000       0.180881         4.9220 
  57   0.0000       0.187875         5.1124 
  58   0.0000       0.207834         5.6555 
  59   0.0000       0.210760         5.7351 
  60   0.0000       0.223194         6.0734 
  61   0.0000       0.228320         6.2129 
  62   0.0000       0.241607         6.5745 
  63   0.0000       0.248457         6.7609 
  64   0.0000       0.263425         7.1682 
  65   0.0000       0.276110         7.5133 
  66   0.0000       0.289758         7.8847 
  67   0.0000       0.294669         8.0183 
  68   0.0000       0.300810         8.1855 
  69   0.0000       0.303383         8.2555 
  70   0.0000       0.319162         8.6848 
  71   0.0000       0.321066         8.7366 
  72   0.0000       0.344863         9.3842 
  73   0.0000       0.355024         9.6607 
  74   0.0000       0.361827         9.8458 
  75   0.0000       0.372120        10.1259 
  76   0.0000       0.378746        10.3062 
  77   0.0000       0.386350        10.5131 
  78   0.0000       0.394530        10.7357 
  79   0.0000       0.404728        11.0132 
  80   0.0000       0.409926        11.1547 
  81   0.0000       0.419342        11.4109 
  82   0.0000       0.422117        11.4864 
  83   0.0000       0.446826        12.1587 
  84   0.0000       0.460499        12.5308 
  85   0.0000       0.461973        12.5709 
  86   0.0000       0.466780        12.7017 
  87   0.0000       0.469786        12.7835 
  88   0.0000       0.481181        13.0936 
  89   0.0000       0.493745        13.4355 
  90   0.0000       0.506080        13.7711 
  91   0.0000       0.547413        14.8959 
  92   0.0000       0.554379        15.0854 
  93   0.0000       0.569605        15.4997 
  94   0.0000       0.578478        15.7412 
  95   0.0000       0.585728        15.9385 
  96   0.0000       0.597202        16.2507 
  97   0.0000       0.611131        16.6297 
  98   0.0000       0.618028        16.8174 
  99   0.0000       0.632519        17.2117 
 100   0.0000       0.643416        17.5082 
 101   0.0000       0.654703        17.8154 
 102   0.0000       0.678494        18.4628 
 103   0.0000       0.693215        18.8633 
 104   0.0000       0.722386        19.6571 
 105   0.0000       0.731362        19.9014 
 106   0.0000       0.743159        20.2224 
 107   0.0000       0.758509        20.6401 
 108   0.0000       0.769243        20.9322 
 109   0.0000       0.776950        21.1419 
 110   0.0000       0.790400        21.5079 
 111   0.0000       0.826862        22.5000 
 112   0.0000       0.839515        22.8444 
 113   0.0000       0.867124        23.5957 
 114   0.0000       0.873750        23.7759 
 115   0.0000       0.904206        24.6047 
 116   0.0000       0.917232        24.9591 
 117   0.0000       0.945376        25.7250 
 118   0.0000       0.947413        25.7804 
 119   0.0000       0.980988        26.6940 
 120   0.0000       0.993591        27.0370 
 121   0.0000       1.014864        27.6159 
 122   0.0000       1.023219        27.8432 
 123   0.0000       1.046087        28.4655 
 124   0.0000       1.048192        28.5228 
 125   0.0000       1.048194        28.5228 
 126   0.0000       1.048196        28.5229 
 127   0.0000       1.059643        28.8344 
 128   0.0000       1.083655        29.4877 
 129   0.0000       1.100268        29.9398 
 130   0.0000       1.134696        30.8767 
 131   0.0000       1.149188        31.2710 
 132   0.0000       1.171848        31.8876 
 133   0.0000       1.181237        32.1431 
 134   0.0000       1.195429        32.5293 
 135   0.0000       1.204806        32.7844 
 136   0.0000       1.239514        33.7289 
 137   0.0000       1.244545        33.8658 
 138   0.0000       1.253271        34.1032 
 139   0.0000       1.264535        34.4097 
 140   0.0000       1.279601        34.8197 
 141   0.0000       1.332209        36.2512 
 142   0.0000       1.359658        36.9982 
 143   0.0000       1.366659        37.1887 
 144   0.0000       1.397568        38.0298 
 145   0.0000       1.410549        38.3830 
 146   0.0000       1.423074        38.7238 
 147   0.0000       1.435508        39.0622 
 148   0.0000       1.449875        39.4531 
 149   0.0000       1.471822        40.0503 
 150   0.0000       1.477408        40.2023 
 151   0.0000       1.489377        40.5280 
 152   0.0000       1.496395        40.7190 
 153   0.0000       1.506012        40.9807 
 154   0.0000       1.554343        42.2958 
 155   0.0000       1.556415        42.3522 
 156   0.0000       1.564044        42.5598 
 157   0.0000       1.592044        43.3217 
 158   0.0000       1.597732        43.4765 
 159   0.0000       1.620931        44.1078 
 160   0.0000       1.624532        44.2058 
 161   0.0000       1.636102        44.5206 
 162   0.0000       1.645506        44.7765 
 163   0.0000       1.668634        45.4058 
 164   0.0000       1.703442        46.3530 
 165   0.0000       1.720971        46.8300 
 166   0.0000       1.729600        47.0648 
 167   0.0000       1.734088        47.1869 
 168   0.0000       1.803243        49.0687 
 169   0.0000       1.809610        49.2420 
 170   0.0000       1.883360        51.2488 
 171   0.0000       1.887763        51.3686 
 172   0.0000       1.897850        51.6431 
 173   0.0000       1.898283        51.6549 
 174   0.0000       1.916113        52.1401 
 175   0.0000       1.926783        52.4304 
 176   0.0000       1.938605        52.7521 
 177   0.0000       1.967252        53.5317 
 178   0.0000       1.975327        53.7514 
 179   0.0000       2.001250        54.4568 
 180   0.0000       2.008892        54.6647 
 181   0.0000       2.042960        55.5918 
 182   0.0000       2.052739        55.8579 
 183   0.0000       2.066951        56.2446 
 184   0.0000       2.070551        56.3426 
 185   0.0000       2.093782        56.9747 
 186   0.0000       2.098795        57.1111 
 187   0.0000       2.120891        57.7124 
 188   0.0000       2.148122        58.4534 
 189   0.0000       2.186391        59.4947 
 190   0.0000       2.190441        59.6049 
 191   0.0000       2.219264        60.3892 
 192   0.0000       2.228083        60.6292 
 193   0.0000       2.252413        61.2913 
 194   0.0000       2.268842        61.7383 
 195   0.0000       2.323887        63.2362 
 196   0.0000       2.345583        63.8266 
 197   0.0000       2.402115        65.3649 
 198   0.0000       2.425563        66.0029 
 199   0.0000       2.444073        66.5066 
 200   0.0000       2.448602        66.6298 
 201   0.0000       2.454681        66.7953 
 202   0.0000       2.458066        66.8874 
 203   0.0000       2.464802        67.0707 
 204   0.0000       2.505765        68.1853 
 205   0.0000       2.544680        69.2443 
 206   0.0000       2.549877        69.3857 
 207   0.0000       2.553769        69.4916 
 208   0.0000       2.571078        69.9626 
 209   0.0000       2.585916        70.3664 
 210   0.0000       2.600173        70.7543 
 211   0.0000       2.626232        71.4634 
 212   0.0000       2.635185        71.7070 
 213   0.0000       2.651378        72.1477 
 214   0.0000       2.670740        72.6745 
 215   0.0000       2.693572        73.2958 
 216   0.0000       2.698080        73.4185 
 217   0.0000       2.705130        73.6103 
 218   0.0000       2.734985        74.4227 
 219   0.0000       2.743681        74.6594 
 220   0.0000       2.748165        74.7814 
 221   0.0000       2.767079        75.2961 
 222   0.0000       2.779281        75.6281 
 223   0.0000       2.794690        76.0474 
 224   0.0000       2.821042        76.7645 
 225   0.0000       2.835047        77.1455 
 226   0.0000       2.868083        78.0445 
 227   0.0000       2.885864        78.5283 
 228   0.0000       2.907400        79.1144 
 229   0.0000       2.910783        79.2064 
 230   0.0000       2.924272        79.5735 
 231   0.0000       2.938083        79.9493 
 232   0.0000       2.970170        80.8224 
 233   0.0000       2.985278        81.2335 
 234   0.0000       2.998625        81.5967 
 235   0.0000       3.016718        82.0891 
 236   0.0000       3.031447        82.4899 
 237   0.0000       3.040038        82.7236 
 238   0.0000       3.064396        83.3864 
 239   0.0000       3.069916        83.5367 
 240   0.0000       3.107679        84.5642 
 241   0.0000       3.118525        84.8594 
 242   0.0000       3.127221        85.0960 
 243   0.0000       3.145124        85.5832 
 244   0.0000       3.155755        85.8725 
 245   0.0000       3.172640        86.3319 
 246   0.0000       3.181319        86.5681 
 247   0.0000       3.195878        86.9643 
 248   0.0000       3.201966        87.1299 
 249   0.0000       3.218931        87.5916 
 250   0.0000       3.238599        88.1268 
 251   0.0000       3.239239        88.1442 
 252   0.0000       3.254777        88.5670 
 253   0.0000       3.276205        89.1501 
 254   0.0000       3.305040        89.9347 
 255   0.0000       3.323676        90.4418 
 256   0.0000       3.341578        90.9290 
 257   0.0000       3.344885        91.0189 
 258   0.0000       3.361217        91.4634 
 259   0.0000       3.375595        91.8546 
 260   0.0000       3.392570        92.3165 
 261   0.0000       3.417536        92.9959 
 262   0.0000       3.426191        93.2314 
 263   0.0000       3.436037        93.4993 
 264   0.0000       3.479543        94.6832 
 265   0.0000       3.493623        95.0663 
 266   0.0000       3.531069        96.0853 
 267   0.0000       3.599725        97.9535 
 268   0.0000       3.627969        98.7221 
 269   0.0000       3.637666        98.9859 
 270   0.0000       3.673060        99.9490 
 271   0.0000       3.680725       100.1576 
 272   0.0000       3.714358       101.0728 
 273   0.0000       3.740922       101.7957 
 274   0.0000       3.760059       102.3164 
 275   0.0000       3.775828       102.7455 
 276   0.0000       3.785839       103.0179 
 277   0.0000       3.845345       104.6371 
 278   0.0000       3.899855       106.1204 
 279   0.0000       3.917746       106.6073 
 280   0.0000       3.965584       107.9090 
 281   0.0000       3.975769       108.1862 
 282   0.0000       4.000651       108.8632 
 283   0.0000       4.014766       109.2473 
 284   0.0000       4.024396       109.5094 
 285   0.0000       4.050911       110.2309 
 286   0.0000       4.063130       110.5634 
 287   0.0000       4.120886       112.1350 
 288   0.0000       4.123340       112.2018 
 289   0.0000       4.134950       112.5177 
 290   0.0000       4.161132       113.2302 
 291   0.0000       4.182980       113.8247 
 292   0.0000       4.198972       114.2598 
 293   0.0000       4.208488       114.5188 
 294   0.0000       4.226624       115.0123 
 295   0.0000       4.239003       115.3491 
 296   0.0000       4.362671       118.7143 
 297   0.0000       4.375682       119.0684 
 298   0.0000       4.460718       121.3823 
 299   0.0000       4.473831       121.7391 
 300   0.0000       4.506517       122.6286 
 301   0.0000       4.519106       122.9711 
 302   0.0000       4.564802       124.2146 
 303   0.0000       4.584396       124.7478 
 304   0.0000       4.619694       125.7083 
 305   0.0000       4.633681       126.0889 
 306   0.0000       4.652392       126.5980 
 307   0.0000       4.684357       127.4678 
 308   0.0000       4.705790       128.0511 
 309   0.0000       4.766320       129.6982 
 310   0.0000       4.841437       131.7422 
 311   0.0000       4.871861       132.5701 
 312   0.0000       4.899749       133.3289 
 313   0.0000       4.952325       134.7596 
 314   0.0000       5.023241       136.6893 
 315   0.0000       5.039188       137.1233 
 316   0.0000       5.078103       138.1822 
 317   0.0000       5.092033       138.5613 
 318   0.0000       5.116915       139.2383 
 319   0.0000       5.126336       139.4947 
 320   0.0000       5.169726       140.6754 
 321   0.0000       5.195987       141.3900 
 322   0.0000       5.295563       144.0996 
 323   0.0000       5.319223       144.7434 
 324   0.0000       5.330096       145.0393 
 325   0.0000       5.361947       145.9060 
 326   0.0000       5.395478       146.8184 
 327   0.0000       5.431471       147.7978 
 328   0.0000       5.547949       150.9674 
 329   0.0000       5.577133       151.7615 
 330   0.0000       5.723120       155.7340 
 331   0.0000       5.747957       156.4099 
 332   0.0000       5.960075       162.1819 
 333   0.0000       6.196564       168.6171 
 334   0.0000       6.259716       170.3355 
 335   0.0000       6.303133       171.5170 
 336   0.0000       6.366156       173.2319 
 337   0.0000       6.387622       173.8160 
 338   0.0000       6.429028       174.9427 
 339   0.0000       6.699605       182.3055 
 340   0.0000       6.830364       185.8637 
 341   0.0000       6.854253       186.5137 
 342   0.0000       6.910442       188.0427 
 343   0.0000       7.084309       192.7739 
 344   0.0000       7.250855       197.3058 
 345   0.0000       7.384611       200.9455 
 346   0.0000       7.449095       202.7002 
 347   0.0000       7.476657       203.4502 
 348   0.0000      22.079457       600.8126 
 349   0.0000      22.329028       607.6037 
 350   0.0000      22.502769       612.3315 
 351   0.0000      22.592160       614.7639 
 352   0.0000      22.666309       616.7816 
 353   0.0000      22.847297       621.7066 
 354   0.0000      23.126412       629.3017 
 355   0.0000      32.506604       884.5497 
 356   0.0000      44.019423      1197.8294 
 357   0.0000      44.043274      1198.4784 

                    ********************************
                    * MULLIKEN POPULATION ANALYSIS *
                    ********************************

-----------------------
MULLIKEN ATOMIC CHARGES
-----------------------
   0 C :    0.196535
   1 C :   -0.241729
   2 C :    0.098149
   3 C :   -0.181743
   4 C :   -0.066569
   5 C :   -0.173718
   6 C :   -0.361208
   7 H :    0.159295
   8 H :    0.149051
   9 H :    0.117790
  10 H :    0.120210
  11 H :    0.129632
  12 H :    0.115856
  13 H :    0.125156
  14 N :    0.425046
  15 O :   -0.304733
  16 O :   -0.307020
  17 H :    1.000000
Sum of atomic charges:    1.0000000

--------------------------------
MULLIKEN REDUCED ORBITAL CHARGES
--------------------------------
  0 C s       :     3.155035  s :     3.155035
      pz      :     0.837950  p :     2.514241
      px      :     0.830258
      py      :     0.846032
      dz2     :     0.025353  d :     0.124498
      dxz     :     0.031020
      dyz     :     0.017091
      dx2y2   :     0.024928
      dxy     :     0.026106
      f0      :     0.001194  f :     0.009691
      f+1     :     0.001240
      f-1     :     0.001244
      f+2     :     0.001827
      f-2     :     0.001507
      f+3     :     0.001456
      f-3     :     0.001222
  1 C s       :     3.282522  s :     3.282522
      pz      :     0.928327  p :     2.871049
      px      :     0.988508
      py      :     0.954213
      dz2     :     0.022599  d :     0.080815
      dxz     :     0.015204
      dyz     :     0.012147
      dx2y2   :     0.017201
      dxy     :     0.013665
      f0      :     0.000880  f :     0.007343
      f+1     :     0.000909
      f-1     :     0.001304
      f+2     :     0.001477
      f-2     :     0.001143
      f+3     :     0.000670
      f-3     :     0.000960
  2 C s       :     3.094750  s :     3.094750
      pz      :     0.838058  p :     2.673986
      px      :     0.884422
      py      :     0.951506
      dz2     :     0.024241  d :     0.121388
      dxz     :     0.030116
      dyz     :     0.015272
      dx2y2   :     0.025921
      dxy     :     0.025838
      f0      :     0.001235  f :     0.011727
      f+1     :     0.001825
      f-1     :     0.001857
      f+2     :     0.001999
      f-2     :     0.001936
      f+3     :     0.001441
      f-3     :     0.001434
  3 C s       :     3.260194  s :     3.260194
      pz      :     0.942823  p :     2.833223
      px      :     0.917742
      py      :     0.972658
      dz2     :     0.015894  d :     0.081046
      dxz     :     0.018899
      dyz     :     0.013432
      dx2y2   :     0.016445
      dxy     :     0.016376
      f0      :     0.001187  f :     0.007281
      f+1     :     0.000871
      f-1     :     0.000683
      f+2     :     0.001307
      f-2     :     0.001285
      f+3     :     0.001265
      f-3     :     0.000682
  4 C s       :     3.191786  s :     3.191786
      pz      :     0.916372  p :     2.789880
      px      :     0.943652
      py      :     0.929857
      dz2     :     0.021962  d :     0.077661
      dxz     :     0.013240
      dyz     :     0.013263
      dx2y2   :     0.015477
      dxy     :     0.013718
      f0      :     0.000906  f :     0.007242
      f+1     :     0.000929
      f-1     :     0.001215
      f+2     :     0.001367
      f-2     :     0.001186
      f+3     :     0.000640
      f-3     :     0.000999
  5 C s       :     3.236728  s :     3.236728
      pz      :     0.979028  p :     2.850492
      px      :     0.919499
      py      :     0.951965
      dz2     :     0.012276  d :     0.079320
      dxz     :     0.018938
      dyz     :     0.010681
      dx2y2   :     0.019596
      dxy     :     0.017829
      f0      :     0.000554  f :     0.007179
      f+1     :     0.000882
      f-1     :     0.001138
      f+2     :     0.001110
      f-2     :     0.001251
      f+3     :     0.001164
      f-3     :     0.001082
  6 C s       :     3.319675  s :     3.319675
      pz      :     0.993871  p :     2.989354
      px      :     1.035387
      py      :     0.960096
      dz2     :     0.009328  d :     0.048457
      dxz     :     0.009689
      dyz     :     0.009380
      dx2y2   :     0.012491
      dxy     :     0.007570
      f0      :     0.000086  f :     0.003722
      f+1     :     0.000277
      f-1     :     0.000523
      f+2     :     0.000989
      f-2     :     0.001273
      f+3     :     0.000127
      f-3     :     0.000448
  7 H s       :     0.817928  s :     0.817928
      pz      :     0.008129  p :     0.022777
      px      :     0.004887
      py      :     0.009761
  8 H s       :     0.828382  s :     0.828382
      pz      :     0.004571  p :     0.022567
      px      :     0.013317
      py      :     0.004679
  9 H s       :     0.860767  s :     0.860767
      pz      :     0.008960  p :     0.021443
      px      :     0.007003
      py      :     0.005480
 10 H s       :     0.858781  s :     0.858781
      pz      :     0.005807  p :     0.021009
      px      :     0.010190
      py      :     0.005011
 11 H s       :     0.849286  s :     0.849286
      pz      :     0.006603  p :     0.021082
      px      :     0.005123
      py      :     0.009356
 12 H s       :     0.862091  s :     0.862091
      pz      :     0.009938  p :     0.022053
      px      :     0.006517
      py      :     0.005599
 13 H s       :     0.852602  s :     0.852602
      pz      :     0.004276  p :     0.022242
      px      :     0.012756
      py      :     0.005210
 14 N s       :     3.263074  s :     3.263074
      pz      :     1.063165  p :     3.046820
      px      :     0.923333
      py      :     1.060323
      dz2     :     0.045081  d :     0.250839
      dxz     :     0.072899
      dyz     :     0.021866
      dx2y2   :     0.051509
      dxy     :     0.059484
      f0      :     0.001954  f :     0.014220
      f+1     :     0.001742
      f-1     :     0.001622
      f+2     :     0.002989
      f-2     :     0.001444
      f+3     :     0.001933
      f-3     :     0.002535
 15 O s       :     3.888607  s :     3.888607
      pz      :     1.438744  p :     4.370603
      px      :     1.609660
      py      :     1.322200
      dz2     :     0.008177  d :     0.042258
      dxz     :     0.009490
      dyz     :     0.009919
      dx2y2   :     0.006945
      dxy     :     0.007727
      f0      :     0.000344  f :     0.003264
      f+1     :     0.000510
      f-1     :     0.000407
      f+2     :     0.000506
      f-2     :     0.000830
      f+3     :     0.000367
      f-3     :     0.000300
 16 O s       :     3.882077  s :     3.882077
      pz      :     1.714676  p :     4.379107
      px      :     1.150066
      py      :     1.514365
      dz2     :     0.005356  d :     0.042537
      dxz     :     0.009554
      dyz     :     0.001215
      dx2y2   :     0.014201
      dxy     :     0.012211
      f0      :     0.000342  f :     0.003299
      f+1     :     0.000588
      f-1     :     0.000099
      f+2     :     0.000374
      f-2     :     0.000168
      f+3     :     0.000867
      f-3     :     0.000860
 17 H s       :     0.000000  s :     0.000000
      pz      :     0.000000  p :     0.000000
      px      :     0.000000
      py      :     0.000000


                     *******************************
                     * LOEWDIN POPULATION ANALYSIS *
                     *******************************

----------------------
LOEWDIN ATOMIC CHARGES
----------------------
   0 C :   -0.147483
   1 C :   -0.069616
   2 C :   -0.159467
   3 C :   -0.089111
   4 C :   -0.126028
   5 C :   -0.100640
   6 C :   -0.258685
   7 H :    0.157377
   8 H :    0.159034
   9 H :    0.128174
  10 H :    0.134229
  11 H :    0.136474
  12 H :    0.148211
  13 H :    0.149527
  14 N :   -0.033998
  15 O :   -0.013386
  16 O :   -0.014610
  17 H :    1.000000

-------------------------------
LOEWDIN REDUCED ORBITAL CHARGES
-------------------------------
  0 C s       :     2.725793  s :     2.725793
      pz      :     0.940443  p :     2.859786
      px      :     1.002877
      py      :     0.916466
      dz2     :     0.094422  d :     0.507362
      dxz     :     0.121092
      dyz     :     0.080241
      dx2y2   :     0.109160
      dxy     :     0.102448
      f0      :     0.006772  f :     0.054542
      f+1     :     0.007155
      f-1     :     0.007766
      f+2     :     0.010646
      f-2     :     0.006198
      f+3     :     0.007985
      f-3     :     0.008020
  1 C s       :     2.763893  s :     2.763893
      pz      :     0.965450  p :     2.901821
      px      :     0.981434
      py      :     0.954937
      dz2     :     0.085909  d :     0.362077
      dxz     :     0.067618
      dyz     :     0.070699
      dx2y2   :     0.077609
      dxy     :     0.060242
      f0      :     0.004566  f :     0.041825
      f+1     :     0.006071
      f-1     :     0.006921
      f+2     :     0.008157
      f-2     :     0.006118
      f+3     :     0.004305
      f-3     :     0.005688
  2 C s       :     2.728045  s :     2.728045
      pz      :     0.876198  p :     2.833599
      px      :     0.989954
      py      :     0.967447
      dz2     :     0.096055  d :     0.533046
      dxz     :     0.134315
      dyz     :     0.083644
      dx2y2   :     0.106430
      dxy     :     0.112602
      f0      :     0.007668  f :     0.064778
      f+1     :     0.010635
      f-1     :     0.009621
      f+2     :     0.010911
      f-2     :     0.009234
      f+3     :     0.007444
      f-3     :     0.009265
  3 C s       :     2.774658  s :     2.774658
      pz      :     0.970979  p :     2.913784
      px      :     1.001169
      py      :     0.941636
      dz2     :     0.059510  d :     0.359750
      dxz     :     0.089831
      dyz     :     0.061293
      dx2y2   :     0.074953
      dxy     :     0.074163
      f0      :     0.006477  f :     0.040918
      f+1     :     0.005325
      f-1     :     0.004475
      f+2     :     0.007133
      f-2     :     0.005044
      f+3     :     0.007178
      f-3     :     0.005286
  4 C s       :     2.772227  s :     2.772227
      pz      :     0.989034  p :     2.935364
      px      :     0.974844
      py      :     0.971486
      dz2     :     0.091828  d :     0.376472
      dxz     :     0.064745
      dyz     :     0.077332
      dx2y2   :     0.077168
      dxy     :     0.065399
      f0      :     0.004767  f :     0.041966
      f+1     :     0.005949
      f-1     :     0.007107
      f+2     :     0.008235
      f-2     :     0.006074
      f+3     :     0.004192
      f-3     :     0.005642
  5 C s       :     2.769466  s :     2.769466
      pz      :     0.954037  p :     2.917457
      px      :     0.997799
      py      :     0.965621
      dz2     :     0.055235  d :     0.372665
      dxz     :     0.091281
      dyz     :     0.053232
      dx2y2   :     0.080000
      dxy     :     0.092916
      f0      :     0.003835  f :     0.041052
      f+1     :     0.005031
      f-1     :     0.006113
      f+2     :     0.007260
      f-2     :     0.005306
      f+3     :     0.006166
      f-3     :     0.007342
  6 C s       :     2.822324  s :     2.822324
      pz      :     1.051584  p :     3.151160
      px      :     1.052852
      py      :     1.046724
      dz2     :     0.031762  d :     0.259066
      dxz     :     0.063563
      dyz     :     0.064804
      dx2y2   :     0.051803
      dxy     :     0.047134
      f0      :     0.003820  f :     0.026135
      f+1     :     0.002890
      f-1     :     0.004231
      f+2     :     0.003621
      f-2     :     0.003785
      f+3     :     0.002858
      f-3     :     0.004930
  7 H s       :     0.781593  s :     0.781593
      pz      :     0.021451  p :     0.061030
      px      :     0.013913
      py      :     0.025667
  8 H s       :     0.780331  s :     0.780331
      pz      :     0.013088  p :     0.060635
      px      :     0.034116
      py      :     0.013430
  9 H s       :     0.812867  s :     0.812867
      pz      :     0.023550  p :     0.058959
      px      :     0.020861
      py      :     0.014549
 10 H s       :     0.807860  s :     0.807860
      pz      :     0.015903  p :     0.057911
      px      :     0.027125
      py      :     0.014883
 11 H s       :     0.805303  s :     0.805303
      pz      :     0.019691  p :     0.058222
      px      :     0.014270
      py      :     0.024261
 12 H s       :     0.794148  s :     0.794148
      pz      :     0.025176  p :     0.057641
      px      :     0.017281
      py      :     0.015184
 13 H s       :     0.792940  s :     0.792940
      pz      :     0.012061  p :     0.057534
      px      :     0.031320
      py      :     0.014153
 14 N s       :     2.926476  s :     2.926476
      pz      :     1.102893  p :     3.271734
      px      :     1.111193
      py      :     1.057648
      dz2     :     0.131947  d :     0.764282
      dxz     :     0.210026
      dyz     :     0.079054
      dx2y2   :     0.162114
      dxy     :     0.181141
      f0      :     0.010686  f :     0.071505
      f+1     :     0.009252
      f-1     :     0.007824
      f+2     :     0.014729
      f-2     :     0.007085
      f+3     :     0.008068
      f-3     :     0.013863
 15 O s       :     3.495781  s :     3.495781
      pz      :     1.458564  p :     4.406193
      px      :     1.595233
      py      :     1.352396
      dz2     :     0.016679  d :     0.100217
      dxz     :     0.022781
      dyz     :     0.026158
      dx2y2   :     0.014604
      dxy     :     0.019995
      f0      :     0.001160  f :     0.011194
      f+1     :     0.001460
      f-1     :     0.001641
      f+2     :     0.001629
      f-2     :     0.003097
      f+3     :     0.001146
      f-3     :     0.001061
 16 O s       :     3.491633  s :     3.491633
      pz      :     1.626007  p :     4.410299
      px      :     1.313448
      py      :     1.470844
      dz2     :     0.013563  d :     0.101280
      dxz     :     0.022452
      dyz     :     0.002204
      dx2y2   :     0.036460
      dxy     :     0.026601
      f0      :     0.001106  f :     0.011398
      f+1     :     0.002056
      f-1     :     0.000297
      f+2     :     0.001416
      f-2     :     0.000500
      f+3     :     0.003044
      f-3     :     0.002979
 17 H s       :     0.000000  s :     0.000000
      pz      :     0.000000  p :     0.000000
      px      :     0.000000
      py      :     0.000000


                      *****************************
                      * MAYER POPULATION ANALYSIS *
                      *****************************

  NA   - Mulliken gross atomic population
  ZA   - Total nuclear charge
  QA   - Mulliken gross atomic charge
  VA   - Mayer's total valence
  BVA  - Mayer's bonded valence
  FA   - Mayer's free valence

  ATOM       NA         ZA         QA         VA         BVA        FA
  0 C      5.8035     6.0000     0.1965     3.6150     3.6150     0.0000
  1 C      6.2417     6.0000    -0.2417     3.9899     3.9899     0.0000
  2 C      5.9019     6.0000     0.0981     3.8718     3.8718     0.0000
  3 C      6.1817     6.0000    -0.1817     3.9947     3.9947     0.0000
  4 C      6.0666     6.0000    -0.0666     3.8664     3.8664     0.0000
  5 C      6.1737     6.0000    -0.1737     3.9724     3.9724    -0.0000
  6 C      6.3612     6.0000    -0.3612     3.8628     3.8628    -0.0000
  7 H      0.8407     1.0000     0.1593     0.9898     0.9898    -0.0000
  8 H      0.8509     1.0000     0.1491     0.9979     0.9979     0.0000
  9 H      0.8822     1.0000     0.1178     0.9760     0.9760     0.0000
 10 H      0.8798     1.0000     0.1202     0.9586     0.9586    -0.0000
 11 H      0.8704     1.0000     0.1296     0.9598     0.9598    -0.0000
 12 H      0.8841     1.0000     0.1159     0.9728     0.9728     0.0000
 13 H      0.8748     1.0000     0.1252     0.9689     0.9689    -0.0000
 14 N      6.5750     7.0000     0.4250     4.2013     4.2013    -0.0000
 15 O      8.3047     8.0000    -0.3047     1.9373     1.9373    -0.0000
 16 O      8.3070     8.0000    -0.3070     1.9410     1.9410    -0.0000
 17 H      0.0000     1.0000     1.0000     0.0000     0.0000     0.0000

  Mayer bond orders larger than 0.100000
B(  0-C ,  1-C ) :   1.3290 B(  0-C ,  5-C ) :   1.3801 B(  0-C ,  6-C ) :   0.9159 
B(  1-C ,  2-C ) :   1.4524 B(  1-C ,  8-H ) :   0.9367 B(  2-C ,  3-C ) :   1.3918 
B(  2-C , 14-N ) :   0.9618 B(  3-C ,  4-C ) :   1.3970 B(  3-C ,  7-H ) :   0.9307 
B(  4-C ,  5-C ) :   1.4224 B(  4-C , 13-H ) :   0.9677 B(  5-C , 12-H ) :   0.9592 
B(  6-C ,  9-H ) :   0.9873 B(  6-C , 10-H ) :   0.9635 B(  6-C , 11-H ) :   0.9671 
B( 14-N , 15-O ) :   1.6108 B( 14-N , 16-O ) :   1.6141 B( 15-O , 16-O ) :   0.2104 


-------
TIMINGS
-------

Total SCF time: 0 days 0 hours 16 min 14 sec 

Total time                  ....     974.001 sec
Sum of individual times     ....     971.232 sec  ( 99.7%)

Fock matrix formation       ....     951.876 sec  ( 97.7%)
  Split-RI-J                ....      71.000 sec  (  7.5% of F)
  Chain of spheres X        ....     749.583 sec  ( 78.7% of F)
  XC integration            ....     130.653 sec  ( 13.7% of F)
[...]
Rotationally invariant grid construction     ... off

Total number of grid points                  ...    24177
Total number of batches                      ...      386
Average number of points per batch           ...       62
Average number of grid points per atom       ...     1343
UseSFitting                                  ... on

GRIDX 3
-------
General Integration Accuracy     IntAcc      ... 4.338
Radial Grid Type                 RadialGrid  ... OptM3 with GC (2021)
Angular Grid (max. ang.)         AngularGrid ... 3 (Lebedev-194)
Angular grid pruning method      GridPruning ... 4 (adaptive)
Weight generation scheme         WeightScheme... Becke
Basis function cutoff            BFCut       ... 1.0000e-11
Integration weight cutoff        WCut        ... 1.0000e-14
Angular grids for H and He will be reduced by one unit
Partially contracted basis set               ... on
Rotationally invariant grid construction     ... off

Total number of grid points                  ...    53243
Total number of batches                      ...      843
Average number of points per batch           ...       63
Average number of grid points per atom       ...     2958
UseSFitting                                  ... on

Time for X-Grid setup             =    3.837 sec

--------------
SCF ITERATIONS
--------------
ITER       Energy         Delta-E        Max-DP      RMS-DP      [F,P]     Damp
               ***  Starting incremental Fock matrix formation  ***
                      *** Initiating the SOSCF procedure ***
                      *** Re-Reading the Fockian *** 
                      *** Removing any level shift *** 
ITER      Energy       Delta-E        Grad      Rot      Max-DP    RMS-DP
  0   -476.10959104 -476.1095910424  0.000370  0.000370  0.000740  0.000016
               *** Restarting incremental Fock matrix formation ***
  1   -476.10960880  -0.0000177572  0.000149  0.000927  0.000421  0.000008
  2   -476.10960983  -0.0000010336  0.000522  0.004600  0.001992  0.000024
  3   -476.10958278   0.0000270550  0.002209  0.003794  0.001641  0.000021
  4   -476.10961039  -0.0000276097  0.000285  0.001193  0.000741  0.000013
  5   -476.10960584   0.0000045441  0.000876  0.000903  0.000551  0.000010
  6   -476.10961090  -0.0000050569  0.000028  0.000184  0.000057  0.000001
  7   -476.10961082   0.0000000857  0.000062  0.000135  0.000039  0.000001
  8   -476.10961092  -0.0000001069  0.000004  0.000043  0.000026  0.000001
  9   -476.10961092   0.0000000024  0.000006  0.000010  0.000037  0.000001
                  ***Gradient check signals convergence***
              ***Rediagonalizing the Fockian in SOSCF/NRSCF***

               *****************************************************
               *                     SUCCESS                       *
               *           SCF CONVERGED AFTER  10 CYCLES          *
               *****************************************************

Old exchange energy                            =    -12.313314100 Eh
New exchange energy                            =    -12.313317036 Eh
Exchange energy change after final integration =     -0.000002937 Eh
Total energy after final integration           =   -476.109613862 Eh
Final COS-X integration done in                =    77.828 sec
Total Energy       :         -476.10961386 Eh          -12955.60124 eV
  Last Energy change         ...   -6.0833e-09  Tolerance :   1.0000e-08
  Last MAX-Density change    ...    1.9984e-15  Tolerance :   1.0000e-07
             **** THE GBW FILE WAS UPDATED (meta_products_optfreq.gbw) ****
             **** DENSITY meta_products_optfreq.scfp WAS UPDATED ****
             **** ENERGY FILE WAS UPDATED (meta_products_optfreq.en.tmp) ****
             **** THE GBW FILE WAS UPDATED (meta_products_optfreq.gbw) ****
             **** DENSITY meta_products_optfreq.scfp WAS UPDATED ****
Total SCF time: 0 days 0 hours 8 min 14 sec 

Maximum memory used throughout the entire SCF-calculation: 204.2 MB


-------------------------------------------------------------------------------
                          DFT DISPERSION CORRECTION                            
                                                                               
                                 DFTD4 V2.5                                    
-------------------------------------------------------------------------------
Starting D4
-------------------------   ----------------
Dispersion correction           -0.026575070
-------------------------   ----------------


-------------------------   --------------------
FINAL SINGLE POINT ENERGY      -476.136188932460
-------------------------   --------------------

------------------------------------------------------------------------------
                         ORCA SCF GRADIENT CALCULATION
------------------------------------------------------------------------------

 ... reading COSX grid (gridx3)
Gradient of the Kohn-Sham DFT energy:
Kohn-Sham wavefunction type      ... RKS
Hartree-Fock exchange scaling    ...    0.200
Number of operators              ...    1
Number of atoms                  ...   18
Basis set dimensions             ...  358
Integral neglect threshold       ... 2.5e-11
Integral primitive cutoff        ... 2.5e-12
SHARK Integral package           ... ON

Nuc. rep. gradient       (SHARK) ... done (  0.0 sec)
HCore & Overlap gradient (SHARK) ... done (  2.1 sec)
RI-J gradient            (SHARK) ... done ( 15.9 sec)
COSX-gradient                    ... done (123.8 sec)
Exchange-correlation gradient    ... done
Dispersion correction            ... Starting D4


------------------- 
Dispersion Gradient 
------------------- 
   1  :    0.000086613    0.000402337    0.000252250
   2  :   -0.000257977    0.000170239    0.000127693
   3  :   -0.000220348   -0.000293792   -0.000169096
   4  :    0.000367365   -0.000289411   -0.000224389
   5  :    0.000620200   -0.000123620   -0.000142991
   6  :    0.000477565    0.000124660    0.000040484
   7  :   -0.000093900    0.000547317    0.000351750
   8  :    0.000083220   -0.000159499   -0.000110863
   9  :   -0.000222488    0.000052960    0.000051992
  10  :    0.000004501    0.000130367    0.000091164
  11  :   -0.000041034    0.000116826    0.000123105
  12  :   -0.000040126    0.000167980    0.000051085
  13  :    0.000188959    0.000073031    0.000032163
  14  :    0.000173752   -0.000045612   -0.000046076
  15  :   -0.000443888   -0.000346281   -0.000172765
  16  :   -0.000205617   -0.000408291   -0.000180745
  17  :   -0.000477284   -0.000119311   -0.000074531
  18  :    0.000000489    0.000000102   -0.000000232

  |G| =    0.001587416

done

------------------
CARTESIAN GRADIENT
------------------

   1   C   :   -0.000005652   -0.000017117    0.000003217
   2   C   :    0.000022442   -0.000003769    0.000019540
   3   C   :    0.000020218    0.000016300   -0.000001541
   4   C   :    0.000019736    0.000013338    0.000000987
   5   C   :   -0.000012524   -0.000016786   -0.000006069
   6   C   :   -0.000011871    0.000012528    0.000005469
   7   C   :   -0.000006085   -0.000004584    0.000005271
   8   H   :    0.000005272    0.000008780    0.000002467
   9   H   :    0.000002530    0.000011245    0.000006115
  10   H   :    0.000008979   -0.000004931    0.000019235
  11   H   :   -0.000046648    0.000001921    0.000047449
  12   H   :    0.000014085    0.000009177    0.000007728
  13   H   :    0.000009682    0.000001247    0.000008183
  14   H   :    0.000006040    0.000000633    0.000002080
  15   N   :    0.000001477    0.000004487    0.000017218
  16   O   :    0.000001432    0.000008317   -0.000004856
  17   O   :    0.000003469    0.000008461   -0.000009600
  18   H   :    0.000068223    0.000016421   -0.000028663

Difference to translation invariance:
           :    0.0001008040    0.0000656678    0.0000942281

Difference to rotation invariance:
           :    0.0007811341    0.0003942369   -0.0009176779

Norm of the cartesian gradient     ...    0.0001242467
RMS gradient                       ...    0.0000169078
MAX gradient                       ...    0.0000682230

-------
TIMINGS
-------

Total SCF gradient time            ...      171.370 sec

One electron gradient       ....       2.116 sec  (  1.2%)
RI-J Coulomb gradient       ....      15.887 sec  (  9.3%)
COSX gradient               ....     123.815 sec  ( 72.3%)
XC gradient                 ....      25.139 sec  ( 14.7%)

Maximum memory used throughout the entire SCFGRAD-calculation: 171.2 MB
------------------------------------------------------------------------------
                         ORCA GEOMETRY RELAXATION STEP
------------------------------------------------------------------------------

Reading the OPT-File                    .... done
Getting information on internals        .... done
Copying old internal coords+grads       .... done
Making the new internal coordinates     .... (new redundants).... done
Validating the new internal coordinates .... (new redundants).... done
Calculating the B-matrix                .... done
Calculating the G,G- and P matrices     .... done
Transforming gradient to internals      .... done
Projecting the internal gradient        .... done
Number of atoms                         ....  18
Number of internal coordinates          ....  83
Current Energy                          ....  -476.136188932 Eh
Current gradient norm                   ....     0.000124247 Eh/bohr
Maximum allowed component of the step   ....  0.300
Current trust radius                    ....  0.300
Updating the Hessian (BFGS)             .... done
Forming the augmented Hessian           .... done
Diagonalizing the augmented Hessian     .... done
Last element of RFO vector              ....  0.715534007
Lowest eigenvalues of augmented Hessian:
 -0.000071127  0.000005324  0.000075151  0.012452898  0.018544802
Length of the computed step             ....  0.976302867
Warning: the length of the step is outside the trust region - taking restricted step instead
The input lambda is                     ....    -0.000071
   iter:   1  x=   -0.000105  g=25652.818513 f(x)=     0.863167
   iter:   2  x=   -0.000148  g= 8357.127260 f(x)=     0.362167
   iter:   3  x=   -0.000194  g= 3040.756675 f(x)=     0.140658
   iter:   4  x=   -0.000228  g= 1368.077481 f(x)=     0.045485
   iter:   5  x=   -0.000238  g=  858.759968 f(x)=     0.009341
   iter:   6  x=   -0.000239  g=  748.154244 f(x)=     0.000620
   iter:   7  x=   -0.000239  g=  740.522022 f(x)=     0.000003
   iter:   8  x=   -0.000239  g=  740.482613 f(x)=     0.000000
   iter:   9  x=   -0.000239  g=  740.482611 f(x)=     0.000000
The output lambda is                    ....    -0.000239 (9 iterations)
The final length of the internal step   ....  0.300000000
Converting the step to cartesian space:
 Initial RMS(Int)=    0.0329292780
Transforming coordinates:
 Iter   0:  RMS(Cart)=    0.0259864043 RMS(Int)=    0.0219954606
 Iter   1:  RMS(Cart)=    0.0130958981 RMS(Int)=    0.0109484275
 Iter   2:  RMS(Cart)=    0.0000072358 RMS(Int)=    0.0000011346
 Iter   3:  RMS(Cart)=    0.0000000352 RMS(Int)=    0.0000000076
done
Storing new coordinates                 .... done

                                .--------------------.
          ----------------------|Geometry convergence|-------------------------
          Item                value                   Tolerance       Converged
          ---------------------------------------------------------------------
          Energy change      -0.0000234930            0.0000050000      NO
          RMS gradient        0.0000102662            0.0001000000      YES
          MAX gradient        0.0000728043            0.0003000000      YES
          RMS step            0.0329292780            0.0020000000      NO
          MAX step            0.2997433652            0.0040000000      NO
          ........................................................
          Max(Bonds)      0.1586      Max(Angles)    0.13
          Max(Dihed)        0.30      Max(Improp)    0.00
          ---------------------------------------------------------------------

The optimization has not yet converged - more geometry cycles are needed


    ---------------------------------------------------------------------------
                         Redundant Internal Coordinates
                            (Angstroem and degrees)

        Definition                    Value    dE/dq     Step     New-Value
    ----------------------------------------------------------------------------
     1. B(C   1,C   0)                1.4228 -0.000014  0.0001    1.4228   
     2. B(C   2,C   1)                1.3678  0.000005  0.0000    1.3678   
     3. B(C   3,C   2)                1.3998 -0.000003 -0.0000    1.3998   
     4. B(C   4,C   3)                1.4061 -0.000029  0.0000    1.4061   
     5. B(C   5,C   4)                1.3762  0.000010  0.0000    1.3762   
     6. B(C   5,C   0)                1.4155 -0.000007 -0.0000    1.4155   
     7. B(C   6,C   0)                1.4797  0.000016 -0.0000    1.4797   
     8. B(H   7,C   3)                1.0808 -0.000003  0.0000    1.0808   
     9. B(H   8,C   1)                1.0813  0.000005  0.0000    1.0813   
    10. B(H   9,C   6)                1.0876  0.000002 -0.0000    1.0875   
    11. B(H  10,C   6)                1.0953 -0.000003  0.0001    1.0954   
    12. B(H  11,C   6)                1.1000  0.000004 -0.0000    1.1000   
    13. B(H  12,C   5)                1.0820  0.000003 -0.0000    1.0820   
    14. B(H  13,C   4)                1.0813  0.000002  0.0000    1.0813   
    15. B(N  14,C   2)                1.4812  0.000006  0.0000    1.4813   
    16. B(O  15,N  14)                1.2187  0.000001  0.0000    1.2188   
    17. B(O  16,N  14)                1.2140 -0.000001  0.0000    1.2140   
    18. B(H  17,H  10)               19.8103 -0.000073  0.1586   19.9689   
    19. A(C   1,C   0,C   5)          118.73 -0.000008    0.00    118.73   
    20. A(C   1,C   0,C   6)          119.75  0.000019   -0.00    119.75   
    21. A(C   5,C   0,C   6)          121.51 -0.000011    0.00    121.51   
    22. A(C   0,C   1,C   2)          119.21 -0.000002    0.00    119.21   
    23. A(C   2,C   1,H   8)          119.93  0.000005   -0.00    119.93   
    24. A(C   0,C   1,H   8)          120.86 -0.000003    0.00    120.86   
    25. A(C   3,C   2,N  14)          118.57 -0.000008    0.00    118.58   
    26. A(C   1,C   2,N  14)          119.21  0.000001   -0.00    119.21   
    27. A(C   1,C   2,C   3)          122.20  0.000007   -0.00    122.20   
    28. A(C   2,C   3,C   4)          118.83 -0.000005    0.00    118.83   
    29. A(C   4,C   3,H   7)          121.67  0.000000   -0.00    121.66   
    30. A(C   2,C   3,H   7)          119.50  0.000005   -0.00    119.50   
    31. A(C   3,C   4,H  13)          119.33 -0.000002   -0.00    119.33   
    32. A(C   5,C   4,H  13)          120.59  0.000002   -0.00    120.58   
    33. A(C   3,C   4,C   5)          120.08 -0.000000    0.00    120.08   
    34. A(C   0,C   5,C   4)          120.94  0.000007   -0.00    120.94   
    35. A(C   4,C   5,H  12)          120.18 -0.000005    0.00    120.18   
    36. A(C   0,C   5,H  12)          118.88 -0.000003    0.00    118.88   
    37. A(H   9,C   6,H  10)          109.81 -0.000010   -0.01    109.80   
    38. A(C   0,C   6,H  10)          111.03  0.000013   -0.01    111.02   
    39. A(C   0,C   6,H   9)          112.57 -0.000002    0.00    112.57   
    40. A(H  10,C   6,H  11)          105.14  0.000002   -0.01    105.13   
    41. A(H   9,C   6,H  11)          108.19  0.000001    0.02    108.22   
    42. A(C   0,C   6,H  11)          109.79 -0.000003    0.01    109.80   
    43. A(C   6,H  10,H  17)          153.63 -0.000012   -0.13    153.50   
    44. A(O  15,N  14,O  16)          126.29 -0.000005    0.00    126.29   
    45. A(C   2,N  14,O  16)          117.36  0.000006   -0.00    117.35   
    46. A(C   2,N  14,O  15)          116.36 -0.000001    0.00    116.36   
    47. D(C   2,C   1,C   0,C   5)      0.28 -0.000002   -0.01      0.27   
    48. D(C   2,C   1,C   0,C   6)    179.21 -0.000005    0.01    179.22   
    49. D(H   8,C   1,C   0,C   6)     -0.34  0.000000    0.01     -0.33   
    50. D(H   8,C   1,C   0,C   5)   -179.27  0.000003   -0.01   -179.28   
    51. D(C   3,C   2,C   1,C   0)     -0.43  0.000003    0.00     -0.43   
    52. D(C   3,C   2,C   1,H   8)    179.12 -0.000002    0.00    179.12   
    53. D(N  14,C   2,C   1,H   8)     -2.26 -0.000002    0.01     -2.25   
    54. D(N  14,C   2,C   1,C   0)    178.19  0.000003    0.01    178.20   
    55. D(H   7,C   3,C   2,N  14)      1.63 -0.000002   -0.00      1.62   
    56. D(H   7,C   3,C   2,C   1)   -179.74 -0.000001    0.00   -179.74   
    57. D(C   4,C   3,C   2,N  14)   -178.45 -0.000002   -0.00   -178.45   
    58. D(C   4,C   3,C   2,C   1)      0.18 -0.000002    0.00      0.18   
    59. D(C   5,C   4,C   3,H   7)   -179.85 -0.000001   -0.00   -179.85   
    60. D(H  13,C   4,C   3,C   2)   -179.87  0.000001   -0.00   -179.87   
    61. D(C   5,C   4,C   3,C   2)      0.23 -0.000001   -0.00      0.23   
    62. D(H  13,C   4,C   3,H   7)      0.06  0.000000    0.00      0.06   
    63. D(H  12,C   5,C   4,H  13)     -0.27  0.000000    0.00     -0.27   
    64. D(C   0,C   5,C   4,H  13)    179.72  0.000000   -0.00    179.72   
    65. D(C   0,C   5,C   4,C   3)     -0.37  0.000002   -0.00     -0.38   
    66. D(H  12,C   5,C   0,C   6)      1.20  0.000002   -0.01      1.19   
    67. D(H  12,C   5,C   0,C   1)   -179.89 -0.000001    0.00   -179.88   
    68. D(H  12,C   5,C   4,C   3)    179.63  0.000002    0.00    179.64   
    69. D(C   4,C   5,C   0,C   6)   -178.79  0.000002   -0.01   -178.80   
    70. D(C   4,C   5,C   0,C   1)      0.12 -0.000001    0.01      0.13   
    71. D(H  11,C   6,C   0,C   5)    111.20 -0.000008    0.30    111.50   
    72. D(H  11,C   6,C   0,C   1)    -67.70 -0.000005    0.28    -67.42   
    73. D(H  10,C   6,C   0,C   5)   -132.97  0.000001    0.29   -132.68   
    74. D(H  10,C   6,C   0,C   1)     48.13  0.000004    0.27     48.40   
    75. D(H   9,C   6,C   0,C   5)     -9.39 -0.000005    0.26     -9.13   
    76. D(H   9,C   6,C   0,C   1)    171.71 -0.000002    0.24    171.95   
    77. D(H  17,H  10,C   6,C   0)    -68.33  0.000002   -0.06    -68.39   
    78. D(H  17,H  10,C   6,H  11)     50.34  0.000006   -0.06     50.28   
    79. D(H  17,H  10,C   6,H   9)    166.52  0.000003   -0.04    166.48   
    80. D(O  16,N  14,C   2,C   3)   -169.49  0.000011   -0.08   -169.57   
    81. D(O  16,N  14,C   2,C   1)     11.84  0.000011   -0.08     11.76   
    82. D(O  15,N  14,C   2,C   3)     11.15 -0.000003   -0.07     11.08   
    83. D(O  15,N  14,C   2,C   1)   -167.52 -0.000004   -0.08   -167.60   
    ----------------------------------------------------------------------------




    ----------------------------------------------------------------------------
                                   ERROR !!!
       The optimization did not converge but reached the maximum 
       number of optimization cycles.
       As a subsequent Frequencies calculation has been requested
       ORCA will abort at this point of the run.
       Please restart the calculation with the lowest energy geometry and/or
       a larger maxiter for the geometry optimization.
    ----------------------------------------------------------------------------


[file orca_main/run.cpp, line 12331]: ORCA finished with error return - aborting the run
