23
# ORCA AIMD Position Step 0, t=0.00 fs, E_Pot=-752.53077528 Hartree, Unit is Angstrom
Al     -1.6984300076      0.3003900013     -0.5266000024
 O     -1.7543400079      2.2886000102     -0.1676800008
 H     -1.0607400048      2.9665800133     -0.3942600018
 H     -2.5740200115      2.8600400128     -0.1906700009
 O      0.1891400008      0.0113700001     -1.0916200049
 H      0.7475700033      0.5363300024     -1.7212200077
 H      0.8191000037     -0.6828400031     -0.7649500034
 O     -4.1602800186      0.3334000015      0.2120700009
 H     -4.8886300219     -0.2386000011     -0.1391800006
 H     -4.4142200198      0.3696100017      1.1712400052
 O     -1.8995300085     -1.6332000073     -0.9887500044
 H     -1.1891700053     -2.3083000103     -0.8460100038
 H     -2.7211300122     -2.1820000098     -0.8839000040
 O     -2.2771700102      0.4199600019     -2.3904300107
 H     -1.9536900087     -0.2686400012     -3.0230300135
 H     -2.5548900114      1.1841200053     -2.9572200132
 O     -1.2983300058      0.1981200009      1.3293500060
 H     -0.8899900040      0.9723800044      1.7930800080
 H     -1.0686600048     -0.6004800027      1.8689100084
 N     -7.7530700347      0.2176900010      1.5728400070
 H     -7.3624800330     -0.2190000010      2.4077900108
 H     -8.2354600369      1.0779200048      1.8330600082
 H     -8.4134800377     -0.4223400019      1.1316800051
23
# ORCA AIMD Position Step 1, t=1.00 fs, E_Pot=-752.52127096 Hartree, Unit is Angstrom
Al     -1.6942546511      0.2996467333     -0.5245085146
 O     -1.7567517296      2.3023385045     -0.1533894645
 H     -1.0314910390      2.9657434670     -0.3916188648
 H     -2.5369086090      2.8256339353     -0.1657031136
 O      0.1815413060      0.0165009087     -1.0957332475
 H      0.7219952002      0.5599435154     -1.7323046398
 H      0.8305976595     -0.7012570987     -0.7755445747
 O     -4.1551417925      0.3285564839      0.2107388994
 H     -4.9218594888     -0.2272184019     -0.1385929165
 H     -4.4051883910      0.3180756465      1.1593838274
 O     -1.8965810770     -1.6360986354     -0.9956428217
 H     -1.1831375133     -2.3279548368     -0.8378511917
 H     -2.6862166010     -2.1970175621     -0.8783797267
 O     -2.2865903564      0.4186150153     -2.3942855678
 H     -1.9528730324     -0.2739592028     -2.9990159414
 H     -2.5393903823      1.1669191206     -2.9597953021
 O     -1.2974620320      0.1955864452      1.3297675179
 H     -0.8988333786      0.9924012996      1.7545661288
 H     -1.0765857924     -0.5521971656      1.9022943487
 N     -7.7502903785      0.2157628133      1.5698284940
 H     -7.3981439488     -0.2427423253      2.3950389397
 H     -8.2587565050      1.0724208288      1.8353781726
 H     -8.4072198991     -0.4023874095      1.1268924115
23
# ORCA AIMD Position Step 2, t=2.00 fs, E_Pot=-752.51556302 Hartree, Unit is Angstrom
Al     -1.6906396560      0.2988950737     -0.5226429482
 O     -1.7571978214      2.3145943517     -0.1398081857
 H     -0.9990850103      2.9623893904     -0.3874469854
 H     -2.5330148567      2.8053522831     -0.1379771379
 O      0.1739753941      0.0214369818     -1.0994885286
 H      0.6968198222      0.5879924394     -1.7473441750
 H      0.8379757572     -0.7169758292     -0.7848155741
 O     -4.1493508248      0.3233387334      0.2087922913
 H     -4.9555404632     -0.2135407239     -0.1459454100
 H     -4.3950374712      0.2727584975      1.1615964618
 O     -1.8929040662     -1.6387230611     -1.0018321923
 H     -1.1706198361     -2.3456616072     -0.8325851160
 H     -2.6701038774     -2.2141162389     -0.8741325556
 O     -2.2953941142      0.4173499986     -2.3970906056
 H     -1.9504481333     -0.2912847852     -2.9804096261
 H     -2.5318151823      1.1636267416     -2.9674936534
 O     -1.2965428465      0.1934070102      1.3293801878
 H     -0.9079077541      1.0220416456      1.7199419432
 H     -1.0845369136     -0.5205604093      1.9447779749
 N     -7.7472579796      0.2144041409      1.5667377264
 H     -7.4294677007     -0.2700049372      2.3925445156
 H     -8.2800171747      1.0698774711      1.8371994576
 H     -8.4080814565     -0.3902188705      1.1136943324
23
# ORCA AIMD Position Step 3, t=3.00 fs, E_Pot=-752.52184725 Hartree, Unit is Angstrom
Al     -1.6876180794      0.2981090076     -0.5210102334
 O     -1.7546122382      2.3249321316     -0.1270026134
 H     -0.9707166302      2.9546214464     -0.3802163973
 H     -2.5718408958      2.8076438165     -0.1075800842
 O      0.1667689275      0.0260579511     -1.1029308532
 H      0.6709884969      0.6168611042     -1.7630651873
 H      0.8374281433     -0.7240936408     -0.7957873572
 O     -4.1433270712      0.3175264715      0.2061940083
 H     -4.9839270282     -0.1935960143     -0.1591889817
 H     -4.3827228460      0.2332174457      1.1766840187
 O     -1.8881988937     -1.6413822483     -1.0072845256
 H     -1.1554410272     -2.3566267968     -0.8311918870
 H     -2.6736310240     -2.2330360969     -0.8710517511
 O     -2.3035226173      0.4160281838     -2.3987526168
 H     -1.9472976210     -0.3191820158     -2.9669408130
 H     -2.5321096609      1.1745836744     -2.9816929131
 O     -1.2955019051      0.1918453976      1.3282376553
 H     -0.9184737951      1.0581351531      1.6880578958
 H     -1.0924161628     -0.5055655501      1.9969340720
 N     -7.7441568971      0.2138226377      1.5636501690
 H     -7.4564517921     -0.3000811942      2.4006038948
 H     -8.2963013095      1.0672099162      1.8382924440
 H     -8.4163934080     -0.3864951556      1.0906270709
23
# ORCA AIMD Position Step 4, t=4.00 fs, E_Pot=-752.52463938 Hartree, Unit is Angstrom
Al     -1.6852261136      0.2972736749     -0.5196213566
 O     -1.7498538987      2.3338352335     -0.1149908455
 H     -0.9517428395      2.9428547107     -0.3692149202
 H     -2.6342802105      2.8235946176     -0.0751516973
 O      0.1601116742      0.0304270581     -1.1061984653
 H      0.6434932158      0.6426979355     -1.7760679503
 H      0.8277662719     -0.7197155554     -0.8099261086
 O     -4.1374426603      0.3110123157      0.2032772143
 H     -5.0027318784     -0.1649814630     -0.1758548276
 H     -4.3667246785      0.1990916409      1.1972653768
 O     -1.8826650253     -1.6445164693     -1.0119226147
 H     -1.1410876722     -2.3578838580     -0.8342506255
 H     -2.6903015300     -2.2494325472     -0.8699166145
 O     -2.3109308313      0.4146819978     -2.3996234456
 H     -1.9461482831     -0.3518588198     -2.9558353038
 H     -2.5378681383      1.1931959352     -2.9991189503
 O     -1.2941211443      0.1908294751      1.3268384602
 H     -0.9324607412      1.0946226498      1.6574622774
 H     -1.1019031522     -0.4992045345      2.0524287793
 N     -7.7412707394      0.2137048406      1.5607178631
 H     -7.4810135993     -0.3298576011      2.4147403942
 H     -8.3057043227      1.0623635425      1.8386490996
 H     -8.4281560826     -0.3879197117      1.0599983825
23
# ORCA AIMD Position Step 5, t=5.00 fs, E_Pot=-752.51866843 Hartree, Unit is Angstrom
Al     -1.6834944841      0.2963818541     -0.5184851948
 O     -1.7444876283      2.3419049481     -0.1036495936
 H     -0.9440740919      2.9296412401     -0.3547151576
 H     -2.6934222282      2.8404470807     -0.0423069597
 O      0.1539800078      0.0347488323     -1.1094582243
 H      0.6140219384      0.6626996973     -1.7840732411
 H      0.8104684774     -0.7042333769     -0.8272053715
 O     -4.1318880841      0.3037802815      0.2004812856
 H     -5.0099949102     -0.1271163174     -0.1937814742
 H     -4.3460475752      0.1702344710      1.2145358127
 O     -1.8767482342     -1.6484817273     -1.0156918513
 H     -1.1297616310     -2.3488912423     -0.8417727279
 H     -2.7109142037     -2.2579716378     -0.8717895492
 O     -2.3176074542      0.4134277398     -2.4001913592
 H     -1.9500608203     -0.3824007158     -2.9440153377
 H     -2.5459798043      1.2103999067     -3.0146724636
 O     -1.2922083128      0.1901772534      1.3257888639
 H     -0.9513879543      1.1255910180      1.6273383617
 H     -1.1147373776     -0.4919830525      2.1024993757
 N     -7.7388865349      0.2134539471      1.5580584952
 H     -7.5054714127     -0.3554308026      2.4285920657
 H     -8.3077740809      1.0548246662      1.8385296845
 H     -8.4375249033     -0.3895801115      1.0261917787
23
# ORCA AIMD Position Step 6, t=6.00 fs, E_Pot=-752.51235779 Hartree, Unit is Angstrom
Al     -1.6824493804      0.2954266590     -0.5176070941
 O     -1.7397000076      2.3493381849     -0.0927655389
 H     -0.9460732961      2.9189960438     -0.3378022417
 H     -2.7318076329      2.8507719704     -0.0107408936
 O      0.1481091685      0.0393415981     -1.1128650665
 H      0.5831685531      0.6757729965     -1.7865115702
 H      0.7896369461     -0.6813675412     -0.8462276432
 O     -4.1266157041      0.2958884303      0.1981534796
 H     -5.0062576305     -0.0809202474     -0.2116188351
 H     -4.3207218821      0.1464863273      1.2218376815
 O     -1.8709112981     -1.6533783630     -1.0185988758
 H     -1.1218029047     -2.3315328696     -0.8532282847
 H     -2.7276771771     -2.2550849549     -0.8773974625
 O     -2.3235722596      0.4123661715     -2.4008049772
 H     -1.9612104351     -0.4055496425     -2.9296174967
 H     -2.5540155757      1.2189996031     -3.0243297671
 O     -1.2896891752      0.1897587869      1.3255103118
 H     -0.9758633055      1.1472639551      1.5977679170
 H     -1.1317137311     -0.4773880102      2.1403281669
 N     -7.7371888547      0.2124793954      1.5557078195
 H     -7.5313854974     -0.3737876717      2.4367947851
 H     -8.3033776745      1.0456104959      1.8383816955
 H     -8.4395699386     -0.3873355842      0.9934478769
23
# ORCA AIMD Position Step 7, t=7.00 fs, E_Pot=-752.51239934 Hartree, Unit is Angstrom
Al     -1.6821191433      0.2943961389     -0.5169909322
 O     -1.7362386510      2.3560066257     -0.0821146855
 H     -0.9535074837      2.9156285628     -0.3200567709
 H     -2.7415268455      2.8517868019      0.0183062501
 O      0.1420226080      0.0445937263     -1.1165279072
 H      0.5524653010      0.6827686474     -1.7847043688
 H      0.7717101740     -0.6578286014     -0.8644507023
 O     -4.1213496186      0.2874636295      0.1964871335
 H     -4.9944923569     -0.0283827710     -0.2290766404
 H     -4.2918006147      0.1274824867      1.2159519357
 O     -1.8655580085     -1.6590048234     -1.0207072449
 H     -1.1154968312     -2.3098413830     -0.8676511517
 H     -2.7357656167     -2.2398204659     -0.8869211131
 O     -2.3288589431      0.4115548902     -2.4015764707
 H     -1.9804692045     -0.4188147159     -2.9124229690
 H     -2.5606931204      1.2152841287     -3.0262574879
 O     -1.2866084435      0.1895086445      1.3261590079
 H     -1.0055294523      1.1586101799      1.5696384196
 H     -1.1526792102     -0.4526671791      2.1624318647
 N     -7.7362270094      0.2103526267      1.5536273548
 H     -7.5591887698     -0.3835852388      2.4362991676
 H     -8.2942740927      1.0369273591      1.8387022825
 H     -8.4314991962     -0.3788095629      0.9646591768
23
# ORCA AIMD Position Step 8, t=8.00 fs, E_Pot=-752.51954188 Hartree, Unit is Angstrom
Al     -1.6825261862      0.2932723180     -0.5166434398
 O     -1.7345099699      2.3616505799     -0.0715385216
 H     -0.9615449623      2.9236177774     -0.3030002489
 H     -2.7208517697      2.8433586822      0.0440743457
 O      0.1351844726      0.0508173365     -1.1204539907
 H      0.5241958865      0.6862691676     -1.7816185766
 H      0.7635587712     -0.6410762900     -0.8790715392
 O     -4.1156328403      0.2787065023      0.1954957738
 H     -4.9798540211      0.0278576880     -0.2469344233
 H     -4.2612710265      0.1124590396      1.1976794219
 O     -1.8610000610     -1.6648908339     -1.0221179391
 H     -1.1074952886     -2.2893062821     -0.8838200238
 H     -2.7337246481     -2.2138892280     -0.8999615503
 O     -2.3334981404      0.4110157715     -2.4023791391
 H     -2.0073594724     -0.4227020079     -2.8937950063
 H     -2.5658911935      1.1992337023     -3.0209770234
 O     -1.2831090036      0.1894022381      1.3276329517
 H     -1.0391403002      1.1613260676      1.5444589424
 H     -1.1767643594     -0.4184918828      2.1688250920
 N     -7.7359349262      0.2068902547      1.5517323358
 H     -7.5882583562     -0.3853656646      2.4267264522
 H     -8.2825211879      1.0314627931      1.8398264723
 H     -8.4128815220     -0.3635207370      0.9409875197
23
# ORCA AIMD Position Step 9, t=9.00 fs, E_Pot=-752.52844490 Hartree, Unit is Angstrom
Al     -1.6836844027      0.2920294599     -0.5165705041
 O     -1.7344653183      2.3660390461     -0.0609996778
 H     -0.9673970509      2.9445827048     -0.2873492271
 H     -2.6734490795      2.8274511995      0.0664041905
 O      0.1272716998      0.0580084480     -1.1244894653
 H      0.5009630408      0.6899455643     -1.7812119671
 H      0.7687112081     -0.6349294936     -0.8886224041
 O     -4.1089550092      0.2698414757      0.1949598359
 H     -4.9679942055      0.0854919676     -0.2663287847
 H     -4.2318138626      0.1000995263      1.1719951208
 O     -1.8573309369     -1.6704135080     -1.0229456319
 H     -1.0945122409     -2.2751841960     -0.9006733855
 H     -2.7238210589     -2.1815691041     -0.9155619821
 O     -2.3375098362      0.4107326482     -2.4028657471
 H     -2.0401985061     -0.4207069913     -2.8764254165
 H     -2.5706405014      1.1745489245     -3.0114263739
 O     -1.2793965807      0.1894652094      1.3295705013
 H     -1.0748392448      1.1594507662      1.5240221617
 H     -1.2026352334     -0.3787510393      2.1634287188
 N     -7.7361644737      0.2022305461      1.5499233838
 H     -7.6171983923     -0.3816490649      2.4104904493
 H     -8.2697452746      1.0313618180      1.8416396034
 H     -8.3856343654     -0.3428257207      0.9215962816
23
# ORCA AIMD Position Step 10, t=10.00 fs, E_Pot=-752.52980477 Hartree, Unit is Angstrom
Al     -1.6855901993      0.2906353545     -0.5167753190
 O     -1.7353709550      2.3690131510     -0.0506057205
 H     -0.9719444758      2.9764027797     -0.2725819934
 H     -2.6103028774      2.8089313563      0.0862840754
 O      0.1183820694      0.0657772814     -1.1283721246
 H      0.4846984571      0.6969043143     -1.7867612905
 H      0.7845721318     -0.6364835498     -0.8939849037
 O     -4.1009312371      0.2610532897      0.1943577063
 H     -4.9623230747      0.1434048358     -0.2874090663
 H     -4.2063855333      0.0884471293      1.1476347596
 O     -1.8542468097     -1.6749800245     -1.0232919285
 H     -1.0758743118     -2.2702553038     -0.9177785511
 H     -2.7121264299     -2.1492297934     -0.9323714595
 O     -2.3409003816      0.4106330038     -2.4025248177
 H     -2.0766058807     -0.4186398840     -2.8636707893
 H     -2.5770229599      1.1481952011     -3.0026853511
 O     -1.2756829587      0.1898190610      1.3313656880
 H     -1.1107077366      1.1583158805      1.5098542029
 H     -1.2288812755     -0.3401987671      2.1543932348
 N     -7.7367146433      0.1968622481      1.5481244601
 H     -7.6443359736     -0.3767064463      2.3924991655
 H     -8.2565187344      1.0372388419      1.8433753539
 H     -8.3537489457     -0.3196763427      0.9034610820
23
# ORCA AIMD Position Step 11, t=11.00 fs, E_Pot=-752.52249639 Hartree, Unit is Angstrom
Al     -1.6882263385      0.2890550472     -0.5172576950
 O     -1.7356997895      2.3703389381     -0.0406131184
 H     -0.9785010425      3.0139917998     -0.2574132144
 H     -2.5525533615      2.7970645616      0.1067349982
 O      0.1089505586      0.0736305873     -1.1319145717
 H      0.4757006327      0.7078995814     -1.7990381866
 H      0.8044192446     -0.6385653897     -0.8974367644
 O     -4.0914403868      0.2524590746      0.1929608856
 H     -4.9620371189      0.2015743311     -0.3081740881
 H     -4.1876557575      0.0753274525      1.1342767669
 O     -1.8510582150     -1.6781806431     -1.0232232386
 H     -1.0547903398     -2.2739144369     -0.9353637120
 H     -2.7068875297     -2.1238506340     -0.9490535514
 O     -2.3436515054      0.4105861641     -2.4008368482
 H     -2.1144523983     -0.4225190649     -2.8583323820
 H     -2.5875863431      1.1282946606     -3.0005167251
 O     -1.2721186447      0.1906990250      1.3323012159
 H     -1.1453457427      1.1625560146      1.5027219555
 H     -1.2545595946     -0.3107480230      2.1523832284
 N     -7.7373525845      0.1915182860      1.5463282152
 H     -7.6683376120     -0.3756081438      2.3788406170
 H     -8.2423291209      1.0479204166      1.8437264416
 H     -8.3224020067     -0.2979188999      0.8818384691
23
# ORCA AIMD Position Step 12, t=12.00 fs, E_Pot=-752.52158423 Hartree, Unit is Angstrom
Al     -1.6915697899      0.2872563719     -0.5180143753
 O     -1.7336053175      2.3696665482     -0.0313622135
 H     -0.9900883339      3.0515237547     -0.2407352487
 H     -2.5266703208      2.8037310178      0.1326720934
 O      0.0995138591      0.0812869654     -1.1351383566
 H      0.4723968180      0.7209022528     -1.8157953164
 H      0.8213961995     -0.6343160682     -0.9010470670
 O     -4.0806015709      0.2441063559      0.1902116496
 H     -4.9630078822      0.2600858708     -0.3248566517
 H     -4.1774230363      0.0594224035      1.1369085282
 O     -1.8470728354     -1.6798804727     -1.0227626660
 H     -1.0368054086     -2.2834104068     -0.9538595310
 H     -2.7139497869     -2.1102707973     -0.9648480839
 O     -2.3457433348      0.4104649349     -2.3975557620
 H     -2.1527999079     -0.4353462887     -2.8611405583
 H     -2.6039915146      1.1199495341     -3.0082503486
 O     -1.2687573783      0.1923389700      1.3319127098
 H     -1.1781055048      1.1739847327      1.5024192290
 H     -1.2795511831     -0.2955875875      2.1649048340
 N     -7.7378658878      0.1868904183      1.5446256894
 H     -7.6887768263     -0.3823289663      2.3740465942
 H     -8.2261466183      1.0610201358      1.8412631389
 H     -8.2960674873     -0.2808014319      0.8521769945
23
# ORCA AIMD Position Step 13, t=13.00 fs, E_Pot=-752.53157305 Hartree, Unit is Angstrom
Al     -1.6955869239      0.2852220349     -0.5190359825
 O     -1.7284748883      2.3671103277     -0.0230118494
 H     -1.0077186707      3.0843079367     -0.2222539548
 H     -2.5416870110      2.8320921295      0.1665970218
 O      0.0905628605      0.0887123413     -1.1382307909
 H      0.4720437680      0.7324083841     -1.8330091506
 H      0.8307135736     -0.6196239914     -0.9058687248
 O     -4.0686707509      0.2359902495      0.1860916604
 H     -4.9604649883      0.3182691581     -0.3335568026
 H     -4.1762726512      0.0412248666      1.1518332866
 O     -1.8420915611     -1.6802421841     -1.0219018033
 H     -1.0270878580     -2.2957110875     -0.9734190263
 H     -2.7318221398     -2.1088567697     -0.9797349880
 O     -2.3472190574      0.4102314485     -2.3929375868
 H     -2.1918792448     -0.4550668527     -2.8699982211
 H     -2.6256169796      1.1219330496     -3.0240158352
 O     -1.2656058893      0.1947921605      1.3303669622
 H     -1.2087761884      1.1908051402      1.5078606515
 H     -1.3040538219     -0.2937796819      2.1901259649
 N     -7.7381544816      0.1833019390      1.5431647691
 H     -7.7062576229     -0.3977443322      2.3782469793
 H     -8.2072115312      1.0738933904      1.8349430698
 H     -8.2763459057     -0.2692278519      0.8132645814
23
# ORCA AIMD Position Step 14, t=14.00 fs, E_Pot=-752.53617012 Hartree, Unit is Angstrom
Al     -1.7002297440      0.2829545708     -0.5203021195
 O     -1.7215925437      2.3636048507     -0.0153090771
 H     -1.0302697442      3.1096817542     -0.2025113807
 H     -2.5788520943      2.8701750090      0.2048051776
 O      0.0824483436      0.0960200168     -1.1414284351
 H      0.4717458991      0.7393116869     -1.8468034994
 H      0.8302968453     -0.5936396807     -0.9118126562
 O     -4.0559373706      0.2280756007      0.1810578984
 H     -4.9510280446      0.3747787967     -0.3317759090
 H     -4.1835348886      0.0226777813      1.1693149982
 O     -1.8364918109     -1.6796239171     -1.0206369289
 H     -1.0285204990     -2.3086340235     -0.9938072204
 H     -2.7522704172     -2.1160489957     -0.9939750609
 O     -2.3482264204      0.4099265681     -2.3876435975
 H     -2.2321847008     -0.4758405275     -2.8808056274
 H     -2.6497001742      1.1281124717     -3.0416391441
 O     -1.2626995288      0.1979426994      1.3283610934
 H     -1.2371748318      1.2087216263      1.5173272260
 H     -1.3277378168     -0.2996301025      2.2182210842
 N     -7.7382726777      0.1805816682      1.5420323548
 H     -7.7220124086     -0.4192190098      2.3868391172
 H     -8.1855070474      1.0845344092      1.8244639652
 H     -8.2613343191     -0.2612687258      0.7689266430
23
# ORCA AIMD Position Step 15, t=15.00 fs, E_Pot=-752.53202778 Hartree, Unit is Angstrom
Al     -1.7054552762      0.2804649033     -0.5217843949
 O     -1.7146011212      2.3601287127     -0.0078251894
 H     -1.0551690769      3.1271536959     -0.1825147370
 H     -2.6150986923      2.9032751092      0.2415670543
 O      0.0752767887      0.1034215197     -1.1449410879
 H      0.4692336201      0.7401718299     -1.8549139789
 H      0.8210341041     -0.5586121774     -0.9177108789
 O     -4.0426101737      0.2203025447      0.1756855503
 H     -4.9333828074      0.4283732649     -0.3190895617
 H     -4.1975798630      0.0058765244      1.1796722760
 O     -1.8308936492     -1.6783899432     -1.0189893629
 H     -1.0410691593     -2.3212834110     -1.0146217226
 H     -2.7658965206     -2.1270554686     -1.0076554509
 O     -2.3489838170      0.4095928255     -2.3823901944
 H     -2.2737692734     -0.4914036789     -2.8892561193
 H     -2.6729529943      1.1318915867     -3.0543163906
 O     -1.2601094841      0.2016628095      1.3266519636
 H     -1.2630200460      1.2230801354      1.5288939079
 H     -1.3497467987     -0.3070111216      2.2385242343
 N     -7.7383431487      0.1782353956      1.5411774796
 H     -7.7373435708     -0.4423207441      2.3932592315
 H     -8.1617235034      1.0921885942      1.8103056194
 H     -8.2473566198     -0.2536287163      0.7260142732
23
# ORCA AIMD Position Step 16, t=16.00 fs, E_Pot=-752.52762100 Hartree, Unit is Angstrom
Al     -1.7112290789      0.2777676794     -0.5234494414
 O     -1.7085943569      2.3572068755     -0.0002116805
 H     -1.0790166744      3.1379852516     -0.1634604218
 H     -2.6368040832      2.9222070105      0.2728993675
 O      0.0688742556      0.1111914181     -1.1489127661
 H      0.4632591919      0.7356016836     -1.8572731940
 H      0.8068642935     -0.5195933577     -0.9213589286
 O     -4.0287851080      0.2126087274      0.1704356528
 H     -4.9081720640      0.4784280457     -0.2970560806
 H     -4.2162560251     -0.0078324609      1.1768646352
 O     -1.8258733159     -1.6767838328     -1.0169967898
 H     -1.0620896882     -2.3340154416     -1.0354850898
 H     -2.7663854323     -2.1378724566     -1.0205868782
 O     -2.3497119119      0.4092428355     -2.3777007585
 H     -2.3160562877     -0.4975236588     -2.8921711816
 H     -2.6928478549      1.1291290883     -3.0572162648
 O     -1.2579193372      0.2058790413      1.3257533776
 H     -1.2858812022      1.2304847765      1.5408504040
 H     -1.3691330849     -0.3118987813      2.2440122568
 N     -7.7384428371      0.1757220390      1.5404407113
 H     -7.7532319208     -0.4628699433      2.3920564612
 H     -8.1370018811      1.0974195053      1.7935572670
 H     -8.2311896030     -0.2435191443      0.6910617862
23
# ORCA AIMD Position Step 17, t=17.00 fs, E_Pot=-752.52896009 Hartree, Unit is Angstrom
Al     -1.7175150253      0.2748827481     -0.5252596237
 O     -1.7041680128      2.3549784413      0.0077488677
 H     -1.0981611674      3.1444649896     -0.1465527894
 H     -2.6385115789      2.9228712173      0.2968233090
 O      0.0628262573      0.1196042522     -1.1533950524
 H      0.4537631895      0.7281516287     -1.8560710945
 H      0.7941912995     -0.4835408176     -0.9197415388
 O     -4.0144624582      0.2049465975      0.1655937658
 H     -4.8776825568      0.5251781048     -0.2688736624
 H     -4.2372539968     -0.0181957731      1.1592548223
 O     -1.8218423467     -1.6749075921     -1.0146972259
 H     -1.0870973826     -2.3480509872     -1.0561526093
 H     -2.7518146450     -2.1459624023     -1.0324099667
 O     -2.3505831364      0.4088729488     -2.3738285163
 H     -2.3580269917     -0.4929196150     -2.8880408797
 H     -2.7080940766      1.1188557497     -3.0482546869
 O     -1.2562041907      0.2105494173      1.3258742954
 H     -1.3052047901      1.2295249356      1.5519830145
 H     -1.3851746269     -0.3127737028      2.2320842779
 N     -7.7385591677      0.1726394912      1.5396180298
 H     -7.7702463056     -0.4781063583      2.3804325708
 H     -8.1125911121      1.1016737237      1.7756613765
 H     -8.2111246440     -0.2295652155      0.6682037734
23
# ORCA AIMD Position Step 18, t=18.00 fs, E_Pot=-752.53583994 Hartree, Unit is Angstrom
Al     -1.7242608272      0.2718363312     -0.5271722780
 O     -1.7015828366      2.3533858224      0.0161481762
 H     -1.1094514822      3.1488540536     -0.1328123716
 H     -2.6197002304      2.9043945114      0.3127393523
 O      0.0566566079      0.1287903059     -1.1583065941
 H      0.4418656721      0.7217277195     -1.8553332961
 H      0.7893159121     -0.4567463099     -0.9099540110
 O     -3.9995920436      0.1973050963      0.1612560361
 H     -4.8452737123      0.5697143457     -0.2388701029
 H     -4.2584589271     -0.0261935243      1.1294772500
 O     -1.8189684530     -1.6727668065     -1.0121223866
 H     -1.1110181233     -2.3645927706     -1.0765172223
 H     -2.7247997796     -2.1504299918     -1.0427223771
 O     -2.3516871822      0.4084807948     -2.3707509173
 H     -2.3985036677     -0.4794594465     -2.8771592172
 H     -2.7187771966      1.1032128344     -3.0281808827
 O     -1.2550130990      0.2156347714      1.3269270138
 H     -1.3204012497      1.2209888536      1.5617510378
 H     -1.3975659338     -0.3104960833      2.2043371628
 N     -7.7385981954      0.1688360105      1.5385141431
 H     -7.7886239774     -0.4871841483      2.3586879992
 H     -8.0894912851      1.1064777186      1.7581425831
 H     -8.1871592541     -0.2119699733      0.6583633149
23
# ORCA AIMD Position Step 19, t=19.00 fs, E_Pot=-752.54243063 Hartree, Unit is Angstrom
Al     -1.7313974633      0.2686571242     -0.5291415520
 O     -1.7007744056      2.3522941476      0.0249506957
 H     -1.1111214179      3.1521992073     -0.1228408328
 H     -2.5837230617      2.8685116823      0.3212983977
 O      0.0501206495      0.1385856546     -1.1634094922
 H      0.4294525530      0.7202738765     -1.8596354262
 H      0.7942051595     -0.4411026443     -0.8908881633
 O     -3.9841217551      0.1897333616      0.1573001383
 H     -4.8141247658      0.6136434675     -0.2115579304
 H     -4.2784343405     -0.0340760989      1.0939517626
 O     -1.8170843536     -1.6703392351     -1.0092991534
 H     -1.1298060889     -2.3835714866     -1.0965016386
 H     -2.6923050467     -2.1522005291     -1.0512164103
 O     -2.3530037326      0.4080690746     -2.3681765514
 H     -2.4365252206     -0.4620045678     -2.8615578880
 H     -2.7264684737      1.0872334335     -3.0005059747
 O     -1.2543453367      0.2211048721      1.3285270210
 H     -1.3310040598      1.2078257835      1.5703917433
 H     -1.4066491429     -0.3083620158      2.1665101580
 N     -7.7384011343      0.1644815378      1.5369859084
 H     -7.8084547104     -0.4914210743      2.3302163771
 H     -8.0681504003      1.1125622740      1.7423471763
 H     -8.1608843169     -0.1923873025      0.6588886613
23
# ORCA AIMD Position Step 20, t=20.00 fs, E_Pot=-752.54203957 Hartree, Unit is Angstrom
Al     -1.7388519337      0.2653716315     -0.5311226106
 O     -1.7012317527      2.3514770303      0.0339674577
 H     -1.1033720247      3.1536770636     -0.1166547009
 H     -2.5390581551      2.8203174705      0.3250155016
 O      0.0433644436      0.1485930147     -1.1683889139
 H      0.4181748374      0.7258596251     -1.8719063898
 H      0.8047613382     -0.4328380208     -0.8643057281
 O     -3.9680451799      0.1823598185      0.1534022808
 H     -4.7855424147      0.6582774157     -0.1903762397
 H     -4.2968286296     -0.0450182796      1.0611950159
 O     -1.8156928170     -1.6676302582     -1.0062538689
 H     -1.1415774312     -2.4028601698     -1.1158758464
 H     -2.6643304769     -2.1538765677     -1.0577910663
 O     -2.3544007568      0.4076376743     -2.3656089987
 H     -2.4717292790     -0.4473799821     -2.8445053677
 H     -2.7340227263      1.0779417725     -2.9707744582
 O     -1.2541339816      0.2269633046      1.3300349033
 H     -1.3368192516      1.1946789506      1.5788971591
 H     -1.4135669890     -0.3119080113      2.1277903394
 N     -7.7377513647      0.1600580429      1.5349810041
 H     -7.8299320433     -0.4941649717      2.3009279312
 H     -8.0484083042      1.1194371584      1.7292897829
 H     -8.1351723069     -0.1735753341      0.6636284836
23
# ORCA AIMD Position Step 21, t=21.00 fs, E_Pot=-752.53617891 Hartree, Unit is Angstrom
Al     -1.7465592237      0.2620040919     -0.5330730495
 O     -1.7018514279      2.3505012233      0.0428034760
 H     -1.0883203241      3.1510387581     -0.1136819580
 H     -2.5016282303      2.7694748622      0.3293096797
 O      0.0367854812      0.1584537083     -1.1730223820
 H      0.4084481889      0.7374055010     -1.8916508670
 H      0.8139362501     -0.4253747836     -0.8340150994
 O     -3.9514465568      0.1753809933      0.1491958430