
                                 *****************
                                 * O   R   C   A *
                                 *****************

                                            #,                                       
                                            ###                                      
                                            ####                                     
                                            #####                                    
                                            ######                                   
                                           ########,                                 
                                     ,,################,,,,,                         
                               ,,#################################,,                 
                          ,,##########################################,,             
                       ,#########################################, ''#####,          
                    ,#############################################,,   '####,        
                  ,##################################################,,,,####,       
                ,###########''''           ''''###############################       
              ,#####''   ,,,,##########,,,,          '''####'''          '####       
            ,##' ,,,,###########################,,,                        '##       
           ' ,,###''''                  '''############,,,                           
         ,,##''                                '''############,,,,        ,,,,,,###''
      ,#''                                            '''#######################'''  
     '                                                          ''''####''''         
             ,#######,   #######,   ,#######,      ##                                
            ,#'     '#,  ##    ##  ,#'     '#,    #''#        ######   ,####,        
            ##       ##  ##   ,#'  ##            #'  '#       #        #'  '#        
            ##       ##  #######   ##           ,######,      #####,   #    #        
            '#,     ,#'  ##    ##  '#,     ,#' ,#      #,         ##   #,  ,#        
             '#######'   ##     ##  '#######'  #'      '#     #####' # '####'        



                  #######################################################
                  #                        -***-                        #
                  #          Department of theory and spectroscopy      #
                  #    Directorship and core code : Frank Neese         #
                  #        Max Planck Institute fuer Kohlenforschung    #
                  #                Kaiser Wilhelm Platz 1               #
                  #                 D-45470 Muelheim/Ruhr               #
                  #                      Germany                        #
                  #                                                     #
                  #                  All rights reserved                #
                  #                        -***-                        #
                  #######################################################



                         Program Version 5.0.4 -  RELEASE  -

 With contributions from (in alphabetic order):
   Daniel Aravena         : Magnetic Suceptibility
   Michael Atanasov       : Ab Initio Ligand Field Theory (pilot matlab implementation)
   Alexander A. Auer      : GIAO ZORA, VPT2 properties, NMR spectrum
   Ute Becker             : Parallelization
   Giovanni Bistoni       : ED, misc. LED, open-shell LED, HFLD
   Martin Brehm           : Molecular dynamics
   Dmytro Bykov           : SCF Hessian
   Vijay G. Chilkuri      : MRCI spin determinant printing, contributions to CSF-ICE
   Dipayan Datta          : RHF DLPNO-CCSD density
   Achintya Kumar Dutta   : EOM-CC, STEOM-CC
   Dmitry Ganyushin       : Spin-Orbit,Spin-Spin,Magnetic field MRCI
   Miquel Garcia          : C-PCM and meta-GGA Hessian, CC/C-PCM, Gaussian charge scheme
   Yang Guo               : DLPNO-NEVPT2, F12-NEVPT2, CIM, IAO-localization
   Andreas Hansen         : Spin unrestricted coupled pair/coupled cluster methods
   Benjamin Helmich-Paris : MC-RPA, TRAH-SCF, COSX integrals
   Lee Huntington         : MR-EOM, pCC
   Robert Izsak           : Overlap fitted RIJCOSX, COSX-SCS-MP3, EOM
   Marcus Kettner         : VPT2
   Christian Kollmar      : KDIIS, OOCD, Brueckner-CCSD(T), CCSD density, CASPT2, CASPT2-K
   Simone Kossmann        : Meta GGA functionals, TD-DFT gradient, OOMP2, MP2 Hessian
   Martin Krupicka        : Initial AUTO-CI
   Lucas Lang             : DCDCAS
   Marvin Lechner         : AUTO-CI (C++ implementation), FIC-MRCC
   Dagmar Lenk            : GEPOL surface, SMD
   Dimitrios Liakos       : Extrapolation schemes; Compound Job, initial MDCI parallelization
   Dimitrios Manganas     : Further ROCIS development; embedding schemes
   Dimitrios Pantazis     : SARC Basis sets
   Anastasios Papadopoulos: AUTO-CI, single reference methods and gradients
   Taras Petrenko         : DFT Hessian,TD-DFT gradient, ASA, ECA, R-Raman, ABS, FL, XAS/XES, NRVS
   Peter Pinski           : DLPNO-MP2, DLPNO-MP2 Gradient
   Christoph Reimann      : Effective Core Potentials
   Marius Retegan         : Local ZFS, SOC
   Christoph Riplinger    : Optimizer, TS searches, QM/MM, DLPNO-CCSD(T), (RO)-DLPNO pert. Triples
   Tobias Risthaus        : Range-separated hybrids, TD-DFT gradient, RPA, STAB
   Michael Roemelt        : Original ROCIS implementation
   Masaaki Saitow         : Open-shell DLPNO-CCSD energy and density
   Barbara Sandhoefer     : DKH picture change effects
   Avijit Sen             : IP-ROCIS
   Kantharuban Sivalingam : CASSCF convergence, NEVPT2, FIC-MRCI
   Bernardo de Souza      : ESD, SOC TD-DFT
   Georgi Stoychev        : AutoAux, RI-MP2 NMR, DLPNO-MP2 response
   Willem Van den Heuvel  : Paramagnetic NMR
   Boris Wezisla          : Elementary symmetry handling
   Frank Wennmohs         : Technical directorship


 We gratefully acknowledge several colleagues who have allowed us to
 interface, adapt or use parts of their codes:
   Stefan Grimme, W. Hujo, H. Kruse, P. Pracht,  : VdW corrections, initial TS optimization,
                  C. Bannwarth, S. Ehlert          DFT functionals, gCP, sTDA/sTD-DF
   Ed Valeev, F. Pavosevic, A. Kumar             : LibInt (2-el integral package), F12 methods
   Garnet Chan, S. Sharma, J. Yang, R. Olivares  : DMRG
   Ulf Ekstrom                                   : XCFun DFT Library
   Mihaly Kallay                                 : mrcc  (arbitrary order and MRCC methods)
   Jiri Pittner, Ondrej Demel                    : Mk-CCSD
   Frank Weinhold                                : gennbo (NPA and NBO analysis)
   Christopher J. Cramer and Donald G. Truhlar   : smd solvation model
   Lars Goerigk                                  : TD-DFT with DH, B97 family of functionals
   V. Asgeirsson, H. Jonsson                     : NEB implementation
   FAccTs GmbH                                   : IRC, NEB, NEB-TS, DLPNO-Multilevel, CI-OPT
                                                   MM, QMMM, 2- and 3-layer-ONIOM, Crystal-QMMM,
                                                   LR-CPCM, SF, NACMEs, symmetry and pop. for TD-DFT,
                                                   nearIR, NL-DFT gradient (VV10), updates on ESD,
                                                   ML-optimized integration grids
   S Lehtola, MJT Oliveira, MAL Marques          : LibXC Library
   Liviu Ungur et al                             : ANISO software


 Your calculation uses the libint2 library for the computation of 2-el integrals
 For citations please refer to: http://libint.valeyev.net

 Your ORCA version has been built with support for libXC version: 5.1.0
 For citations please refer to: https://tddft.org/programs/libxc/

 This ORCA versions uses:
   CBLAS   interface :  Fast vector & matrix operations
   LAPACKE interface :  Fast linear algebra routines
   Shared memory     :  Shared parallel matrices


Your calculation utilizes the atom-pairwise dispersion correction
based on tight binding partial charges (D4)
Cite in your paper:
E.Caldeweyher, C.Bannwarth, S.Grimme, J.Chem.Phys., (2017), 147, 034112.
E.Caldeweyher, S.Ehlert, A.Hansen, H.Neugebauer, S.Grimme, J.Chem.Phys., (2018), in progress.
   

================================================================================

----- Orbital basis set information -----
Your calculation utilizes the basis: def2-SVP
   F. Weigend and R. Ahlrichs, Phys. Chem. Chem. Phys. 7, 3297 (2005).

----- AuxJ basis set information -----
Your calculation utilizes the auxiliary basis: def2/J
   F. Weigend, Phys. Chem. Chem. Phys. 8, 1057 (2006).

================================================================================
                                        WARNINGS
                       Please study these warnings very carefully!
================================================================================


WARNING: Geometry Optimization
  ===> : Switching off AutoStart
         For restart on a previous wavefunction, please use MOREAD

INFO   : the flag for use of the SHARK integral package has been found!

================================================================================
                                       INPUT FILE
================================================================================
NAME = para_ts_optfreq_4.inp
|  1> !B3LYP DEF2-SVP OPT FREQ D4 
|  2> 
|  3> %geom
|  4> optimizeHydrogens true
|  5> end
|  6> 
|  7> * xyz 1 1
|  8>    C       -6.30025        0.40796       -0.14520
|  9>    C       -7.09507        1.11466       -1.09396
| 10>    C       -7.18994        0.68720       -2.37423
| 11>    C       -6.54362       -0.56741       -2.78953
| 12>    C       -5.66688       -1.22180       -1.80993
| 13>    C       -5.60704       -0.77075       -0.53145
| 14>    C       -6.26748        0.88585        1.25471
| 15>    H       -7.16987        2.44524        1.30274
| 16>    H       -4.77489        0.83985        1.63162
| 17>    H       -7.31870       -0.35075        2.01001
| 18>    H       -7.58768        2.03108       -0.78753
| 19>    H       -7.75010        1.23633       -3.12045
| 20>    H       -5.09195       -2.07866       -2.13843
| 21>    H       -4.98038       -1.27431        0.19271
| 22>    N       -5.88440       -0.45743       -4.22982
| 23>    O       -4.95744       -1.19509       -4.43710
| 24>    O       -6.40644        0.33077       -4.97337
| 25>    H       -7.35909       -1.28704       -3.00637
| 26> **                         ****END OF INPUT****
================================================================================

                       *****************************
                       * Geometry Optimization Run *
                       *****************************

Geometry optimization settings:
Update method            Update   .... BFGS
Choice of coordinates    CoordSys .... Z-matrix Internals
Initial Hessian          InHess   .... Almoef's Model

Convergence Tolerances:
Energy Change            TolE     ....  5.0000e-06 Eh
Max. Gradient            TolMAXG  ....  3.0000e-04 Eh/bohr
RMS Gradient             TolRMSG  ....  1.0000e-04 Eh/bohr
Max. Displacement        TolMAXD  ....  4.0000e-03 bohr
RMS Displacement         TolRMSD  ....  2.0000e-03 bohr
Strict Convergence                ....  False
------------------------------------------------------------------------------
                        ORCA OPTIMIZATION COORDINATE SETUP
------------------------------------------------------------------------------

The optimization will be done in new redundant internal coordinates
Making redundant internal coordinates   ...  (new redundants) done
Evaluating the initial hessian          ...  (Almloef) done
Evaluating the coordinates              ...  done
Calculating the B-matrix                .... done
Calculating the G-matrix                .... done
Diagonalizing the G-matrix              .... done
Imposing constraints:
 Iter   0:  RMS(Cart)=    0.0000000000 RMS(Int)=    0.0000000000
CONVERGED
The first mode is                       ....   49
The number of degrees of freedom        ....   48
Storing new coordinates                 .... done

    -----------------------------------------------------------------
                    Redundant Internal Coordinates


    -----------------------------------------------------------------
         Definition                    Initial Value    Approx d2E/dq
    -----------------------------------------------------------------
      1. B(C   1,C   0)                  1.4252         0.548928 C 
      2. B(C   2,C   1)                  1.3531         0.715565 C 
      3. B(C   3,C   2)                  1.4711         0.463753 C 
      4. B(C   4,C   3)                  1.4685         0.468257 C 
      5. B(C   5,C   4)                  1.3570         0.705238 C 
      6. B(C   5,C   0)                  1.4209         0.557657 C 
      7. B(C   6,C   0)                  1.4796         0.449568 C 
      8. B(H   7,C   6)                  1.8023         0.026302   
      9. B(H   8,C   6)                  1.5401         0.068908   
     10. B(H   9,C   6)                  1.7902         0.027501   
     11. B(H  10,C   1)                  1.0846         0.367295   
     12. B(H  10,H   7)                  2.1715         0.001297   
     13. B(H  11,C   2)                  1.0827         0.369933   
     14. B(H  12,C   4)                  1.0829         0.369620   
     15. B(H  13,C   5)                  1.0820         0.370866   
     16. B(N  14,C   3)                  1.5878         0.270584 C 
     17. B(O  15,N  14)                  1.2026         0.997518 C 
     18. B(O  16,N  14)                  1.2028         0.997077 C 
     19. B(H  17,C   3)                  1.1090         0.335824   
     20. A(C   1,C   0,C   5)          120.1608         0.416731 C 
     21. A(C   1,C   0,C   6)          118.8182         0.401132 C 
     22. A(C   5,C   0,C   6)          120.9512         0.402249 C 
     23. A(C   2,C   1,H  10)          120.1592         0.362836   
     24. A(C   0,C   1,H  10)          118.9579         0.346888   
     25. A(C   0,C   1,C   2)          120.8185         0.435757 C 
     26. A(C   3,C   2,H  11)          117.7286         0.337634   
     27. A(C   1,C   2,H  11)          121.8838         0.363280   
     28. A(C   1,C   2,C   3)          120.3794         0.422773 C 
     29. A(C   2,C   3,N  14)          112.2967         0.354625 C 
     30. A(C   2,C   3,H  17)          106.5911         0.332249   
     31. A(N  14,C   3,H  17)           99.9549         0.302552   
     32. A(C   4,C   3,H  17)          106.2768         0.332782   
     33. A(C   2,C   3,C   4)          117.0012         0.392227 C 
     34. A(C   4,C   3,N  14)          112.8359         0.355207 C 
     35. A(C   3,C   4,C   5)          120.4423         0.422405 C 
     36. A(C   5,C   4,H  12)          121.6940         0.362326   
     37. A(C   3,C   4,H  12)          117.8537         0.338130   
     38. A(C   0,C   5,H  13)          119.1231         0.348378   
     39. A(C   4,C   5,H  13)          120.0924         0.362534   
     40. A(C   0,C   5,C   4)          120.6835         0.435854 C 
     41. A(C   0,C   6,H   9)           99.3855         0.226095   
     42. A(H   8,C   6,H   9)          116.4365         0.166557   
     43. A(C   0,C   6,H   7)          107.0724         0.224719   
     44. A(H   7,C   6,H   8)          120.3016         0.165779   
     45. A(C   0,C   6,H   8)          104.0851         0.257777   
     46. A(H   7,C   6,H   9)          107.0025         0.151366   
     47. A(C   6,H   7,H  10)           84.5868         0.113982   
     48. A(C   1,H  10,H   7)          110.2258         0.134373   
     49. A(C   3,N  14,O  16)          115.2113         0.399645 C 
     50. A(O  15,N  14,O  16)          129.0456         0.502858 C 
     51. A(C   3,N  14,O  15)          115.7129         0.399676 C 
     52. D(C   2,C   1,C   0,C   5)     -0.7853         0.020610 C 
     53. D(H  10,C   1,C   0,C   5)   -177.8708         0.020610   
     54. D(H  10,C   1,C   0,C   6)      5.1371         0.020610   
     55. D(C   2,C   1,C   0,C   6)   -177.7774         0.020610 C 
     56. D(H  11,C   2,C   1,C   0)   -177.0284         0.036200   
     57. D(H  11,C   2,C   1,H  10)      0.0222         0.036200   
     58. D(C   3,C   2,C   1,C   0)      4.0353         0.036200 C 
     59. D(C   3,C   2,C   1,H  10)   -178.9141         0.036200   
     60. D(H  17,C   3,C   2,C   1)    111.0644         0.015855   
     61. D(C   4,C   3,C   2,H  11)    173.3962         0.015855   
     62. D(N  14,C   3,C   2,C   1)   -140.4458         0.015855 C 
     63. D(N  14,C   3,C   2,H  11)     40.5746         0.015855   
     64. D(H  17,C   3,C   2,H  11)    -67.9152         0.015855   
     65. D(C   4,C   3,C   2,C   1)     -7.6242         0.015855 C 
     66. D(C   5,C   4,C   3,C   2)      8.3218         0.016165 C 
     67. D(C   5,C   4,C   3,N  14)    140.9007         0.016165 C 
     68. D(C   5,C   4,C   3,H  17)   -110.5356         0.016165   
     69. D(H  12,C   4,C   3,C   2)   -172.8074         0.016165   
     70. D(H  12,C   4,C   3,N  14)    -40.2286         0.016165   
     71. D(H  12,C   4,C   3,H  17)     68.3352         0.016165   
     72. D(C   4,C   5,C   0,C   1)      1.4880         0.021295 C 
     73. D(H  13,C   5,C   4,C   3)    178.2727         0.035074   
     74. D(H  13,C   5,C   0,C   1)    177.8393         0.021295   
     75. D(H  13,C   5,C   0,C   6)     -5.2337         0.021295   
     76. D(C   0,C   5,C   4,C   3)     -5.4113         0.035074 C 
     77. D(C   4,C   5,C   0,C   6)    178.4150         0.021295 C 
     78. D(C   0,C   5,C   4,H  12)    175.7621         0.035074   
     79. D(H  13,C   5,C   4,H  12)     -0.5539         0.035074   
     80. D(H   8,C   6,C   0,C   1)   -134.9965         0.014905   
     81. D(H   8,C   6,C   0,C   5)     48.0360         0.014905   
     82. D(H   9,C   6,C   0,C   1)    104.5589         0.014905   
     83. D(H   9,C   6,C   0,C   5)    -72.4086         0.014905   
     84. D(H   7,C   6,C   0,C   1)     -6.5908         0.014905   
     85. D(H   7,C   6,C   0,C   5)    176.4417         0.014905   
     86. D(H  10,H   7,C   6,C   0)      4.3512         0.001846   
     87. D(H  10,H   7,C   6,H   8)    122.6676         0.001846   
     88. D(H  10,H   7,C   6,H   9)   -101.4498         0.001846   
     89. D(H   7,H  10,C   1,C   0)     -0.9702         0.115037   
     90. D(H   7,H  10,C   1,C   2)   -178.0754         0.115037   
     91. D(C   1,H  10,H   7,C   6)     -2.3570         0.001513   
     92. D(O  15,N  14,C   3,C   2)    153.4576         0.006695 C 
     93. D(O  15,N  14,C   3,C   4)     18.6195         0.006695 C 
     94. D(O  15,N  14,C   3,H  17)    -93.8798         0.006695   
     95. D(O  16,N  14,C   3,C   2)    -28.3574         0.006695 C 
     96. D(O  16,N  14,C   3,C   4)   -163.1955         0.006695 C 
     97. D(O  16,N  14,C   3,H  17)     84.3052         0.006695   
    -----------------------------------------------------------------

Number of atoms                         .... 18
Number of degrees of freedom            .... 97

         *************************************************************
         *                GEOMETRY OPTIMIZATION CYCLE   1            *
         *************************************************************
---------------------------------
CARTESIAN COORDINATES (ANGSTROEM)
---------------------------------
  C     -6.300250    0.407960   -0.145200
  C     -7.095070    1.114660   -1.093960
  C     -7.189940    0.687200   -2.374230
  C     -6.543620   -0.567410   -2.789530
  C     -5.666880   -1.221800   -1.809930
  C     -5.607040   -0.770750   -0.531450
  C     -6.267480    0.885850    1.254710
  H     -7.169870    2.445240    1.302740
  H     -4.774890    0.839850    1.631620
  H     -7.318700   -0.350750    2.010010
  H     -7.587680    2.031080   -0.787530
  H     -7.750100    1.236330   -3.120450
  H     -5.091950   -2.078660   -2.138430
  H     -4.980380   -1.274310    0.192710
  N     -5.884400   -0.457430   -4.229820
  O     -4.957440   -1.195090   -4.437100
  O     -6.406440    0.330770   -4.973370
  H     -7.359090   -1.287040   -3.006370

----------------------------
CARTESIAN COORDINATES (A.U.)
----------------------------
  NO LB      ZA    FRAG     MASS         X           Y           Z
   0 C     6.0000    0    12.011  -11.905747    0.770933   -0.274388
   1 C     6.0000    0    12.011  -13.407739    2.106402   -2.067285
   2 C     6.0000    0    12.011  -13.587018    1.298620   -4.486644
   3 C     6.0000    0    12.011  -12.365650   -1.072250   -5.271448
   4 C     6.0000    0    12.011  -10.708851   -2.308867   -3.420272
   5 C     6.0000    0    12.011  -10.595770   -1.456506   -1.004295
   6 C     6.0000    0    12.011  -11.843821    1.674014    2.371058
   7 H     1.0000    0     1.008  -13.549091    4.620834    2.461822
   8 H     1.0000    0     1.008   -9.023234    1.587086    3.083315
   9 H     1.0000    0     1.008  -13.830339   -0.662821    3.798368
  10 H     1.0000    0     1.008  -14.338637    3.838185   -1.488216
  11 H     1.0000    0     1.008  -14.645567    2.336325   -5.896796
  12 H     1.0000    0     1.008   -9.622391   -3.928098   -4.041047
  13 H     1.0000    0     1.008   -9.411554   -2.408097    0.364169
  14 N     7.0000    0    14.007  -11.119904   -0.864417   -7.993201
  15 O     8.0000    0    15.999   -9.368204   -2.258393   -8.384904
  16 O     8.0000    0    15.999  -12.106417    0.625065   -9.398307
  17 H     1.0000    0     1.008  -13.906665   -2.432153   -5.681216

--------------------------------
INTERNAL COORDINATES (ANGSTROEM)
--------------------------------
 C      0   0   0     0.000000000000     0.00000000     0.00000000
 C      1   0   0     1.425240071006     0.00000000     0.00000000
 C      2   1   0     1.353075622942   120.81849326     0.00000000
 C      3   2   1     1.471138975250   120.37943230     4.03532922
 C      4   3   2     1.468507902498   117.00117030   352.37581489
 C      5   4   3     1.357032806715   120.44233207     8.32184004
 C      1   2   3     1.479594786791   118.81824998   182.22259612
 H      7   1   2     1.802307344794   107.07236238   353.40922083
 H      7   1   2     1.540130532195   104.08514453   225.00348991
 H      7   1   2     1.790173493939    99.38548914   104.55885801
 H      2   1   3     1.084614942457   118.95785419   182.91451219
 H      3   2   1     1.082666740461   121.88383994   182.97162185
 H      5   4   3     1.082896954701   117.85370351   187.19259029
 H      6   5   4     1.081981115732   120.09244740   178.27271603
 N      4   3   2     1.587797812349   112.29673296   219.55418457
 O     15   4   3     1.202647959962   115.71289440   153.45761762
 O     15   4   3     1.202768308570   115.21132126   331.64258059
 H      4   3   2     1.108998757168   106.59105828   111.06440560

---------------------------
INTERNAL COORDINATES (A.U.)
---------------------------
 C      0   0   0     0.000000000000     0.00000000     0.00000000
 C      1   0   0     2.693313409291     0.00000000     0.00000000
 C      2   1   0     2.556942365845   120.81849326     0.00000000
 C      3   2   1     2.780049768160   120.37943230     4.03532922
 C      4   3   2     2.775077761221   117.00117030   352.37581489
 C      5   4   3     2.564420359437   120.44233207     8.32184004
 C      1   2   3     2.796028936213   118.81824998   182.22259612
 H      7   1   2     3.405867290816   107.07236238   353.40922083
 H      7   1   2     2.910424916339   104.08514453   225.00348991
 H      7   1   2     3.382937635749    99.38548914   104.55885801
 H      2   1   3     2.049625202002   118.95785419   182.91451219
 H      3   2   1     2.045943633776   121.88383994   182.97162185
 H      5   4   3     2.046378675642   117.85370351   187.19259029
 H      6   5   4     2.044647990807   120.09244740   178.27271603
 N      4   3   2     3.000503021379   112.29673296   219.55418457
 O     15   4   3     2.272675279847   115.71289440   153.45761762
 O     15   4   3     2.272902705757   115.21132126   331.64258059
 H      4   3   2     2.095703933906   106.59105828   111.06440560

---------------------
BASIS SET INFORMATION
---------------------
There are 4 groups of distinct atoms

 Group   1 Type C   : 7s4p1d contracted to 3s2p1d pattern {511/31/1}
 Group   2 Type H   : 4s1p contracted to 2s1p pattern {31/1}
 Group   3 Type N   : 7s4p1d contracted to 3s2p1d pattern {511/31/1}
 Group   4 Type O   : 7s4p1d contracted to 3s2p1d pattern {511/31/1}

Atom   0C    basis set group =>   1
Atom   1C    basis set group =>   1
Atom   2C    basis set group =>   1
Atom   3C    basis set group =>   1
Atom   4C    basis set group =>   1
Atom   5C    basis set group =>   1
Atom   6C    basis set group =>   1
Atom   7H    basis set group =>   2
Atom   8H    basis set group =>   2
Atom   9H    basis set group =>   2
Atom  10H    basis set group =>   2
Atom  11H    basis set group =>   2
Atom  12H    basis set group =>   2
Atom  13H    basis set group =>   2
Atom  14N    basis set group =>   3
Atom  15O    basis set group =>   4
Atom  16O    basis set group =>   4
Atom  17H    basis set group =>   2
---------------------------------
AUXILIARY/J BASIS SET INFORMATION
---------------------------------
There are 4 groups of distinct atoms

 Group   1 Type C   : 12s5p4d2f1g contracted to 6s4p3d1f1g pattern {711111/2111/211/2/1}
 Group   2 Type H   : 5s2p1d contracted to 3s1p1d pattern {311/2/1}
 Group   3 Type N   : 12s5p4d2f1g contracted to 6s4p3d1f1g pattern {711111/2111/211/2/1}
 Group   4 Type O   : 12s5p4d2f1g contracted to 6s4p3d1f1g pattern {711111/2111/211/2/1}

Atom   0C    basis set group =>   1
Atom   1C    basis set group =>   1
Atom   2C    basis set group =>   1
Atom   3C    basis set group =>   1
Atom   4C    basis set group =>   1
Atom   5C    basis set group =>   1
Atom   6C    basis set group =>   1
Atom   7H    basis set group =>   2
Atom   8H    basis set group =>   2
Atom   9H    basis set group =>   2
Atom  10H    basis set group =>   2
Atom  11H    basis set group =>   2
Atom  12H    basis set group =>   2
Atom  13H    basis set group =>   2
Atom  14N    basis set group =>   3
Atom  15O    basis set group =>   4
Atom  16O    basis set group =>   4
Atom  17H    basis set group =>   2
------------------------------------------------------------------------------
                           ORCA GTO INTEGRAL CALCULATION
                           -- RI-GTO INTEGRALS CHOSEN --
------------------------------------------------------------------------------
------------------------------------------------------------------------------
                   ___                                                        
                  /   \      - P O W E R E D   B Y -                         
                 /     \                                                     
                 |  |  |   _    _      __       _____    __    __             
                 |  |  |  | |  | |    /  \     |  _  \  |  |  /  |          
                  \  \/   | |  | |   /    \    | | | |  |  | /  /          
                 / \  \   | |__| |  /  /\  \   | |_| |  |  |/  /          
                |  |  |   |  __  | /  /__\  \  |    /   |      \           
                |  |  |   | |  | | |   __   |  |    \   |  |\   \          
                \     /   | |  | | |  |  |  |  | |\  \  |  | \   \       
                 \___/    |_|  |_| |__|  |__|  |_| \__\ |__|  \__/        
                                                                              
                      - O R C A' S   B I G   F R I E N D -                    
                                      &                                       
                       - I N T E G R A L  F E E D E R -                       
                                                                              
 v1 FN, 2020, v2 2021                                                         
------------------------------------------------------------------------------


Reading SHARK input file para_ts_optfreq_4.SHARKINP.tmp ... ok
----------------------
SHARK INTEGRAL PACKAGE
----------------------

Number of atoms                             ...     18
Number of basis functions                   ...    180
Number of shells                            ...     84
Maximum angular momentum                    ...      2
Integral batch strategy                     ... SHARK/LIBINT Hybrid
RI-J (if used) integral strategy            ... SPLIT-RIJ (Revised 2003 algorithm where possible)
Printlevel                                  ...      1
Contraction scheme used                     ... SEGMENTED contraction
Coulomb Range Separation                    ... NOT USED
Exchange Range Separation                   ... NOT USED
Finite Nucleus Model                        ... NOT USED
Auxiliary Coulomb fitting basis             ... AVAILABLE
   # of basis functions in Aux-J            ...    578
   # of shells in Aux-J                     ...    190
   Maximum angular momentum in Aux-J        ...      4
Auxiliary J/K fitting basis                 ... NOT available
Auxiliary Correlation fitting basis         ... NOT available
Auxiliary 'external' fitting basis          ... NOT available
Integral threshold                          ...     2.500000e-11
Primitive cut-off                           ...     2.500000e-12
Primitive pair pre-selection threshold      ...     2.500000e-12

Calculating pre-screening integrals         ... done (  0.1 sec) Dimension = 84
Organizing shell pair data                  ... done (  0.1 sec)
Shell pair information
Total number of shell pairs                 ...      3570
Shell pairs after pre-screening             ...      3231
Total number of primitive shell pairs       ...     13034
Primitive shell pairs kept                  ...      8433
          la=0 lb=0:    981 shell pairs
          la=1 lb=0:   1173 shell pairs
          la=1 lb=1:    374 shell pairs
          la=2 lb=0:    405 shell pairs
          la=2 lb=1:    250 shell pairs
          la=2 lb=2:     48 shell pairs

Calculating one electron integrals          ... done (  0.1 sec)
Calculating RI/J V-Matrix + Cholesky decomp.... done (  0.1 sec)
Calculating Nuclear repulsion               ... done (  0.0 sec) ENN=    500.951461832521 Eh

SHARK setup successfully completed in   0.6 seconds

Maximum memory used throughout the entire GTOINT-calculation: 25.4 MB
-------------------------------------------------------------------------------
                                 ORCA SCF
-------------------------------------------------------------------------------

------------
SCF SETTINGS
------------
Hamiltonian:
 Density Functional     Method          .... DFT(GTOs)
 Exchange Functional    Exchange        .... B88
   X-Alpha parameter    XAlpha          ....  0.666667
   Becke's b parameter  XBeta           ....  0.004200
 Correlation Functional Correlation     .... LYP
 LDA part of GGA corr.  LDAOpt          .... VWN-5
 Gradients option       PostSCFGGA      .... off
 Hybrid DFT is turned on
   Fraction HF Exchange ScalHFX         ....  0.200000
   Scaling of DF-GGA-X  ScalDFX         ....  0.720000
   Scaling of DF-GGA-C  ScalDFC         ....  0.810000
   Scaling of DF-LDA-C  ScalLDAC        ....  1.000000
   Perturbative correction              ....  0.000000
   Density functional embedding theory  .... OFF
   NL short-range parameter             ....  4.800000
 RI-approximation to the Coulomb term is turned on
   Number of AuxJ basis functions       .... 578
   RIJ-COSX (HFX calculated with COS-X)).... on


General Settings:
 Integral files         IntName         .... para_ts_optfreq_4
 Hartree-Fock type      HFTyp           .... RHF
 Total Charge           Charge          ....    1
 Multiplicity           Mult            ....    1
 Number of Electrons    NEL             ....   72
 Basis Dimension        Dim             ....  180
 Nuclear Repulsion      ENuc            ....    500.9514618325 Eh

Convergence Acceleration:
 DIIS                   CNVDIIS         .... on
   Start iteration      DIISMaxIt       ....    12
   Startup error        DIISStart       ....  0.200000
   # of expansion vecs  DIISMaxEq       ....     5
   Bias factor          DIISBfac        ....   1.050
   Max. coefficient     DIISMaxC        ....  10.000
 Trust-Rad. Augm. Hess. CNVTRAH         .... auto
   Auto Start mean grad. ratio tolernc. ....  1.125000
   Auto Start start iteration           ....    20
   Auto Start num. interpolation iter.  ....    10
   Max. Number of Micro iterations      ....    16
   Max. Number of Macro iterations      .... Maxiter - #DIIS iter
   Number of Davidson start vectors     ....     2
   Converg. threshold I  (grad. norm)   ....   1.000e-05
   Converg. threshold II (energy diff.) ....   1.000e-08
   Grad. Scal. Fac. for Micro threshold ....   0.100
   Minimum threshold for Micro iter.    ....   0.010
   NR start threshold (gradient norm)   ....   0.001
   Initial trust radius                 ....   0.400
   Minimum AH scaling param. (alpha)    ....   1.000
   Maximum AH scaling param. (alpha)    .... 1000.000
   Orbital update algorithm             .... Taylor
   White noise on init. David. guess    .... on
   Maximum white noise                  ....   0.010
   Quad. conv. algorithm                .... NR
 SOSCF                  CNVSOSCF        .... on
   Start iteration      SOSCFMaxIt      ....   150
   Startup grad/error   SOSCFStart      ....  0.003300
 Level Shifting         CNVShift        .... on
   Level shift para.    LevelShift      ....    0.2500
   Turn off err/grad.   ShiftErr        ....    0.0010
 Zerner damping         CNVZerner       .... off
 Static damping         CNVDamp         .... on
   Fraction old density DampFac         ....    0.7000
   Max. Damping (<1)    DampMax         ....    0.9800
   Min. Damping (>=0)   DampMin         ....    0.0000
   Turn off err/grad.   DampErr         ....    0.1000
 Fernandez-Rico         CNVRico         .... off

SCF Procedure:
 Maximum # iterations   MaxIter         ....   125
 SCF integral mode      SCFMode         .... Direct
   Integral package                     .... SHARK and LIBINT hybrid scheme
 Reset frequency        DirectResetFreq ....    20
 Integral Threshold     Thresh          ....  2.500e-11 Eh
 Primitive CutOff       TCut            ....  2.500e-12 Eh

Convergence Tolerance:
 Convergence Check Mode ConvCheckMode   .... Total+1el-Energy
 Convergence forced     ConvForced      .... 0
 Energy Change          TolE            ....  1.000e-08 Eh
 1-El. energy change                    ....  1.000e-05 Eh
 Orbital Gradient       TolG            ....  1.000e-05
 Orbital Rotation angle TolX            ....  1.000e-05
 DIIS Error             TolErr          ....  5.000e-07


Diagonalization of the overlap matrix:
Smallest eigenvalue                        ... 3.200e-04
Time for diagonalization                   ...    0.013 sec
Threshold for overlap eigenvalues          ... 1.000e-08
Number of eigenvalues below threshold      ... 0
Time for construction of square roots      ...    0.028 sec
Total time needed                          ...    0.041 sec

Time for model grid setup =    1.427 sec

------------------------------
INITIAL GUESS: MODEL POTENTIAL
------------------------------
Loading Hartree-Fock densities                     ... done
Calculating cut-offs                               ... done
Initializing the effective Hamiltonian             ... done
Setting up the integral package (SHARK)            ... done
Starting the Coulomb interaction                   ... done (   1.0 sec)
Reading the grid                                   ... done
Mapping shells                                     ... done
Starting the XC term evaluation                    ... done (   1.7 sec)
  promolecular density results
     # of electrons  =     72.995530895
     EX              =    -61.157513810
     EC              =     -2.474924016
     EX+EC           =    -63.632437826
Transforming the Hamiltonian                       ... done (   0.0 sec)
Diagonalizing the Hamiltonian                      ... done (   0.0 sec)
Back transforming the eigenvectors                 ... done (   0.0 sec)
Now organizing SCF variables                       ... done
                      ------------------
                      INITIAL GUESS DONE (   4.3 sec)
                      ------------------
-------------------
DFT GRID GENERATION
-------------------

General Integration Accuracy     IntAcc      ... 4.388
Radial Grid Type                 RadialGrid  ... OptM3 with GC (2021)
Angular Grid (max. ang.)         AngularGrid ... 4 (Lebedev-302)
Angular grid pruning method      GridPruning ... 4 (adaptive)
Weight generation scheme         WeightScheme... Becke
Basis function cutoff            BFCut       ... 1.0000e-11
Integration weight cutoff        WCut        ... 1.0000e-14
Angular grids for H and He will be reduced by one unit
Partially contracted basis set               ... off
Rotationally invariant grid construction     ... off

Total number of grid points                  ...    86179
Total number of batches                      ...     1354
Average number of points per batch           ...       63
Average number of grid points per atom       ...     4788
Time for grid setup =    5.105 sec

--------------------
COSX GRID GENERATION
--------------------

GRIDX 1
-------
General Integration Accuracy     IntAcc      ... 3.816
Radial Grid Type                 RadialGrid  ... OptM3 with GC (2021)
Angular Grid (max. ang.)         AngularGrid ... 1 (Lebedev-50)
Angular grid pruning method      GridPruning ... 4 (adaptive)
Weight generation scheme         WeightScheme... Becke
Basis function cutoff            BFCut       ... 1.0000e-11
Integration weight cutoff        WCut        ... 1.0000e-14
Angular grids for H and He will be reduced by one unit
Partially contracted basis set               ... on
Rotationally invariant grid construction     ... off

Total number of grid points                  ...    10993
Total number of batches                      ...      181
Average number of points per batch           ...       60
Average number of grid points per atom       ...      611
UseSFitting                                  ... on

GRIDX 2
-------
General Integration Accuracy     IntAcc      ... 4.020
Radial Grid Type                 RadialGrid  ... OptM3 with GC (2021)
Angular Grid (max. ang.)         AngularGrid ... 2 (Lebedev-110)
Angular grid pruning method      GridPruning ... 4 (adaptive)
Weight generation scheme         WeightScheme... Becke
Basis function cutoff            BFCut       ... 1.0000e-11
Integration weight cutoff        WCut        ... 1.0000e-14
Angular grids for H and He will be reduced by one unit
Partially contracted basis set               ... on
Rotationally invariant grid construction     ... off

Total number of grid points                  ...    24152
Total number of batches                      ...      387
Average number of points per batch           ...       62
Average number of grid points per atom       ...     1342
UseSFitting                                  ... on

GRIDX 3
-------
General Integration Accuracy     IntAcc      ... 4.338
Radial Grid Type                 RadialGrid  ... OptM3 with GC (2021)
Angular Grid (max. ang.)         AngularGrid ... 3 (Lebedev-194)
Angular grid pruning method      GridPruning ... 4 (adaptive)
Weight generation scheme         WeightScheme... Becke
Basis function cutoff            BFCut       ... 1.0000e-11
Integration weight cutoff        WCut        ... 1.0000e-14
Angular grids for H and He will be reduced by one unit
Partially contracted basis set               ... on
Rotationally invariant grid construction     ... off

Total number of grid points                  ...    53039
Total number of batches                      ...      835
Average number of points per batch           ...       63
Average number of grid points per atom       ...     2947
UseSFitting                                  ... on

Time for X-Grid setup             =    6.095 sec

--------------
SCF ITERATIONS
--------------
ITER       Energy         Delta-E        Max-DP      RMS-DP      [F,P]     Damp
               ***  Starting incremental Fock matrix formation  ***
  0   -475.2542532567   0.000000000000 0.09763956  0.00255304  0.2343582 0.7000
  1   -475.3609786892  -0.106725432510 0.04676751  0.00156602  0.0741407 0.7000
                               ***Turning on DIIS***
  2   -475.3964265430  -0.035447853749 0.06635001  0.00250115  0.0229931 0.0000
  3   -475.4608908170  -0.064464274004 0.02974104  0.00097725  0.0392230 0.0000
  4   -475.4712379973  -0.010347180353 0.01659840  0.00038856  0.0153999 0.0000
                      *** Initiating the SOSCF procedure ***
                           *** Shutting down DIIS ***
                      *** Re-Reading the Fockian *** 
                      *** Removing any level shift *** 
ITER      Energy       Delta-E        Grad      Rot      Max-DP    RMS-DP
  5   -475.47283790  -0.0015999001  0.001937  0.001937  0.006013  0.000162
               *** Restarting incremental Fock matrix formation ***
  6   -475.47293641  -0.0000985081  0.000637  0.004654  0.003285  0.000090
  7   -475.47293383   0.0000025772  0.000833  0.001522  0.001942  0.000054
  8   -475.47295534  -0.0000215077  0.000202  0.001376  0.000749  0.000030
  9   -475.47295472   0.0000006172  0.000235  0.000599  0.000433  0.000015
 10   -475.47295686  -0.0000021426  0.000058  0.000232  0.000304  0.000010
 11   -475.47295661   0.0000002487  0.000101  0.000120  0.000154  0.000006
 12   -475.47295700  -0.0000003837  0.000017  0.000137  0.000061  0.000003
 13   -475.47295699   0.0000000079  0.000043  0.000056  0.000058  0.000002
 14   -475.47295701  -0.0000000183  0.000020  0.000091  0.000036  0.000002
 15   -475.47295700   0.0000000068  0.000015  0.000060  0.000025  0.000001
                  ***Gradient check signals convergence***
              ***Rediagonalizing the Fockian in SOSCF/NRSCF***

               *****************************************************
               *                     SUCCESS                       *
               *           SCF CONVERGED AFTER  16 CYCLES          *
               *****************************************************

Old exchange energy                            =    -12.241292190 Eh
New exchange energy                            =    -12.241330247 Eh
Exchange energy change after final integration =     -0.000038057 Eh
Total energy after final integration           =   -475.472995068 Eh
Final COS-X integration done in                =    45.199 sec

----------------
TOTAL SCF ENERGY
----------------

Total Energy       :         -475.47299507 Eh          -12938.27797 eV

Components:
Nuclear Repulsion  :          500.95146183 Eh           13631.58229 eV
Electronic Energy  :         -976.42445690 Eh          -26569.86026 eV
One Electron Energy:        -1625.12018708 Eh          -44221.76848 eV
Two Electron Energy:          648.69573018 Eh           17651.90822 eV
Max COSX asymmetry :            0.00000187 Eh               0.00005 eV

Virial components:
Potential Energy   :         -946.26373763 Eh          -25749.14536 eV
Kinetic Energy     :          470.79074256 Eh           12810.86740 eV
Virial Ratio       :            2.00994551


DFT components:
N(Alpha)           :       36.000025033242 electrons
N(Beta)            :       36.000025033242 electrons
N(Total)           :       72.000050066484 electrons
E(X)               :      -48.810342944031 Eh       
E(C)               :       -2.882041595470 Eh       
E(XC)              :      -51.692384539501 Eh       
DFET-embed. en.    :        0.000000000000 Eh       

---------------
SCF CONVERGENCE
---------------

  Last Energy change         ...   -1.0721e-08  Tolerance :   1.0000e-08
  Last MAX-Density change    ...    3.1086e-15  Tolerance :   1.0000e-07
  Last RMS-Density change    ...    5.4585e-17  Tolerance :   5.0000e-09
  Last Orbital Gradient      ...    1.6383e-06  Tolerance :   1.0000e-05
  Last Orbital Rotation      ...    5.8021e-06  Tolerance :   1.0000e-05

             **** THE GBW FILE WAS UPDATED (para_ts_optfreq_4.gbw) ****
             **** DENSITY para_ts_optfreq_4.scfp WAS UPDATED ****
             **** ENERGY FILE WAS UPDATED (para_ts_optfreq_4.en.tmp) ****
             **** THE GBW FILE WAS UPDATED (para_ts_optfreq_4.gbw) ****
             **** DENSITY para_ts_optfreq_4.scfp WAS UPDATED ****
----------------
ORBITAL ENERGIES
----------------

  NO   OCC          E(Eh)            E(eV) 
   0   2.0000     -19.339383      -526.2514 
   1   2.0000     -19.338877      -526.2376 
   2   2.0000     -14.734044      -400.9337 
   3   2.0000     -10.472206      -284.9632 
   4   2.0000     -10.451315      -284.3947 
   5   2.0000     -10.443012      -284.1688 
   6   2.0000     -10.422444      -283.6091 
   7   2.0000     -10.421742      -283.5900 
   8   2.0000     -10.401441      -283.0376 
   9   2.0000     -10.399683      -282.9898 
  10   2.0000      -1.401999       -38.1503 
  11   2.0000      -1.236381       -33.6436 
  12   2.0000      -1.080028       -29.3891 
  13   2.0000      -0.998833       -27.1796 
  14   2.0000      -0.964960       -26.2579 
  15   2.0000      -0.898064       -24.4376 
  16   2.0000      -0.815026       -22.1780 
  17   2.0000      -0.803242       -21.8573 
  18   2.0000      -0.770615       -20.9695 
  19   2.0000      -0.731948       -19.9173 
  20   2.0000      -0.720556       -19.6073 
  21   2.0000      -0.687822       -18.7166 
  22   2.0000      -0.671635       -18.2761 
  23   2.0000      -0.666737       -18.1428 
  24   2.0000      -0.648953       -17.6589 
  25   2.0000      -0.639759       -17.4087 
  26   2.0000      -0.610632       -16.6161 
  27   2.0000      -0.576667       -15.6919 
  28   2.0000      -0.554956       -15.1011 
  29   2.0000      -0.542583       -14.7644 
  30   2.0000      -0.498943       -13.5769 
  31   2.0000      -0.489483       -13.3195 
  32   2.0000      -0.480969       -13.0878 
  33   2.0000      -0.477368       -12.9898 
  34   2.0000      -0.465484       -12.6665 
  35   2.0000      -0.460885       -12.5413 
  36   0.0000      -0.324321        -8.8252 
  37   0.0000      -0.248914        -6.7733 
  38   0.0000      -0.225220        -6.1286 
  39   0.0000      -0.215055        -5.8519 
  40   0.0000      -0.207261        -5.6399 
  41   0.0000      -0.163733        -4.4554 
  42   0.0000      -0.105873        -2.8810 
  43   0.0000      -0.100807        -2.7431 
  44   0.0000      -0.065090        -1.7712 
  45   0.0000      -0.055512        -1.5106 
  46   0.0000      -0.034679        -0.9437 
  47   0.0000      -0.013607        -0.3703 
  48   0.0000      -0.002784        -0.0758 
  49   0.0000       0.023229         0.6321 
  50   0.0000       0.054975         1.4959 
  51   0.0000       0.081235         2.2105 
  52   0.0000       0.107183         2.9166 
  53   0.0000       0.122130         3.3233 
  54   0.0000       0.129705         3.5294 
  55   0.0000       0.166361         4.5269 
  56   0.0000       0.206312         5.6140 
  57   0.0000       0.220714         6.0059 
  58   0.0000       0.232206         6.3187 
  59   0.0000       0.238693         6.4952 
  60   0.0000       0.258045         7.0218 
  61   0.0000       0.270465         7.3597 
  62   0.0000       0.277899         7.5620 
  63   0.0000       0.289783         7.8854 
  64   0.0000       0.301264         8.1978 
  65   0.0000       0.308101         8.3838 
  66   0.0000       0.327533         8.9126 
  67   0.0000       0.335672         9.1341 
  68   0.0000       0.348416         9.4809 
  69   0.0000       0.359410         9.7801 
  70   0.0000       0.372046        10.1239 
  71   0.0000       0.386881        10.5276 
  72   0.0000       0.397767        10.8238 
  73   0.0000       0.407595        11.0912 
  74   0.0000       0.414474        11.2784 
  75   0.0000       0.431257        11.7351 
  76   0.0000       0.446407        12.1474 
  77   0.0000       0.466523        12.6947 
  78   0.0000       0.480945        13.0872 
  79   0.0000       0.492100        13.3907 
  80   0.0000       0.502326        13.6690 
  81   0.0000       0.515233        14.0202 
  82   0.0000       0.519008        14.1229 
  83   0.0000       0.530167        14.4266 
  84   0.0000       0.538466        14.6524 
  85   0.0000       0.589577        16.0432 
  86   0.0000       0.593184        16.1414 
  87   0.0000       0.606826        16.5126 
  88   0.0000       0.652101        17.7446 
  89   0.0000       0.677008        18.4223 
  90   0.0000       0.714883        19.4530 
  91   0.0000       0.729375        19.8473 
  92   0.0000       0.749967        20.4076 
  93   0.0000       0.775524        21.1031 
  94   0.0000       0.794184        21.6108 
  95   0.0000       0.844496        22.9799 
  96   0.0000       0.861266        23.4362 
  97   0.0000       0.890175        24.2229 
  98   0.0000       0.906175        24.6583 
  99   0.0000       0.922427        25.1005 
 100   0.0000       0.978923        26.6379 
 101   0.0000       0.986528        26.8448 
 102   0.0000       1.019037        27.7294 
 103   0.0000       1.050865        28.5955 
 104   0.0000       1.071232        29.1497 
 105   0.0000       1.091470        29.7004 
 106   0.0000       1.100455        29.9449 
 107   0.0000       1.126478        30.6530 
 108   0.0000       1.157218        31.4895 
 109   0.0000       1.190567        32.3970 
 110   0.0000       1.202456        32.7205 
 111   0.0000       1.235867        33.6296 
 112   0.0000       1.247627        33.9497 
 113   0.0000       1.298168        35.3249 
 114   0.0000       1.326184        36.0873 
 115   0.0000       1.351124        36.7660 
 116   0.0000       1.386829        37.7375 
 117   0.0000       1.415699        38.5231 
 118   0.0000       1.429836        38.9078 
 119   0.0000       1.463537        39.8249 
 120   0.0000       1.481006        40.3002 
 121   0.0000       1.485909        40.4337 
 122   0.0000       1.497910        40.7602 
 123   0.0000       1.525180        41.5023 
 124   0.0000       1.544700        42.0334 
 125   0.0000       1.555083        42.3160 
 126   0.0000       1.556969        42.3673 
 127   0.0000       1.572278        42.7839 
 128   0.0000       1.607857        43.7520 
 129   0.0000       1.614259        43.9262 
 130   0.0000       1.647481        44.8302 
 131   0.0000       1.672013        45.4978 
 132   0.0000       1.677164        45.6379 
 133   0.0000       1.705049        46.3967 
 134   0.0000       1.727671        47.0123 
 135   0.0000       1.733364        47.1672 
 136   0.0000       1.746914        47.5360 
 137   0.0000       1.793109        48.7930 
 138   0.0000       1.804574        49.1050 
 139   0.0000       1.825279        49.6684 
 140   0.0000       1.872657        50.9576 
 141   0.0000       1.882875        51.2356 
 142   0.0000       1.924744        52.3749 
 143   0.0000       1.942771        52.8655 
 144   0.0000       1.958223        53.2860 
 145   0.0000       2.003998        54.5315 
 146   0.0000       2.063401        56.1480 
 147   0.0000       2.085364        56.7456 
 148   0.0000       2.113897        57.5221 
 149   0.0000       2.119852        57.6841 
 150   0.0000       2.156038        58.6688 
 151   0.0000       2.171728        59.0957 
 152   0.0000       2.179434        59.3054 
 153   0.0000       2.211326        60.1732 
 154   0.0000       2.217508        60.3415 
 155   0.0000       2.241091        60.9832 
 156   0.0000       2.311960        62.9116 
 157   0.0000       2.372921        64.5704 
 158   0.0000       2.409983        65.5790 
 159   0.0000       2.445023        66.5325 
 160   0.0000       2.467690        67.1493 
 161   0.0000       2.473028        67.2945 
 162   0.0000       2.479240        67.4635 
 163   0.0000       2.492902        67.8353 
 164   0.0000       2.519889        68.5697 
 165   0.0000       2.533878        68.9503 
 166   0.0000       2.555887        69.5492 
 167   0.0000       2.626331        71.4661 
 168   0.0000       2.693097        73.2829 
 169   0.0000       2.714946        73.8774 
 170   0.0000       2.782821        75.7244 
 171   0.0000       2.871387        78.1344 
 172   0.0000       2.874972        78.2320 
 173   0.0000       2.987304        81.2887 
 174   0.0000       3.050673        83.0130 
 175   0.0000       3.175983        86.4229 
 176   0.0000       3.223992        87.7293 
 177   0.0000       3.320946        90.3675 
 178   0.0000       3.548054        96.5475 
 179   0.0000       3.640716        99.0689 

                    ********************************
                    * MULLIKEN POPULATION ANALYSIS *
                    ********************************

-----------------------
MULLIKEN ATOMIC CHARGES
-----------------------
   0 C :    0.080612
   1 C :    0.061489
   2 C :    0.033656
   3 C :    0.159219
   4 C :    0.026366
   5 C :    0.075671
   6 C :   -0.242242
   7 H :    0.141053
   8 H :    0.177877
   9 H :    0.180123
  10 H :    0.037614
  11 H :    0.087965
  12 H :    0.087951
  13 H :    0.042934
  14 N :    0.206964
  15 O :   -0.151043
  16 O :   -0.152109
  17 H :    0.145902
Sum of atomic charges:    1.0000000

--------------------------------
MULLIKEN REDUCED ORBITAL CHARGES
--------------------------------
  0 C s       :     3.102975  s :     3.102975
      pz      :     0.976684  p :     2.771108
      px      :     0.865959
      py      :     0.928465
      dz2     :     0.010892  d :     0.045305
      dxz     :     0.009557
      dyz     :     0.011839
      dx2y2   :     0.006927
      dxy     :     0.006090
  1 C s       :     3.186537  s :     3.186537
      pz      :     0.922690  p :     2.718626
      px      :     0.909197
      py      :     0.886740
      dz2     :     0.009290  d :     0.033348
      dxz     :     0.007116
      dyz     :     0.009202
      dx2y2   :     0.003471
      dxy     :     0.004269
  2 C s       :     3.235921  s :     3.235921
      pz      :     0.938944  p :     2.695729
      px      :     0.845721
      py      :     0.911063
      dz2     :     0.008606  d :     0.034694
      dxz     :     0.007422
      dyz     :     0.009842
      dx2y2   :     0.003848
      dxy     :     0.004976
  3 C s       :     2.902455  s :     2.902455
      pz      :     0.863151  p :     2.891895
      px      :     1.009568
      py      :     1.019177
      dz2     :     0.011767  d :     0.046431
      dxz     :     0.009823
      dyz     :     0.007742
      dx2y2   :     0.006593
      dxy     :     0.010505
  4 C s       :     3.234508  s :     3.234508
      pz      :     0.953231  p :     2.704518
      px      :     0.863378
      py      :     0.887908
      dz2     :     0.008245  d :     0.034609
      dxz     :     0.009721
      dyz     :     0.009206
      dx2y2   :     0.003141
      dxy     :     0.004296
  5 C s       :     3.193233  s :     3.193233
      pz      :     0.877220  p :     2.697807
      px      :     0.931874
      py      :     0.888714
      dz2     :     0.008907  d :     0.033288
      dxz     :     0.006876
      dyz     :     0.009316
      dx2y2   :     0.003492
      dxy     :     0.004698
  6 C s       :     3.562494  s :     3.562494
      pz      :     0.840516  p :     2.659748
      px      :     0.928444
      py      :     0.890788
      dz2     :     0.008653  d :     0.020000
      dxz     :     0.002017
      dyz     :     0.004383
      dx2y2   :     0.002632
      dxy     :     0.002316
  7 H s       :     0.852837  s :     0.852837
      pz      :     0.000512  p :     0.006110
      px      :     0.001481
      py      :     0.004116
  8 H s       :     0.810913  s :     0.810913
      pz      :     0.001709  p :     0.011210
      px      :     0.008738
      py      :     0.000763
  9 H s       :     0.813523  s :     0.813523
      pz      :     0.001657  p :     0.006354
      px      :     0.002150
      py      :     0.002547
 10 H s       :     0.938447  s :     0.938447
      pz      :     0.004572  p :     0.023939
      px      :     0.006395
      py      :     0.012972
 11 H s       :     0.888025  s :     0.888025
      pz      :     0.010536  p :     0.024010
      px      :     0.006793
      py      :     0.006681
 12 H s       :     0.888072  s :     0.888072
      pz      :     0.004867  p :     0.023977
      px      :     0.007396
      py      :     0.011714
 13 H s       :     0.933288  s :     0.933288
      pz      :     0.009244  p :     0.023777
      px      :     0.008172
      py      :     0.006361
 14 N s       :     3.323500  s :     3.323500
      pz      :     1.157365  p :     3.349826
      px      :     1.097674
      py      :     1.094788
      dz2     :     0.024631  d :     0.119710
      dxz     :     0.025039
      dyz     :     0.019035
      dx2y2   :     0.030205
      dxy     :     0.020802
 15 O s       :     3.866249  s :     3.866249
      pz      :     1.716787  p :     4.260492
      px      :     1.219142
      py      :     1.324563
      dz2     :     0.003112  d :     0.024302
      dxz     :     0.003531
      dyz     :     0.002486
      dx2y2   :     0.007073
      dxy     :     0.008099
 16 O s       :     3.868260  s :     3.868260
      pz      :     1.463711  p :     4.259562
      px      :     1.501449
      py      :     1.294402
      dz2     :     0.004137  d :     0.024287
      dxz     :     0.004826
      dyz     :     0.006718
      dx2y2   :     0.004469
      dxy     :     0.004137
 17 H s       :     0.829917  s :     0.829917
      pz      :     0.003966  p :     0.024181
      px      :     0.010712
      py      :     0.009503


                     *******************************
                     * LOEWDIN POPULATION ANALYSIS *
                     *******************************

----------------------
LOEWDIN ATOMIC CHARGES
----------------------
   0 C :    0.071966
   1 C :   -0.000803
   2 C :    0.108259
   3 C :    0.002840
   4 C :    0.102479
   5 C :    0.000674
   6 C :   -0.126327
   7 H :    0.124844
   8 H :    0.154220
   9 H :    0.171322
  10 H :    0.054578
  11 H :    0.066981
  12 H :    0.066840
  13 H :    0.058434
  14 N :    0.276363
  15 O :   -0.125667
  16 O :   -0.126861
  17 H :    0.119858

-------------------------------
LOEWDIN REDUCED ORBITAL CHARGES
-------------------------------
  0 C s       :     2.894630  s :     2.894630
      pz      :     1.078748  p :     2.924668
      px      :     0.864346
      py      :     0.981574
      dz2     :     0.028700  d :     0.108736
      dxz     :     0.020870
      dyz     :     0.029165
      dx2y2   :     0.014550
      dxy     :     0.015452
  1 C s       :     2.859528  s :     2.859528
      pz      :     1.053112  p :     3.051616
      px      :     0.977147
      py      :     1.021358
      dz2     :     0.027060  d :     0.089659
      dxz     :     0.018813
      dyz     :     0.026083
      dx2y2   :     0.007345
      dxy     :     0.010358
  2 C s       :     2.880316  s :     2.880316
      pz      :     1.080894  p :     2.923704
      px      :     0.881677
      py      :     0.961134
      dz2     :     0.023651  d :     0.087721
      dxz     :     0.017191
      dyz     :     0.026056
      dx2y2   :     0.008581
      dxy     :     0.012242
  3 C s       :     2.857469  s :     2.857469
      pz      :     0.925168  p :     3.028136
      px      :     1.038150
      py      :     1.064818
      dz2     :     0.027150  d :     0.111555
      dxz     :     0.025170
      dyz     :     0.018056
      dx2y2   :     0.014758
      dxy     :     0.026421
  4 C s       :     2.879567  s :     2.879567
      pz      :     1.059717  p :     2.930415
      px      :     0.897072
      py      :     0.973626
      dz2     :     0.023305  d :     0.087538
      dxz     :     0.023052
      dyz     :     0.024529
      dx2y2   :     0.006431
      dxy     :     0.010222
  5 C s       :     2.856065  s :     2.856065
      pz      :     1.060554  p :     3.053580
      px      :     0.989225
      py      :     1.003801
      dz2     :     0.025328  d :     0.089681
      dxz     :     0.017370
      dyz     :     0.026255
      dx2y2   :     0.008316
      dxy     :     0.012412
  6 C s       :     3.182815  s :     3.182815
      pz      :     0.999957  p :     2.901907
      px      :     0.966216
      py      :     0.935734
      dz2     :     0.019489  d :     0.041605
      dxz     :     0.004338
      dyz     :     0.009824
      dx2y2   :     0.004465
      dxy     :     0.003489
  7 H s       :     0.864239  s :     0.864239
      pz      :     0.000545  p :     0.010917
      px      :     0.002792
      py      :     0.007580
  8 H s       :     0.822149  s :     0.822149
      pz      :     0.002624  p :     0.023631
      px      :     0.019489
      py      :     0.001519
  9 H s       :     0.818003  s :     0.818003
      pz      :     0.002220  p :     0.010675
      px      :     0.003633
      py      :     0.004823
 10 H s       :     0.873986  s :     0.873986
      pz      :     0.013473  p :     0.071435
      px      :     0.019759
      py      :     0.038203
 11 H s       :     0.858832  s :     0.858832
      pz      :     0.031017  p :     0.074187
      px      :     0.021660
      py      :     0.021510
 12 H s       :     0.859162  s :     0.859162
      pz      :     0.015376  p :     0.073998
      px      :     0.022657
      py      :     0.035965
 13 H s       :     0.870651  s :     0.870651
      pz      :     0.026565  p :     0.070915
      px      :     0.024839
      py      :     0.019511
 14 N s       :     3.059809  s :     3.059809
      pz      :     1.149011  p :     3.413705
      px      :     1.133718
      py      :     1.130976
      dz2     :     0.051681  d :     0.250122
      dxz     :     0.051627
      dyz     :     0.041296
      dx2y2   :     0.054607
      dxy     :     0.050912
 15 O s       :     3.612532  s :     3.612532
      pz      :     1.731867  p :     4.466367
      px      :     1.330888
      py      :     1.403611
      dz2     :     0.006594  d :     0.046768
      dxz     :     0.006272
      dyz     :     0.004269
      dx2y2   :     0.010410
      dxy     :     0.019224
 16 O s       :     3.612423  s :     3.612423
      pz      :     1.550442  p :     4.467644
      px      :     1.541809
      py      :     1.375393
      dz2     :     0.006321  d :     0.046793
      dxz     :     0.009176
      dyz     :     0.015617
      dx2y2   :     0.006926
      dxy     :     0.008753
 17 H s       :     0.807304  s :     0.807304
      pz      :     0.014332  p :     0.072838
      px      :     0.031426
      py      :     0.027080


                      *****************************
                      * MAYER POPULATION ANALYSIS *
                      *****************************

  NA   - Mulliken gross atomic population
  ZA   - Total nuclear charge
  QA   - Mulliken gross atomic charge
  VA   - Mayer's total valence
  BVA  - Mayer's bonded valence
  FA   - Mayer's free valence

  ATOM       NA         ZA         QA         VA         BVA        FA
  0 C      5.9194     6.0000     0.0806     3.6990     3.6990    -0.0000
  1 C      5.9385     6.0000     0.0615     3.8815     3.8815     0.0000
  2 C      5.9663     6.0000     0.0337     3.9018     3.9018     0.0000
  3 C      5.8408     6.0000     0.1592     3.7367     3.7367    -0.0000
  4 C      5.9736     6.0000     0.0264     3.9123     3.9123    -0.0000
  5 C      5.9243     6.0000     0.0757     3.8401     3.8401     0.0000
  6 C      6.2422     6.0000    -0.2422     3.5916     3.5916     0.0000
  7 H      0.8589     1.0000     0.1411     0.9724     0.9724    -0.0000
  8 H      0.8221     1.0000     0.1779     0.9562     0.9562    -0.0000
  9 H      0.8199     1.0000     0.1801     0.9578     0.9578     0.0000
 10 H      0.9624     1.0000     0.0376     1.0040     1.0040     0.0000
 11 H      0.9120     1.0000     0.0880     1.0064     1.0064    -0.0000
 12 H      0.9120     1.0000     0.0880     1.0052     1.0052    -0.0000
 13 H      0.9571     1.0000     0.0429     0.9968     0.9968    -0.0000
 14 N      6.7930     7.0000     0.2070     3.9925     3.9925     0.0000
 15 O      8.1510     8.0000    -0.1510     2.0591     2.0591     0.0000
 16 O      8.1521     8.0000    -0.1521     2.0496     2.0496     0.0000
 17 H      0.8541     1.0000     0.1459     0.9759     0.9759    -0.0000

  Mayer bond orders larger than 0.100000
B(  0-C ,  1-C ) :   1.2030 B(  0-C ,  5-C ) :   1.1849 B(  0-C ,  6-C ) :   1.0440 
B(  1-C ,  2-C ) :   1.6011 B(  1-C , 10-H ) :   0.9861 B(  2-C ,  3-C ) :   1.0365 
B(  2-C , 11-H ) :   0.9639 B(  3-C ,  4-C ) :   1.0353 B(  3-C , 14-N ) :   0.7277 
B(  3-C , 17-H ) :   0.8101 B(  4-C ,  5-C ) :   1.6081 B(  4-C , 12-H ) :   0.9642 
B(  5-C , 13-H ) :   0.9934 B(  6-C ,  7-H ) :   0.8814 B(  6-C ,  8-H ) :   0.8554 
B(  6-C ,  9-H ) :   0.7796 B( 14-N , 15-O ) :   1.6051 B( 14-N , 16-O ) :   1.5944 
B( 15-O , 16-O ) :   0.2941 

-------
TIMINGS
-------

Total SCF time: 0 days 0 hours 6 min 18 sec 

Total time                  ....     378.497 sec
Sum of individual times     ....     376.856 sec  ( 99.6%)

Fock matrix formation       ....     360.886 sec  ( 95.3%)
  Split-RI-J                ....      22.962 sec  (  6.4% of F)
  Chain of spheres X        ....     288.468 sec  ( 79.9% of F)
  XC integration            ....      49.314 sec  ( 13.7% of F)
    Basis function eval.    ....      19.352 sec  ( 39.2% of XC)
    Density eval.           ....      14.229 sec  ( 28.9% of XC)
    XC-Functional eval.     ....       3.665 sec  (  7.4% of XC)
    XC-Potential eval.      ....       9.399 sec  ( 19.1% of XC)
Diagonalization             ....       0.079 sec  (  0.0%)
Density matrix formation    ....       0.021 sec  (  0.0%)
Population analysis         ....       0.095 sec  (  0.0%)
Initial guess               ....       2.833 sec  (  0.7%)
Orbital Transformation      ....       0.000 sec  (  0.0%)
Orbital Orthonormalization  ....       0.000 sec  (  0.0%)
DIIS solution               ....       0.174 sec  (  0.0%)
SOSCF solution              ....       0.141 sec  (  0.0%)
Grid generation             ....      12.627 sec  (  3.3%)

Maximum memory used throughout the entire SCF-calculation: 75.7 MB


-------------------------------------------------------------------------------
                          DFT DISPERSION CORRECTION                            
                                                                               
                                 DFTD4 V2.5                                    
-------------------------------------------------------------------------------
The B3LYP functional is recognized
Active option DFTDOPT                   ...         5   

Starting D4
-------------------------   ----------------
Dispersion correction           -0.029249559
-------------------------   ----------------


-------------------------   --------------------
FINAL SINGLE POINT ENERGY      -475.502244627429
-------------------------   --------------------

------------------------------------------------------------------------------
                         ORCA SCF GRADIENT CALCULATION
------------------------------------------------------------------------------

 ... reading COSX grid (gridx3)
Gradient of the Kohn-Sham DFT energy:
Kohn-Sham wavefunction type      ... RKS
Hartree-Fock exchange scaling    ...    0.200
Number of operators              ...    1
Number of atoms                  ...   18
Basis set dimensions             ...  180
Integral neglect threshold       ... 2.5e-11
Integral primitive cutoff        ... 2.5e-12
SHARK Integral package           ... ON

Nuc. rep. gradient       (SHARK) ... done (  0.0 sec)
HCore & Overlap gradient (SHARK) ... done (  0.9 sec)
RI-J gradient            (SHARK) ... done (  6.5 sec)
COSX-gradient                    ... done ( 59.5 sec)
Exchange-correlation gradient    ... done
Dispersion correction            ... Starting D4


------------------- 
Dispersion Gradient 
------------------- 
   1  :    0.000031565    0.000109319    0.000358098
   2  :   -0.000334082    0.000442101    0.000078135
   3  :   -0.000425828    0.000303775   -0.000226747
   4  :   -0.000081967   -0.000157735   -0.000309598
   5  :    0.000235830   -0.000522651    0.000020383
   6  :    0.000294346   -0.000348487    0.000324670
   7  :    0.000100623    0.000254564    0.000776317
   8  :   -0.000065226    0.000216313    0.000183042
   9  :    0.000108543    0.000082379    0.000193478
  10  :   -0.000140576   -0.000085808    0.000304908
  11  :   -0.000106729    0.000167187   -0.000007457
  12  :   -0.000128342    0.000125273   -0.000101719
  13  :    0.000111478   -0.000173324   -0.000011992
  14  :    0.000131783   -0.000134310    0.000077635
  15  :    0.000117284   -0.000083869   -0.000606293
  16  :    0.000279565   -0.000189143   -0.000421700
  17  :   -0.000018652    0.000116131   -0.000512629
  18  :   -0.000109617   -0.000121717   -0.000118532

  |G| =    0.001329148

done

------------------
CARTESIAN GRADIENT
------------------

   1   C   :    0.017093936   -0.009670195   -0.023145120
   2   C   :   -0.000264106   -0.001966203    0.000717405
   3   C   :   -0.003882068    0.004433597    0.004243664
   4   C   :   -0.000238599    0.000319354    0.003989120
   5   C   :    0.000436848   -0.004050843   -0.000181755
   6   C   :   -0.007057924    0.001541008    0.002960502
   7   C   :   -0.006246968   -0.009303632   -0.020284535
   8   H   :   -0.046469446    0.073243785   -0.005133292
   9   H   :    0.092119707   -0.004446746    0.009145140
  10   H   :   -0.048927169   -0.055083523    0.027544214
  11   H   :    0.002603290   -0.003635256   -0.002263570
  12   H   :    0.004022056   -0.003416091    0.005221694
  13   H   :   -0.003080208    0.006054696    0.002026224
  14   H   :   -0.003601457    0.004054720   -0.005396148
  15   N   :   -0.000971422   -0.001503777   -0.000498444
  16   O   :    0.000044153    0.001069924   -0.000566704
  17   O   :    0.000951829   -0.000280422   -0.000016878
  18   H   :    0.003390708    0.002594361    0.001684110

Difference to translation invariance:
           :   -0.0000768405   -0.0000452431    0.0000456258

Difference to rotation invariance:
           :   -0.0005334074    0.0010622612    0.0000525999

Norm of the cartesian gradient     ...    0.1554087775
RMS gradient                       ...    0.0211484559
MAX gradient                       ...    0.0921197065

-------
TIMINGS
-------

Total SCF gradient time            ...       89.255 sec

One electron gradient       ....       0.868 sec  (  1.0%)
RI-J Coulomb gradient       ....       6.516 sec  (  7.3%)
COSX gradient               ....      59.479 sec  ( 66.6%)
XC gradient                 ....      20.166 sec  ( 22.6%)

Maximum memory used throughout the entire SCFGRAD-calculation: 60.9 MB
------------------------------------------------------------------------------
                         ORCA GEOMETRY RELAXATION STEP
------------------------------------------------------------------------------

Reading the OPT-File                    .... done
Getting information on internals        .... done
Copying old internal coords+grads       .... done
Making the new internal coordinates     .... (new redundants).... done
Validating the new internal coordinates .... (new redundants).... done
Calculating the B-matrix                .... done
Calculating the G,G- and P matrices     .... done
Transforming gradient to internals      .... done
Projecting the internal gradient        .... done
Number of atoms                         ....  18
Number of internal coordinates          ....  97
Current Energy                          ....  -475.502244627 Eh
Current gradient norm                   ....     0.155408777 Eh/bohr
Maximum allowed component of the step   ....  0.300
Current trust radius                    ....  0.300
Evaluating the initial hessian          ....  (Almloef) done
Projecting the Hessian                  .... done
Forming the augmented Hessian           .... done
Diagonalizing the augmented Hessian     .... done
Last element of RFO vector              ....  0.756719323
Lowest eigenvalues of augmented Hessian:
 -0.129044795  0.017542010  0.022643632  0.023999525  0.024707298
Length of the computed step             ....  0.863913326
Warning: the length of the step is outside the trust region - taking restricted step instead
The input lambda is                     ....    -0.129045
   iter:   1  x=   -0.204002  g=    8.756256 f(x)=     0.656346
   iter:   2  x=   -0.296892  g=    2.920672 f(x)=     0.271301
   iter:   3  x=   -0.387387  g=    1.119235 f(x)=     0.101285
   iter:   4  x=   -0.441081  g=    0.552292 f(x)=     0.029655
   iter:   5  x=   -0.453263  g=    0.388692 f(x)=     0.004735
   iter:   6  x=   -0.453741  g=    0.360883 f(x)=     0.000172
   iter:   7  x=   -0.453741  g=    0.359848 f(x)=     0.000000
   iter:   8  x=   -0.453741  g=    0.359847 f(x)=     0.000000
   iter:   9  x=   -0.453741  g=    0.359847 f(x)=     0.000000
The output lambda is                    ....    -0.453741 (9 iterations)
The final length of the internal step   ....  0.300000000
Converting the step to cartesian space:
 Initial RMS(Int)=    0.0304603850
Transforming coordinates:
 Iter   0:  RMS(Cart)=    0.0419825647 RMS(Int)=    0.0304311423
 Iter   1:  RMS(Cart)=    0.0007017759 RMS(Int)=    0.0004718093
 Iter   2:  RMS(Cart)=    0.0000384035 RMS(Int)=    0.0000217806
 Iter   3:  RMS(Cart)=    0.0000021906 RMS(Int)=    0.0000011395
 Iter   4:  RMS(Cart)=    0.0000001209 RMS(Int)=    0.0000000591
 Iter   5:  RMS(Cart)=    0.0000000062 RMS(Int)=    0.0000000030
Imposing constraints:
 Iter   0:  RMS(Cart)=    0.0000114820 RMS(Int)=    0.0000061367
 Iter   1:  RMS(Cart)=    0.0000059321 RMS(Int)=    0.0000033863
 Iter   2:  RMS(Cart)=    0.0000031628 RMS(Int)=    0.0000019694
 Iter   3:  RMS(Cart)=    0.0000017077 RMS(Int)=    0.0000012039
 Iter   4:  RMS(Cart)=    0.0000009407 RMS(Int)=    0.0000007730
 Iter   5:  RMS(Cart)=    0.0000005309 RMS(Int)=    0.0000005182
 Iter   6:  RMS(Cart)=    0.0000003091 RMS(Int)=    0.0000003590
 Iter   7:  RMS(Cart)=    0.0000001870 RMS(Int)=    0.0000002543
 Iter   8:  RMS(Cart)=    0.0000001182 RMS(Int)=    0.0000001827
 Iter   9:  RMS(Cart)=    0.0000000779 RMS(Int)=    0.0000001323
 Iter  10:  RMS(Cart)=    0.0000000531 RMS(Int)=    0.0000000962
CONVERGED
done
Storing new coordinates                 .... done

                                .--------------------.
          ----------------------|Geometry convergence|-------------------------
          Item                value                   Tolerance       Converged
          ---------------------------------------------------------------------
          RMS gradient        0.0153113134            0.0001000000      NO
          MAX gradient        0.0916436919            0.0003000000      NO
          RMS step            0.0304603850            0.0020000000      NO
          MAX step            0.1753446105            0.0040000000      NO
          ........................................................
          Max(Bonds)      0.0928      Max(Angles)    1.32
          Max(Dihed)        1.82      Max(Improp)    0.00
          ---------------------------------------------------------------------

The optimization has not yet converged - more geometry cycles are needed


    ---------------------------------------------------------------------------
                         Redundant Internal Coordinates
                            (Angstroem and degrees)

        Definition                    Value    dE/dq     Step     New-Value
    ----------------------------------------------------------------------------
     1. B(C   1,C   0)                1.4252 -0.001799  0.0000    1.4252 C 
     2. B(C   2,C   1)                1.3531 -0.010435 -0.0000    1.3531 C 
     3. B(C   3,C   2)                1.4711 -0.003268 -0.0000    1.4711 C 
     4. B(C   4,C   3)                1.4685 -0.005881 -0.0000    1.4685 C 
     5. B(C   5,C   4)                1.3570 -0.006250  0.0000    1.3570 C 
     6. B(C   5,C   0)                1.4209 -0.010920  0.0000    1.4209 C 
     7. B(C   6,C   0)                1.4796  0.012754 -0.0000    1.4796 C 
     8. B(H   7,C   6)                1.8023  0.081839 -0.0886    1.7137   
     9. B(H   8,C   6)                1.5401  0.091644 -0.0928    1.4473   
    10. B(H   9,C   6)                1.7902  0.078406 -0.0862    1.7040   
    11. B(H  10,C   1)                1.0846 -0.000963 -0.0000    1.0846   
    12. B(H  10,H   7)                2.1715 -0.002043  0.0040    2.1755   
    13. B(H  11,C   2)                1.0827 -0.007412  0.0048    1.0874   
    14. B(H  12,C   4)                1.0829 -0.007039  0.0045    1.0874   
    15. B(H  13,C   5)                1.0820 -0.007585  0.0049    1.0868   
    16. B(N  14,C   3)                1.5878  0.000966  0.0000    1.5878 C 
    17. B(O  15,N  14)                1.2026 -0.000523 -0.0000    1.2026 C 
    18. B(O  16,N  14)                1.2028 -0.000582  0.0000    1.2028 C 
    19. B(H  17,C   3)                1.1090 -0.004515  0.0030    1.1120   
    20. A(C   1,C   0,C   5)          120.16  0.001586   -0.00    120.16 C 
    21. A(C   1,C   0,C   6)          118.82 -0.002164   -0.00    118.82 C 
    22. A(C   5,C   0,C   6)          120.95  0.000466   -0.00    120.95 C 
    23. A(C   2,C   1,H  10)          120.16 -0.008592    0.93    121.09   
    24. A(C   0,C   1,H  10)          118.96  0.010875   -0.93    118.03   
[...]
     14      -0.067766   0.385576  -0.290615   0.019635  -0.001363  -0.000776
     15       0.142770  -0.002969  -0.026416   0.015235  -0.000744  -0.000219
     16      -0.207495  -0.128337   0.156994  -0.026447   0.000943   0.000850
     17      -0.060747  -0.334436   0.296680  -0.021085   0.001256   0.001096
     18       0.019681  -0.017636   0.008989   0.001297   0.001161   0.043893
     19      -0.040526   0.018187   0.011923  -0.001627   0.000368   0.012826
     20      -0.016461  -0.009830   0.019720   0.000092  -0.001013  -0.045794
     21       0.207728  -0.024139  -0.094083   0.001841   0.000385  -0.014422
     22      -0.009906   0.012584  -0.002869  -0.001059   0.007537   0.274530
     23      -0.264801   0.076790  -0.020611  -0.010521   0.000401   0.007182
     24      -0.150899   0.022971  -0.012355  -0.003381   0.005432   0.220164
     25       0.151623  -0.016905  -0.078047   0.004249  -0.001223  -0.075730
     26       0.377484  -0.097462  -0.008732   0.011072   0.002911   0.124536
     27       0.126042  -0.032595   0.002896   0.001184  -0.020693  -0.739854
     28      -0.203955   0.047854   0.026165  -0.002660  -0.009951  -0.358045
     29       0.032612  -0.010692  -0.019658  -0.000556   0.012679   0.417301
     30       0.011834  -0.172365  -0.210819  -0.015997  -0.002056   0.001208
     31      -0.081024   0.191122   0.176206  -0.006171   0.000410  -0.001801
     32      -0.186101  -0.147872  -0.271578  -0.037219   0.000182  -0.001458
     33       0.000714  -0.174619  -0.178714  -0.015587  -0.001992  -0.000004
     34      -0.113737   0.250079   0.279035  -0.030545   0.005915  -0.000192
     35      -0.214962   0.083580   0.082581  -0.077483  -0.009476  -0.000012
     36       0.097436  -0.200610   0.185821   0.005250   0.008259  -0.000261
     37       0.050671   0.170815  -0.141054   0.044197  -0.005791  -0.000052
     38       0.344574  -0.249346   0.203902   0.067962  -0.006180  -0.000073
     39       0.001265  -0.213254   0.180419  -0.005819  -0.000131  -0.001296
     40       0.105766   0.267594  -0.272481   0.031340  -0.001971   0.000835
     41       0.300304   0.052462  -0.127543   0.034681   0.000878  -0.002178
     42       0.015159   0.010931  -0.015963  -0.574328  -0.000845   0.000157
     43      -0.017546  -0.009903   0.003828   0.554920  -0.000220  -0.000004
     44       0.013957   0.001749   0.046177  -0.200317   0.001364  -0.000483
     45      -0.009599  -0.005052   0.020918   0.303470   0.000316  -0.000137
     46       0.005016   0.004921  -0.014041  -0.223936  -0.000247   0.000073
     47       0.003596  -0.002501  -0.009159  -0.062499  -0.000210   0.000114
     48      -0.007270  -0.003899  -0.008360   0.180359  -0.000076   0.000020
     49       0.014045   0.003737   0.013669  -0.243351   0.000206  -0.000082
     50      -0.016700   0.000907  -0.017777   0.231049  -0.000347   0.000168
     51       0.031062  -0.022885   0.000004  -0.026369   0.699452  -0.019211
     52      -0.027346   0.020230   0.007362   0.040509   0.675570  -0.018079
     53       0.014081   0.002773  -0.012418  -0.035251   0.216394  -0.004833
                 48         49         50         51         52         53    
      0       0.000467   0.000367  -0.001838  -0.000991  -0.001141  -0.000093
      1      -0.000218  -0.000606   0.001676   0.001910   0.001142   0.000873
      2      -0.001961  -0.000584  -0.001372   0.000822  -0.000736   0.001227
      3       0.000267  -0.000494   0.037882  -0.007879   0.017651  -0.011449
      4      -0.000846   0.001661  -0.060835   0.012470  -0.030717   0.019519
      5      -0.000580   0.000305  -0.020806   0.004094  -0.016154   0.009596
      6      -0.000009   0.000025  -0.022621   0.005603   0.035772  -0.021305
      7      -0.000028  -0.000063   0.020838  -0.005372  -0.029601   0.018002
      8       0.000044  -0.000217  -0.025827   0.006240   0.049286  -0.029043
      9       0.000153   0.000061  -0.000060   0.000645  -0.001163  -0.001500
     10       0.000116   0.000081  -0.000552   0.000206   0.001895  -0.000832
     11      -0.000030   0.000063   0.000099   0.000063  -0.000241  -0.001180
     12      -0.000005   0.000045  -0.003841  -0.022584   0.021521   0.036499
     13       0.000010  -0.000149   0.005464   0.030550  -0.031397  -0.052522
     14      -0.000022   0.000002   0.001898   0.009350  -0.014696  -0.024021
     15      -0.000151  -0.001812   0.009450   0.044551   0.011283   0.020972
     16       0.000327   0.000903  -0.007261  -0.034837  -0.007486  -0.014530
     17      -0.000816  -0.001340   0.010732   0.050105   0.016456   0.029161
     18       0.051451   0.061726   0.001016   0.001573   0.000620   0.000430
     19       0.060019  -0.066185  -0.001828  -0.000853  -0.000893   0.000061
     20       0.015119   0.029604   0.000429   0.000870   0.000287   0.000260
     21       0.085493  -0.052504  -0.001614  -0.000806  -0.000817   0.000116
     22      -0.759201   0.576964   0.018078   0.003874   0.008463  -0.002425
     23      -0.044990   0.032815   0.002256  -0.001171   0.000955  -0.000999
     24      -0.425050  -0.651450  -0.010081  -0.017122  -0.006378  -0.004805
     25       0.173641   0.247800   0.004569   0.005756   0.002556   0.001414
     26      -0.272128  -0.405448  -0.005543  -0.012441  -0.003906  -0.004044
     27      -0.281136  -0.030335   0.000622  -0.001400  -0.000010  -0.000134
     28      -0.126521  -0.035385  -0.000497  -0.001302  -0.000454  -0.000373
     29       0.166474   0.029121   0.000565   0.000577   0.000587  -0.000829
     30      -0.004076   0.008243  -0.426985   0.085496  -0.206225   0.129173
     31       0.008465  -0.015106   0.692913  -0.138506   0.335575  -0.210701
     32       0.003386  -0.006339   0.246693  -0.049245   0.121625  -0.076339
     33       0.000015  -0.000613   0.261263  -0.062441  -0.409782   0.238868
     34      -0.000543   0.000199  -0.230838   0.055652   0.361111  -0.210900
     35       0.000795  -0.000510   0.324173  -0.078344  -0.513362   0.300819
     36      -0.000882  -0.001557   0.047245   0.257374  -0.253363  -0.417263
     37       0.000222   0.002692  -0.066582  -0.358713   0.354346   0.582335
     38       0.000527   0.001035  -0.024927  -0.137225   0.137419   0.227736
     39       0.004648   0.014998  -0.109550  -0.503829  -0.132414  -0.239701
     40      -0.002960  -0.009992   0.083991   0.386927   0.101312   0.182859
     41       0.005764   0.018117  -0.125402  -0.576662  -0.152943  -0.276555
     42      -0.000002   0.000012  -0.000302  -0.000452   0.000773   0.000575
     43      -0.000020   0.000011   0.000513   0.000172  -0.000911  -0.000043
     44      -0.000004  -0.000064  -0.000285   0.000119   0.000345  -0.000272
     45       0.000007  -0.000031   0.000018   0.000167  -0.000168  -0.000255
     46       0.000004   0.000012  -0.000074  -0.000166   0.000225   0.000224
     47      -0.000002   0.000022   0.000110   0.000174  -0.000254  -0.000246
     48      -0.000000   0.000002   0.000221   0.000016  -0.000357   0.000074
     49       0.000001  -0.000001  -0.000227   0.000035   0.000350  -0.000151
     50       0.000002   0.000007  -0.000078  -0.000042   0.000137  -0.000006
     51      -0.000763  -0.000447   0.001330  -0.003133  -0.000806   0.007967
     52      -0.000441  -0.000654   0.002400  -0.002553  -0.002852   0.007902
     53       0.000176  -0.000029   0.000874  -0.001732  -0.000842   0.004797


-----------
IR SPECTRUM
-----------

 Mode   freq       eps      Int      T**2         TX        TY        TZ
       cm**-1   L/(mol*cm) km/mol    a.u.
----------------------------------------------------------------------------
  6:     36.03   0.000005    0.02  0.000043  ( 0.003651  0.005270 -0.001293)
  7:     59.31   0.000657    3.32  0.003457  ( 0.015967  0.024436  0.051035)
  8:     72.22   0.000287    1.45  0.001241  (-0.002371  0.034380 -0.007301)
  9:    193.52   0.000503    2.54  0.000811  (-0.010640 -0.020452 -0.016714)
 10:    200.75   0.000761    3.84  0.001183  (-0.023142  0.024262 -0.007643)
 11:    320.68   0.002260   11.42  0.002199  ( 0.009332 -0.005561 -0.045622)
 12:    339.08   0.000064    0.32  0.000059  ( 0.003401 -0.004666  0.005076)
 13:    364.12   0.000010    0.05  0.000009  (-0.000665 -0.000923  0.002774)
 14:    477.01   0.000419    2.12  0.000274  ( 0.013378  0.003121 -0.009229)
 15:    493.91   0.000271    1.37  0.000171  (-0.003750 -0.009285  0.008432)
 16:    578.85   0.001555    7.86  0.000838  (-0.017205 -0.006863  0.022253)
 17:    605.14   0.001043    5.27  0.000538  (-0.013529  0.017803 -0.006144)
 18:    628.34   0.006041   30.53  0.003000  ( 0.034046  0.018166 -0.038870)
 19:    722.66   0.004277   21.61  0.001847  (-0.032558 -0.027539  0.005324)
 20:    794.06   0.006084   30.75  0.002391  ( 0.003398 -0.009926 -0.047758)
 21:    800.14   0.000112    0.57  0.000044  (-0.004309  0.005004 -0.000231)
 22:    846.73   0.036254  183.21  0.013361  ( 0.039005  0.000268 -0.108812)
 23:    874.77   0.004028   20.36  0.001437  (-0.011570 -0.019092 -0.030636)
 24:    919.89   0.024321  122.91  0.008251  ( 0.016862 -0.011324 -0.088533)
 25:    992.54   0.005486   27.72  0.001725  ( 0.008226  0.004903 -0.040411)
 26:   1000.07   0.000356    1.80  0.000111  ( 0.005653 -0.008670 -0.002001)
 27:   1009.86   0.008182   41.35  0.002528  (-0.028464 -0.007043  0.040848)
 28:   1015.43   0.000764    3.86  0.000235  ( 0.010614 -0.009489 -0.005664)
 29:   1050.68   0.001723    8.71  0.000512  (-0.003404 -0.010602 -0.019690)
 30:   1078.94   0.001292    6.53  0.000374  (-0.012395  0.014389  0.003597)
 31:   1099.86   0.018141   91.68  0.005147  (-0.018480  0.003144  0.069252)
 32:   1150.02   0.001396    7.05  0.000379  (-0.012724  0.014620 -0.001746)
 33:   1207.12   0.005345   27.01  0.001382  ( 0.000066  0.013104  0.034785)
 34:   1259.80   0.005345   27.01  0.001324  ( 0.005315 -0.005858 -0.035518)
 35:   1312.21   0.003070   15.51  0.000730  (-0.017285  0.020751 -0.000784)
 36:   1348.97   0.017201   86.93  0.003979  ( 0.022285 -0.014138 -0.057295)
 37:   1375.84   0.002590   13.09  0.000588  ( 0.004214 -0.015969  0.017741)
 38:   1405.28   0.041358  209.00  0.009184  ( 0.027519 -0.001608 -0.091783)
 39:   1413.88   0.002048   10.35  0.000452  ( 0.009263 -0.018575  0.004603)
 40:   1463.44   0.004682   23.66  0.000998  (-0.017821 -0.001250  0.026063)
 41:   1484.76   0.022600  114.21  0.004750  ( 0.001044  0.014150  0.067444)
 42:   1523.96   0.005795   29.29  0.001187  (-0.020545  0.027582  0.001961)
 43:   1592.92   0.015344   77.54  0.003006  (-0.034092  0.042465 -0.006355)
 44:   1704.03   0.047019  237.62  0.008611  (-0.006860 -0.028966 -0.087890)
 45:   1779.07   0.051663  261.08  0.009062  (-0.066336  0.064184 -0.023284)
 46:   2942.78   0.012448   62.90  0.001320  ( 0.021969  0.024131  0.015970)
 47:   2989.32   0.015426   77.96  0.001610  (-0.008771  0.006543  0.038609)
 48:   3092.91   0.000657    3.32  0.000066  (-0.005340 -0.004647  0.004028)
 49:   3159.51   0.000371    1.87  0.000037  (-0.001782  0.003864  0.004300)
 50:   3200.64   0.000580    2.93  0.000057  ( 0.001550  0.000836  0.007312)
 51:   3201.83   0.001125    5.69  0.000110  ( 0.000254 -0.003905 -0.009714)
 52:   3214.28   0.006161   31.14  0.000598  (-0.015423  0.017291 -0.007830)
 53:   3216.32   0.001604    8.10  0.000156  (-0.004823  0.007175  0.008992)

* The epsilon (eps) is given for a Dirac delta lineshape.
** The dipole moment derivative (T) already includes vibrational overlap.

The first frequency considered to be a vibration is 6
The total number of vibrations considered is 48


--------------------------
THERMOCHEMISTRY AT 298.15K
--------------------------

Temperature         ... 298.15 K
Pressure            ... 1.00 atm
Total Mass          ... 138.15 AMU

Throughout the following assumptions are being made:
  (1) The electronic state is orbitally nondegenerate
  (2) There are no thermally accessible electronically excited states
  (3) Hindered rotations indicated by low frequency modes are not
      treated as such but are treated as vibrations and this may
      cause some error
  (4) All equations used are the standard statistical mechanics
      equations for an ideal gas
  (5) All vibrations are strictly harmonic

freq.      36.03  E(vib)   ...       0.54 
freq.      59.31  E(vib)   ...       0.51 
freq.      72.22  E(vib)   ...       0.50 
freq.     193.52  E(vib)   ...       0.36 
freq.     200.75  E(vib)   ...       0.35 
freq.     320.68  E(vib)   ...       0.25 
freq.     339.08  E(vib)   ...       0.23 
freq.     364.12  E(vib)   ...       0.22 
freq.     477.01  E(vib)   ...       0.15 
freq.     493.91  E(vib)   ...       0.14 
freq.     578.85  E(vib)   ...       0.11 
freq.     605.14  E(vib)   ...       0.10 
freq.     628.34  E(vib)   ...       0.09 
freq.     722.66  E(vib)   ...       0.07 
freq.     794.06  E(vib)   ...       0.05 
freq.     800.14  E(vib)   ...       0.05 
freq.     846.73  E(vib)   ...       0.04 
freq.     874.77  E(vib)   ...       0.04 
freq.     919.89  E(vib)   ...       0.03 
freq.     992.54  E(vib)   ...       0.02 
freq.    1000.07  E(vib)   ...       0.02 
freq.    1009.86  E(vib)   ...       0.02 
freq.    1015.43  E(vib)   ...       0.02 
freq.    1050.68  E(vib)   ...       0.02 
freq.    1078.94  E(vib)   ...       0.02 
freq.    1099.86  E(vib)   ...       0.02 
freq.    1150.02  E(vib)   ...       0.01 
freq.    1207.12  E(vib)   ...       0.01 
freq.    1259.80  E(vib)   ...       0.01 
freq.    1312.21  E(vib)   ...       0.01 
freq.    1348.97  E(vib)   ...       0.01 
freq.    1375.84  E(vib)   ...       0.01 
freq.    1405.28  E(vib)   ...       0.00 
freq.    1413.88  E(vib)   ...       0.00 
freq.    1463.44  E(vib)   ...       0.00 
freq.    1484.76  E(vib)   ...       0.00 
freq.    1523.96  E(vib)   ...       0.00 
freq.    1592.92  E(vib)   ...       0.00 
freq.    1704.03  E(vib)   ...       0.00 
freq.    1779.07  E(vib)   ...       0.00 
freq.    2942.78  E(vib)   ...       0.00 
freq.    2989.32  E(vib)   ...       0.00 
freq.    3092.91  E(vib)   ...       0.00 
freq.    3159.51  E(vib)   ...       0.00 
freq.    3200.64  E(vib)   ...       0.00 
freq.    3201.83  E(vib)   ...       0.00 
freq.    3214.28  E(vib)   ...       0.00 
freq.    3216.32  E(vib)   ...       0.00 

------------
INNER ENERGY
------------

The inner energy is: U= E(el) + E(ZPE) + E(vib) + E(rot) + E(trans)
    E(el)   - is the total energy from the electronic structure calculation
              = E(kin-el) + E(nuc-el) + E(el-el) + E(nuc-nuc)
    E(ZPE)  - the the zero temperature vibrational energy from the frequency calculation
    E(vib)  - the the finite temperature correction to E(ZPE) due to population
              of excited vibrational states
    E(rot)  - is the rotational thermal energy
    E(trans)- is the translational thermal energy

Summary of contributions to the inner energy U:
Electronic energy                ...   -475.76236625 Eh
Zero point energy                ...      0.14036579 Eh      88.08 kcal/mol
Thermal vibrational correction   ...      0.00643850 Eh       4.04 kcal/mol
Thermal rotational correction    ...      0.00141627 Eh       0.89 kcal/mol
Thermal translational correction ...      0.00141627 Eh       0.89 kcal/mol
-----------------------------------------------------------------------
Total thermal energy                   -475.61272942 Eh


Summary of corrections to the electronic energy:
(perhaps to be used in another calculation)
Total thermal correction                  0.00927104 Eh       5.82 kcal/mol
Non-thermal (ZPE) correction              0.14036579 Eh      88.08 kcal/mol
-----------------------------------------------------------------------
Total correction                          0.14963683 Eh      93.90 kcal/mol


--------
ENTHALPY
--------

The enthalpy is H = U + kB*T
                kB is Boltzmann's constant
Total free energy                 ...   -475.61272942 Eh 
Thermal Enthalpy correction       ...      0.00094421 Eh       0.59 kcal/mol
-----------------------------------------------------------------------
Total Enthalpy                    ...   -475.61178521 Eh


Note: Only C1 symmetry has been detected, increase convergence thresholds 
      if your molecule has a higher symmetry. Symmetry factor of 1.0 is   
      used for the rotational entropy correction. 
 

Note: Rotational entropy computed according to Herzberg 
Infrared and Raman Spectra, Chapter V,1, Van Nostrand Reinhold, 1945 
Point Group:  C1, Symmetry Number:   1  
Rotational constants in cm-1:     0.113454     0.027931     0.023410 

Vibrational entropy computed according to the QRRHO of S. Grimme
Chem.Eur.J. 2012 18 9955


-------
ENTROPY
-------

The entropy contributions are T*S = T*(S(el)+S(vib)+S(rot)+S(trans))
     S(el)   - electronic entropy
     S(vib)  - vibrational entropy
     S(rot)  - rotational entropy
     S(trans)- translational entropy
The entropies will be listed as multiplied by the temperature to get
units of energy

Electronic entropy                ...      0.00000000 Eh      0.00 kcal/mol
Vibrational entropy               ...      0.01114813 Eh      7.00 kcal/mol
Rotational entropy                ...      0.01399991 Eh      8.79 kcal/mol
Translational entropy             ...      0.01932890 Eh     12.13 kcal/mol
-----------------------------------------------------------------------
Final entropy term                ...      0.04447694 Eh     27.91 kcal/mol

In case the symmetry of your molecule has not been determined correctly
or in case you have a reason to use a different symmetry number we print 
out the resulting rotational entropy values for sn=1,12 :
 --------------------------------------------------------
|  sn= 1 | S(rot)=       0.01399991 Eh      8.79 kcal/mol|
|  sn= 2 | S(rot)=       0.01334546 Eh      8.37 kcal/mol|
|  sn= 3 | S(rot)=       0.01296262 Eh      8.13 kcal/mol|
|  sn= 4 | S(rot)=       0.01269100 Eh      7.96 kcal/mol|
|  sn= 5 | S(rot)=       0.01248031 Eh      7.83 kcal/mol|
|  sn= 6 | S(rot)=       0.01230817 Eh      7.72 kcal/mol|
|  sn= 7 | S(rot)=       0.01216262 Eh      7.63 kcal/mol|
|  sn= 8 | S(rot)=       0.01203654 Eh      7.55 kcal/mol|
|  sn= 9 | S(rot)=       0.01192534 Eh      7.48 kcal/mol|
|  sn=10 | S(rot)=       0.01182586 Eh      7.42 kcal/mol|
|  sn=11 | S(rot)=       0.01173587 Eh      7.36 kcal/mol|
|  sn=12 | S(rot)=       0.01165371 Eh      7.31 kcal/mol|
 --------------------------------------------------------


-------------------
GIBBS FREE ENERGY
-------------------

The Gibbs free energy is G = H - T*S

Total enthalpy                    ...   -475.61178521 Eh 
Total entropy correction          ...     -0.04447694 Eh    -27.91 kcal/mol
-----------------------------------------------------------------------
Final Gibbs free energy         ...   -475.65626215 Eh

For completeness - the Gibbs free energy minus the electronic energy
G-E(el)                           ...      0.10610410 Eh     66.58 kcal/mol


Timings for individual modules:

Sum of individual times         ...    10472.653 sec (= 174.544 min)
GTO integral calculation        ...       31.826 sec (=   0.530 min)   0.3 %
SCF iterations                  ...     6704.460 sec (= 111.741 min)  64.0 %
SCF Gradient evaluation         ...     1943.785 sec (=  32.396 min)  18.6 %
Geometry relaxation             ...       10.221 sec (=   0.170 min)   0.1 %
Analytical frequency calculation...     1782.361 sec (=  29.706 min)  17.0 %
                             ****ORCA TERMINATED NORMALLY****
TOTAL RUN TIME: 0 days 2 hours 54 minutes 59 seconds 486 msec
