
                                 *****************
                                 * O   R   C   A *
                                 *****************

                                            #,                                       
                                            ###                                      
                                            ####                                     
                                            #####                                    
                                            ######                                   
                                           ########,                                 
                                     ,,################,,,,,                         
                               ,,#################################,,                 
                          ,,##########################################,,             
                       ,#########################################, ''#####,          
                    ,#############################################,,   '####,        
                  ,##################################################,,,,####,       
                ,###########''''           ''''###############################       
              ,#####''   ,,,,##########,,,,          '''####'''          '####       
            ,##' ,,,,###########################,,,                        '##       
           ' ,,###''''                  '''############,,,                           
         ,,##''                                '''############,,,,        ,,,,,,###''
      ,#''                                            '''#######################'''  
     '                                                          ''''####''''         
             ,#######,   #######,   ,#######,      ##                                
            ,#'     '#,  ##    ##  ,#'     '#,    #''#        ######   ,####,        
            ##       ##  ##   ,#'  ##            #'  '#       #        #'  '#        
            ##       ##  #######   ##           ,######,      #####,   #    #        
            '#,     ,#'  ##    ##  '#,     ,#' ,#      #,         ##   #,  ,#        
             '#######'   ##     ##  '#######'  #'      '#     #####' # '####'        



                  #######################################################
                  #                        -***-                        #
                  #          Department of theory and spectroscopy      #
                  #    Directorship and core code : Frank Neese         #
                  #        Max Planck Institute fuer Kohlenforschung    #
                  #                Kaiser Wilhelm Platz 1               #
                  #                 D-45470 Muelheim/Ruhr               #
                  #                      Germany                        #
                  #                                                     #
                  #                  All rights reserved                #
                  #                        -***-                        #
                  #######################################################



                         Program Version 5.0.4 -  RELEASE  -

 With contributions from (in alphabetic order):
   Daniel Aravena         : Magnetic Suceptibility
   Michael Atanasov       : Ab Initio Ligand Field Theory (pilot matlab implementation)
   Alexander A. Auer      : GIAO ZORA, VPT2 properties, NMR spectrum
   Ute Becker             : Parallelization
   Giovanni Bistoni       : ED, misc. LED, open-shell LED, HFLD
   Martin Brehm           : Molecular dynamics
   Dmytro Bykov           : SCF Hessian
   Vijay G. Chilkuri      : MRCI spin determinant printing, contributions to CSF-ICE
   Dipayan Datta          : RHF DLPNO-CCSD density
   Achintya Kumar Dutta   : EOM-CC, STEOM-CC
   Dmitry Ganyushin       : Spin-Orbit,Spin-Spin,Magnetic field MRCI
   Miquel Garcia          : C-PCM and meta-GGA Hessian, CC/C-PCM, Gaussian charge scheme
   Yang Guo               : DLPNO-NEVPT2, F12-NEVPT2, CIM, IAO-localization
   Andreas Hansen         : Spin unrestricted coupled pair/coupled cluster methods
   Benjamin Helmich-Paris : MC-RPA, TRAH-SCF, COSX integrals
   Lee Huntington         : MR-EOM, pCC
   Robert Izsak           : Overlap fitted RIJCOSX, COSX-SCS-MP3, EOM
   Marcus Kettner         : VPT2
   Christian Kollmar      : KDIIS, OOCD, Brueckner-CCSD(T), CCSD density, CASPT2, CASPT2-K
   Simone Kossmann        : Meta GGA functionals, TD-DFT gradient, OOMP2, MP2 Hessian
   Martin Krupicka        : Initial AUTO-CI
   Lucas Lang             : DCDCAS
   Marvin Lechner         : AUTO-CI (C++ implementation), FIC-MRCC
   Dagmar Lenk            : GEPOL surface, SMD
   Dimitrios Liakos       : Extrapolation schemes; Compound Job, initial MDCI parallelization
   Dimitrios Manganas     : Further ROCIS development; embedding schemes
   Dimitrios Pantazis     : SARC Basis sets
   Anastasios Papadopoulos: AUTO-CI, single reference methods and gradients
   Taras Petrenko         : DFT Hessian,TD-DFT gradient, ASA, ECA, R-Raman, ABS, FL, XAS/XES, NRVS
   Peter Pinski           : DLPNO-MP2, DLPNO-MP2 Gradient
   Christoph Reimann      : Effective Core Potentials
   Marius Retegan         : Local ZFS, SOC
   Christoph Riplinger    : Optimizer, TS searches, QM/MM, DLPNO-CCSD(T), (RO)-DLPNO pert. Triples
   Tobias Risthaus        : Range-separated hybrids, TD-DFT gradient, RPA, STAB
   Michael Roemelt        : Original ROCIS implementation
   Masaaki Saitow         : Open-shell DLPNO-CCSD energy and density
   Barbara Sandhoefer     : DKH picture change effects
   Avijit Sen             : IP-ROCIS
   Kantharuban Sivalingam : CASSCF convergence, NEVPT2, FIC-MRCI
   Bernardo de Souza      : ESD, SOC TD-DFT
   Georgi Stoychev        : AutoAux, RI-MP2 NMR, DLPNO-MP2 response
   Willem Van den Heuvel  : Paramagnetic NMR
   Boris Wezisla          : Elementary symmetry handling
   Frank Wennmohs         : Technical directorship


 We gratefully acknowledge several colleagues who have allowed us to
 interface, adapt or use parts of their codes:
   Stefan Grimme, W. Hujo, H. Kruse, P. Pracht,  : VdW corrections, initial TS optimization,
                  C. Bannwarth, S. Ehlert          DFT functionals, gCP, sTDA/sTD-DF
   Ed Valeev, F. Pavosevic, A. Kumar             : LibInt (2-el integral package), F12 methods
   Garnet Chan, S. Sharma, J. Yang, R. Olivares  : DMRG
   Ulf Ekstrom                                   : XCFun DFT Library
   Mihaly Kallay                                 : mrcc  (arbitrary order and MRCC methods)
   Jiri Pittner, Ondrej Demel                    : Mk-CCSD
   Frank Weinhold                                : gennbo (NPA and NBO analysis)
   Christopher J. Cramer and Donald G. Truhlar   : smd solvation model
   Lars Goerigk                                  : TD-DFT with DH, B97 family of functionals
   V. Asgeirsson, H. Jonsson                     : NEB implementation
   FAccTs GmbH                                   : IRC, NEB, NEB-TS, DLPNO-Multilevel, CI-OPT
                                                   MM, QMMM, 2- and 3-layer-ONIOM, Crystal-QMMM,
                                                   LR-CPCM, SF, NACMEs, symmetry and pop. for TD-DFT,
                                                   nearIR, NL-DFT gradient (VV10), updates on ESD,
                                                   ML-optimized integration grids
   S Lehtola, MJT Oliveira, MAL Marques          : LibXC Library
   Liviu Ungur et al                             : ANISO software


 Your calculation uses the libint2 library for the computation of 2-el integrals
 For citations please refer to: http://libint.valeyev.net

 Your ORCA version has been built with support for libXC version: 5.1.0
 For citations please refer to: https://tddft.org/programs/libxc/

 This ORCA versions uses:
   CBLAS   interface :  Fast vector & matrix operations
   LAPACKE interface :  Fast linear algebra routines
   Shared memory     :  Shared parallel matrices


Your calculation utilizes the atom-pairwise dispersion correction
based on tight binding partial charges (D4)
Cite in your paper:
E.Caldeweyher, C.Bannwarth, S.Grimme, J.Chem.Phys., (2017), 147, 034112.
E.Caldeweyher, S.Ehlert, A.Hansen, H.Neugebauer, S.Grimme, J.Chem.Phys., (2018), in progress.
   

================================================================================

----- Orbital basis set information -----
Your calculation utilizes the basis: cc-pVTZ 
       H, B-Ne : Obtained from the ccRepo (grant-hill.group.shef.ac.uk/ccrepo) Feb. 2017
                 T. H. Dunning, Jr., J. Chem. Phys. 90, 1007 (1989)
            He : Obtained from the ccRepo (grant-hill.group.shef.ac.uk/ccrepo) Feb. 2017
                 D. E. Woon, T. H. Dunning, Jr., J. Chem. Phys. 100, 2975 (1994)
  Li-Be, Na-Mg : Obtained from the ccRepo (grant-hill.group.shef.ac.uk/ccrepo) Feb. 2017
                 B. P. Prascher, D. E. Woon, K. A. Peterson, T. H. Dunning, Jr., A. K. Wilson, Theor. Chem. Acc. 128, 69 (2011)
         Al-Ar : Obtained from the ccRepo (grant-hill.group.shef.ac.uk/ccrepo) Feb. 2017
                 D. E. Woon, T. H. Dunning, Jr., J. Chem. Phys. 98, 1358 (1993)
            Ca : Obtained from the Peterson Research Group Website (tyr0.chem.wsu.edu/~kipeters) Feb. 2017
                 J. Koput, K. A. Peterson, J. Phys. Chem. 106, 9595 (2002)
         Sc-Zn : Obtained from the ccRepo (grant-hill.group.shef.ac.uk/ccrepo) Feb. 2017
                 N. B. Balabanov, K. A. Peterson, J. Chem. Phys. 123, 064107 (2005)
                 N. B. Balabanov, K. A. Peterson, J. Chem. Phys. 125, 074110 (2006)
         Ga-Kr : Obtained from the ccRepo (grant-hill.group.shef.ac.uk/ccrepo) Feb. 2017
                 A. K. Wilson, D. E. Woon, K. A. Peterson, T. H. Dunning, Jr., J. Chem. Phys. 110, 7667 (1999)
             Y : Obtained from the ccRepo (grant-hill.group.shef.ac.uk/ccrepo) Feb. 2017
                 K. A. Peterson, D. Figgen, M. Dolg, H. Stoll, J. Chem. Phys. 126, 124101 (2007)
        Ag, Au : Obtained from the Peterson Research Group Website (tyr0.chem.wsu.edu/~kipeters) Feb. 2017
                 K. A. Peterson, C. Puzzarini, Theor. Chem. Acc. 114, 283 (2005)

----- AuxJ basis set information -----
Your calculation utilizes the auxiliary basis: def2/J
   F. Weigend, Phys. Chem. Chem. Phys. 8, 1057 (2006).

================================================================================
                                        WARNINGS
                       Please study these warnings very carefully!
================================================================================


WARNING: Geometry Optimization
  ===> : Switching off AutoStart
         For restart on a previous wavefunction, please use MOREAD

INFO   : the flag for use of the SHARK integral package has been found!

================================================================================
                                       INPUT FILE
================================================================================
NAME = opt.inp
|  1> !BP86 cc-pVTZ OPT FREQ D4
|  2> 
|  3> * xyz 0 1
|  4>    C       -2.64949        1.24322       -0.00000
|  5>    C       -3.76421        0.39133       -0.00000
|  6>    C       -3.59009       -0.99632       -0.00000
|  7>    C       -2.30271       -1.54491       -0.00000
|  8>    C       -1.18608       -0.69536       -0.00000
|  9>    C       -1.35922        0.69236       -0.00000
| 10>    H       -4.76626        0.80175       -0.00000
| 11>    H       -4.45679       -1.64538       -0.00000
| 12>    H       -0.18514       -1.10826       -0.00000
| 13>    H       -0.48925        1.33710       -0.00000
| 14>    N       -2.82543        2.64881       -0.00000
| 15>    H       -3.77000        3.06093       -0.00000
| 16>    H       -2.01157        3.28102       -0.00000
| 17>    O       -2.15138       -2.88469       -0.00000
| 18>    H       -1.27904       -3.30400       -0.00000
| 19> **                         ****END OF INPUT****
================================================================================

                       *****************************
                       * Geometry Optimization Run *
                       *****************************

Geometry optimization settings:
Update method            Update   .... BFGS
Choice of coordinates    CoordSys .... Z-matrix Internals
Initial Hessian          InHess   .... Almoef's Model

Convergence Tolerances:
Energy Change            TolE     ....  5.0000e-06 Eh
Max. Gradient            TolMAXG  ....  3.0000e-04 Eh/bohr
RMS Gradient             TolRMSG  ....  1.0000e-04 Eh/bohr
Max. Displacement        TolMAXD  ....  4.0000e-03 bohr
RMS Displacement         TolRMSD  ....  2.0000e-03 bohr
Strict Convergence                ....  False
------------------------------------------------------------------------------
                        ORCA OPTIMIZATION COORDINATE SETUP
------------------------------------------------------------------------------

The optimization will be done in new redundant internal coordinates
Making redundant internal coordinates   ...  (new redundants) done
Evaluating the initial hessian          ...  (Almloef) done
Evaluating the coordinates              ...  done
Calculating the B-matrix                .... done
Calculating the G-matrix                .... done
Diagonalizing the G-matrix              .... done
The first mode is                       ....   28
The number of degrees of freedom        ....   39

    -----------------------------------------------------------------
                    Redundant Internal Coordinates


    -----------------------------------------------------------------
         Definition                    Initial Value    Approx d2E/dq
    -----------------------------------------------------------------
      1. B(C   1,C   0)                  1.4030         0.595731   
      2. B(C   2,C   1)                  1.3985         0.605518   
      3. B(C   3,C   2)                  1.3994         0.603607   
      4. B(C   4,C   3)                  1.4031         0.595512   
      5. B(C   5,C   4)                  1.3985         0.605634   
      6. B(C   5,C   0)                  1.4029         0.595788   
      7. B(H   6,C   1)                  1.0828         0.369693   
      8. B(H   7,C   2)                  1.0828         0.369757   
      9. B(H   8,C   4)                  1.0828         0.369807   
     10. B(H   9,C   5)                  1.0828         0.369701   
     11. B(N  10,C   0)                  1.4166         0.507578   
     12. B(H  11,N  10)                  1.0306         0.401228   
     13. B(H  12,N  10)                  1.0306         0.401227   
     14. B(O  13,C   3)                  1.3483         0.652238   
     15. B(H  14,O  13)                  0.9679         0.505114   
     16. A(C   1,C   0,N  10)          120.2530         0.413132   
     17. A(C   5,C   0,N  10)          120.2540         0.413140   
     18. A(C   1,C   0,C   5)          119.4930         0.427892   
     19. A(C   0,C   1,H   6)          120.3392         0.352096   
     20. A(C   2,C   1,H   6)          119.4250         0.353068   
     21. A(C   0,C   1,C   2)          120.2357         0.429137   
     22. A(C   1,C   2,H   7)          119.6770         0.353078   
     23. A(C   3,C   2,H   7)          120.0907         0.352889   
     24. A(C   1,C   2,C   3)          120.2323         0.430150   
     25. A(C   2,C   3,C   4)          119.6553         0.428865   
     26. A(C   2,C   3,O  13)          119.5246         0.433082   
     27. A(C   4,C   3,O  13)          120.8201         0.432033   
     28. A(C   5,C   4,H   8)          119.5286         0.353098   
     29. A(C   3,C   4,H   8)          120.3188         0.352092   
     30. A(C   3,C   4,C   5)          120.1527         0.429123   
     31. A(C   4,C   5,H   9)          119.4306         0.353080   
     32. A(C   0,C   5,H   9)          120.3384         0.352102   
     33. A(C   0,C   5,C   4)          120.2311         0.429159   
     34. A(H  11,N  10,H  12)          118.5879         0.296055   
     35. A(C   0,N  10,H  12)          120.7055         0.342361   
     36. A(C   0,N  10,H  11)          120.7066         0.342361   
     37. A(C   3,O  13,H  14)          122.1166         0.371502   
     38. D(H   6,C   1,C   0,C   5)    180.0000         0.024447   
     39. D(C   2,C   1,C   0,C   5)      0.0000         0.024447   
     40. D(C   2,C   1,C   0,N  10)    180.0000         0.024447   
     41. D(H   6,C   1,C   0,N  10)      0.0000         0.024447   
     42. D(C   3,C   2,C   1,C   0)      0.0000         0.025302   
     43. D(C   3,C   2,C   1,H   6)    180.0000         0.025302   
     44. D(H   7,C   2,C   1,H   6)      0.0000         0.025302   
     45. D(H   7,C   2,C   1,C   0)    180.0000         0.025302   
     46. D(O  13,C   3,C   2,H   7)      0.0000         0.025133   
     47. D(O  13,C   3,C   2,C   1)    180.0000         0.025133   
     48. D(C   4,C   3,C   2,H   7)    180.0000         0.025133   
     49. D(C   4,C   3,C   2,C   1)      0.0000         0.025133   
     50. D(H   8,C   4,C   3,C   2)    180.0000         0.024428   
     51. D(C   5,C   4,C   3,O  13)    180.0000         0.024428   
     52. D(C   5,C   4,C   3,C   2)      0.0000         0.024428   
     53. D(H   8,C   4,C   3,O  13)      0.0000         0.024428   
     54. D(H   9,C   5,C   4,H   8)      0.0000         0.025312   
     55. D(C   0,C   5,C   4,H   8)    180.0000         0.025312   
     56. D(C   0,C   5,C   4,C   3)      0.0000         0.025312   
     57. D(H   9,C   5,C   0,N  10)      0.0000         0.024452   
     58. D(H   9,C   5,C   0,C   1)    180.0000         0.024452   
     59. D(H   9,C   5,C   4,C   3)    180.0000         0.025312   
     60. D(C   4,C   5,C   0,N  10)    180.0000         0.024452   
     61. D(C   4,C   5,C   0,C   1)      0.0000         0.024452   
     62. D(H  12,N  10,C   0,C   5)      0.0000         0.020388   
     63. D(H  12,N  10,C   0,C   1)    180.0000         0.020388   
     64. D(H  11,N  10,C   0,C   5)    180.0000         0.020388   
     65. D(H  11,N  10,C   0,C   1)      0.0000         0.020388   
     66. D(H  14,O  13,C   3,C   4)      0.0000         0.031458   
     67. D(H  14,O  13,C   3,C   2)    180.0000         0.031458   
    -----------------------------------------------------------------

Number of atoms                         .... 15
Number of degrees of freedom            .... 67

         *************************************************************
         *                GEOMETRY OPTIMIZATION CYCLE   1            *
         *************************************************************
---------------------------------
CARTESIAN COORDINATES (ANGSTROEM)
---------------------------------
  C     -2.649490    1.243220   -0.000000
  C     -3.764210    0.391330   -0.000000
  C     -3.590090   -0.996320   -0.000000
  C     -2.302710   -1.544910   -0.000000
  C     -1.186080   -0.695360   -0.000000
  C     -1.359220    0.692360   -0.000000
  H     -4.766260    0.801750   -0.000000
  H     -4.456790   -1.645380   -0.000000
  H     -0.185140   -1.108260   -0.000000
  H     -0.489250    1.337100   -0.000000
  N     -2.825430    2.648810   -0.000000
  H     -3.770000    3.060930   -0.000000
  H     -2.011570    3.281020   -0.000000
  O     -2.151380   -2.884690   -0.000000
  H     -1.279040   -3.304000   -0.000000

----------------------------
CARTESIAN COORDINATES (A.U.)
----------------------------
  NO LB      ZA    FRAG     MASS         X           Y           Z
   0 C     6.0000    0    12.011   -5.006810    2.349345   -0.000000
   1 C     6.0000    0    12.011   -7.113326    0.739507   -0.000000
   2 C     6.0000    0    12.011   -6.784287   -1.882772   -0.000000
   3 C     6.0000    0    12.011   -4.351491   -2.919457   -0.000000
   4 C     6.0000    0    12.011   -2.241366   -1.314040   -0.000000
   5 C     6.0000    0    12.011   -2.568554    1.308371   -0.000000
   6 H     1.0000    0     1.008   -9.006926    1.515088   -0.000000
   7 H     1.0000    0     1.008   -8.422113   -3.109318   -0.000000
   8 H     1.0000    0     1.008   -0.349864   -2.094308   -0.000000
   9 H     1.0000    0     1.008   -0.924549    2.526753   -0.000000
  10 N     7.0000    0    14.007   -5.339289    5.005525   -0.000000
  11 H     1.0000    0     1.008   -7.124268    5.784319   -0.000000
  12 H     1.0000    0     1.008   -3.801316    6.200229   -0.000000
  13 O     8.0000    0    15.999   -4.065519   -5.451274   -0.000000
  14 H     1.0000    0     1.008   -2.417035   -6.243655   -0.000000

--------------------------------
INTERNAL COORDINATES (ANGSTROEM)
--------------------------------
 C      0   0   0     0.000000000000     0.00000000     0.00000000
 C      1   0   0     1.402967302007     0.00000000     0.00000000
 C      2   1   0     1.398531478695   120.23574397     0.00000000
 C      3   2   1     1.399392101057   120.23226118     0.00000000
 C      4   3   2     1.403067268309   119.65527899     0.00000000
 C      5   4   3     1.398479266203   120.15265515     0.00000000
 H      2   1   3     1.082842915154   120.33921417   180.00000000
 H      3   2   1     1.082796275206   119.67704831   180.00000000
 H      5   4   3     1.082759111529   120.31879422   180.00000000
 H      6   5   4     1.082837692593   119.43056284   180.00000000
 N      1   2   3     1.416558552161   120.25304432   180.00000000
 H     11   1   2     1.030560711118   120.70655151     0.00000000
 H     11   1   2     1.030561780632   120.70551783   180.00000085
 O      4   3   2     1.348299379700   119.52458635   180.00000000
 H     14   4   3     0.967883232472   122.11664624   180.00000000

---------------------------
INTERNAL COORDINATES (A.U.)
---------------------------
 C      0   0   0     0.000000000000     0.00000000     0.00000000
 C      1   0   0     2.651223975639     0.00000000     0.00000000
 C      2   1   0     2.642841484401   120.23574397     0.00000000
 C      3   2   1     2.644467824970   120.23226118     0.00000000
 C      4   3   2     2.651412884573   119.65527899     0.00000000
 C      5   4   3     2.642742817091   120.15265515     0.00000000
 H      2   1   3     2.046276555699   120.33921417   180.00000000
 H      3   2   1     2.046188418969   119.67704831   180.00000000
 H      5   4   3     2.046118189799   120.31879422   180.00000000
 H      6   5   4     2.046266686488   119.43056284   180.00000000
 N      1   2   3     2.676907716248   120.25304432   180.00000000
 H     11   1   2     1.947477508392   120.70655151     0.00000000
 H     11   1   2     1.947479529481   120.70551783   180.00000085
 O      4   3   2     2.547916574169   119.52458635   180.00000000
 H     14   4   3     1.829034238986   122.11664624   180.00000000

---------------------
BASIS SET INFORMATION
---------------------
There are 4 groups of distinct atoms

 Group   1 Type C   : 18s5p2d1f contracted to 4s3p2d1f pattern {8811/311/11/1}
 Group   2 Type H   : 5s2p1d contracted to 3s2p1d pattern {311/11/1}
 Group   3 Type N   : 18s5p2d1f contracted to 4s3p2d1f pattern {8811/311/11/1}
 Group   4 Type O   : 18s5p2d1f contracted to 4s3p2d1f pattern {8811/311/11/1}

Atom   0C    basis set group =>   1
Atom   1C    basis set group =>   1
Atom   2C    basis set group =>   1
Atom   3C    basis set group =>   1
Atom   4C    basis set group =>   1
Atom   5C    basis set group =>   1
Atom   6H    basis set group =>   2
Atom   7H    basis set group =>   2
Atom   8H    basis set group =>   2
Atom   9H    basis set group =>   2
Atom  10N    basis set group =>   3
Atom  11H    basis set group =>   2
Atom  12H    basis set group =>   2
Atom  13O    basis set group =>   4
Atom  14H    basis set group =>   2
---------------------------------
AUXILIARY/J BASIS SET INFORMATION
---------------------------------
There are 4 groups of distinct atoms

 Group   1 Type C   : 12s5p4d2f1g contracted to 6s4p3d1f1g pattern {711111/2111/211/2/1}
 Group   2 Type H   : 5s2p1d contracted to 3s1p1d pattern {311/2/1}
 Group   3 Type N   : 12s5p4d2f1g contracted to 6s4p3d1f1g pattern {711111/2111/211/2/1}
 Group   4 Type O   : 12s5p4d2f1g contracted to 6s4p3d1f1g pattern {711111/2111/211/2/1}

Atom   0C    basis set group =>   1
Atom   1C    basis set group =>   1
Atom   2C    basis set group =>   1
Atom   3C    basis set group =>   1
Atom   4C    basis set group =>   1
Atom   5C    basis set group =>   1
Atom   6H    basis set group =>   2
Atom   7H    basis set group =>   2
Atom   8H    basis set group =>   2
Atom   9H    basis set group =>   2
Atom  10N    basis set group =>   3
Atom  11H    basis set group =>   2
Atom  12H    basis set group =>   2
Atom  13O    basis set group =>   4
Atom  14H    basis set group =>   2
------------------------------------------------------------------------------
                           ORCA GTO INTEGRAL CALCULATION
                           -- RI-GTO INTEGRALS CHOSEN --
------------------------------------------------------------------------------
------------------------------------------------------------------------------
                   ___                                                        
                  /   \      - P O W E R E D   B Y -                         
                 /     \                                                     
                 |  |  |   _    _      __       _____    __    __             
                 |  |  |  | |  | |    /  \     |  _  \  |  |  /  |          
                  \  \/   | |  | |   /    \    | | | |  |  | /  /          
                 / \  \   | |__| |  /  /\  \   | |_| |  |  |/  /          
                |  |  |   |  __  | /  /__\  \  |    /   |      \           
                |  |  |   | |  | | |   __   |  |    \   |  |\   \          
                \     /   | |  | | |  |  |  |  | |\  \  |  | \   \       
                 \___/    |_|  |_| |__|  |__|  |_| \__\ |__|  \__/        
                                                                              
                      - O R C A' S   B I G   F R I E N D -                    
                                      &                                       
                       - I N T E G R A L  F E E D E R -                       
                                                                              
 v1 FN, 2020, v2 2021                                                         
------------------------------------------------------------------------------


Reading SHARK input file opt.SHARKINP.tmp ... ok
----------------------
SHARK INTEGRAL PACKAGE
----------------------

Number of atoms                             ...     15
Number of basis functions                   ...    386
Number of shells                            ...    170
Maximum angular momentum                    ...      3
Integral batch strategy                     ... SHARK/LIBINT Hybrid
RI-J (if used) integral strategy            ... SPLIT-RIJ (Revised 2003 algorithm where possible)
Printlevel                                  ...      1
Contraction scheme used                     ... PARTIAL GENERAL contraction
Coulomb Range Separation                    ... NOT USED
Exchange Range Separation                   ... NOT USED
Finite Nucleus Model                        ... NOT USED
Auxiliary Coulomb fitting basis             ... AVAILABLE
   # of basis functions in Aux-J            ...    469
   # of shells in Aux-J                     ...    155
   Maximum angular momentum in Aux-J        ...      4
Auxiliary J/K fitting basis                 ... NOT available
Auxiliary Correlation fitting basis         ... NOT available
Auxiliary 'external' fitting basis          ... NOT available
Integral threshold                          ...     2.500000e-11
Primitive cut-off                           ...     2.500000e-12
Primitive pair pre-selection threshold      ...     2.500000e-12

Calculating pre-screening integrals         ... done (  0.8 sec) Dimension = 170
Calculating pre-screening integrals (ORCA)  ... done (  1.4 sec) Dimension = 122
Organizing shell pair data                  ... done (  0.4 sec)
Shell pair information
Total number of shell pairs                 ...     14535
Shell pairs after pre-screening             ...     11144
Total number of primitive shell pairs       ...     20145
Primitive shell pairs kept                  ...     14010
          la=0 lb=0:   3292 shell pairs
          la=1 lb=0:   3153 shell pairs
          la=1 lb=1:    674 shell pairs
          la=2 lb=0:   1836 shell pairs
          la=2 lb=1:    779 shell pairs
          la=2 lb=2:    241 shell pairs
          la=3 lb=0:    686 shell pairs
          la=3 lb=1:    280 shell pairs
          la=3 lb=2:    168 shell pairs
          la=3 lb=3:     35 shell pairs

Calculating one electron integrals          ... done (  0.2 sec)
Calculating RI/J V-Matrix + Cholesky decomp.... done (  0.1 sec)
Calculating Nuclear repulsion               ... done (  0.0 sec) ENN=    343.350550761633 Eh

SHARK setup successfully completed in   3.2 seconds

Maximum memory used throughout the entire GTOINT-calculation: 110.4 MB
-------------------------------------------------------------------------------
                                 ORCA SCF
-------------------------------------------------------------------------------

------------
SCF SETTINGS
------------
Hamiltonian:
 Density Functional     Method          .... DFT(GTOs)
 Exchange Functional    Exchange        .... B88
   X-Alpha parameter    XAlpha          ....  0.666667
   Becke's b parameter  XBeta           ....  0.004200
 Correlation Functional Correlation     .... P86
 LDA part of GGA corr.  LDAOpt          .... PW91-LDA
 Gradients option       PostSCFGGA      .... off
   Density functional embedding theory  .... OFF
   NL short-range parameter             ....  4.400000
 RI-approximation to the Coulomb term is turned on
   Number of AuxJ basis functions       .... 469


General Settings:
 Integral files         IntName         .... opt
 Hartree-Fock type      HFTyp           .... RHF
 Total Charge           Charge          ....    0
 Multiplicity           Mult            ....    1
 Number of Electrons    NEL             ....   58
 Basis Dimension        Dim             ....  338
 Nuclear Repulsion      ENuc            ....    343.3505507616 Eh

Convergence Acceleration:
 DIIS                   CNVDIIS         .... on
   Start iteration      DIISMaxIt       ....    12
   Startup error        DIISStart       ....  0.200000
   # of expansion vecs  DIISMaxEq       ....     5
   Bias factor          DIISBfac        ....   1.050
   Max. coefficient     DIISMaxC        ....  10.000
 Trust-Rad. Augm. Hess. CNVTRAH         .... auto
   Auto Start mean grad. ratio tolernc. ....  1.125000
   Auto Start start iteration           ....    20
   Auto Start num. interpolation iter.  ....    10
   Max. Number of Micro iterations      ....    16
   Max. Number of Macro iterations      .... Maxiter - #DIIS iter
   Number of Davidson start vectors     ....     2
   Converg. threshold I  (grad. norm)   ....   1.000e-05
   Converg. threshold II (energy diff.) ....   1.000e-08
   Grad. Scal. Fac. for Micro threshold ....   0.100
   Minimum threshold for Micro iter.    ....   0.010
   NR start threshold (gradient norm)   ....   0.001
   Initial trust radius                 ....   0.400
   Minimum AH scaling param. (alpha)    ....   1.000
   Maximum AH scaling param. (alpha)    .... 1000.000
   Orbital update algorithm             .... Taylor
   White noise on init. David. guess    .... on
   Maximum white noise                  ....   0.010
   Quad. conv. algorithm                .... NR
 SOSCF                  CNVSOSCF        .... on
   Start iteration      SOSCFMaxIt      ....   150
   Startup grad/error   SOSCFStart      ....  0.003300
 Level Shifting         CNVShift        .... on
   Level shift para.    LevelShift      ....    0.2500
   Turn off err/grad.   ShiftErr        ....    0.0010
 Zerner damping         CNVZerner       .... off
 Static damping         CNVDamp         .... on
   Fraction old density DampFac         ....    0.7000
   Max. Damping (<1)    DampMax         ....    0.9800
   Min. Damping (>=0)   DampMin         ....    0.0000
   Turn off err/grad.   DampErr         ....    0.1000
 Fernandez-Rico         CNVRico         .... off

SCF Procedure:
 Maximum # iterations   MaxIter         ....   125
 SCF integral mode      SCFMode         .... Direct
   Integral package                     .... SHARK and LIBINT hybrid scheme
 Reset frequency        DirectResetFreq ....    20
 Integral Threshold     Thresh          ....  2.500e-11 Eh
 Primitive CutOff       TCut            ....  2.500e-12 Eh

Convergence Tolerance:
 Convergence Check Mode ConvCheckMode   .... Total+1el-Energy
 Convergence forced     ConvForced      .... 0
 Energy Change          TolE            ....  1.000e-08 Eh
 1-El. energy change                    ....  1.000e-05 Eh
 Orbital Gradient       TolG            ....  1.000e-05
 Orbital Rotation angle TolX            ....  1.000e-05
 DIIS Error             TolErr          ....  5.000e-07


Diagonalization of the overlap matrix:
Smallest eigenvalue                        ... 4.211e-05
Time for diagonalization                   ...    0.045 sec
Threshold for overlap eigenvalues          ... 1.000e-08
Number of eigenvalues below threshold      ... 0
Time for construction of square roots      ...    0.025 sec
Total time needed                          ...    0.071 sec

Time for model grid setup =    1.177 sec

------------------------------
INITIAL GUESS: MODEL POTENTIAL
------------------------------
Loading Hartree-Fock densities                     ... done
Calculating cut-offs                               ... done
Initializing the effective Hamiltonian             ... done
Setting up the integral package (SHARK)            ... done
Starting the Coulomb interaction                   ... done (   2.3 sec)
Reading the grid                                   ... done
Mapping shells                                     ... done
Starting the XC term evaluation                    ... done (   2.2 sec)
  promolecular density results
     # of electrons  =     57.993138993
     EX              =    -47.703835738
     EC              =     -2.107060789
     EX+EC           =    -49.810896527
Transforming the Hamiltonian                       ... done (   0.0 sec)
Diagonalizing the Hamiltonian                      ... done (   0.0 sec)
Back transforming the eigenvectors                 ... done (   0.0 sec)
Now organizing SCF variables                       ... done
                      ------------------
                      INITIAL GUESS DONE (   5.7 sec)
                      ------------------
-------------------
DFT GRID GENERATION
-------------------

General Integration Accuracy     IntAcc      ... 4.388
Radial Grid Type                 RadialGrid  ... OptM3 with GC (2021)
Angular Grid (max. ang.)         AngularGrid ... 4 (Lebedev-302)
Angular grid pruning method      GridPruning ... 4 (adaptive)
Weight generation scheme         WeightScheme... Becke
Basis function cutoff            BFCut       ... 1.0000e-11
Integration weight cutoff        WCut        ... 1.0000e-14
Angular grids for H and He will be reduced by one unit
Partially contracted basis set               ... off
Rotationally invariant grid construction     ... off

Total number of grid points                  ...    70789
Total number of batches                      ...     1115
Average number of points per batch           ...       63
Average number of grid points per atom       ...     4719
Time for grid setup =    3.372 sec

--------------
SCF ITERATIONS
--------------
ITER       Energy         Delta-E        Max-DP      RMS-DP      [F,P]     Damp
               ***  Starting incremental Fock matrix formation  ***
  0   -362.7217663829   0.000000000000 0.12022635  0.00114666  0.2586922 0.7000
  1   -362.8358806733  -0.114114290422 0.10243069  0.00088986  0.1049183 0.7000
                               ***Turning on DIIS***
  2   -362.8754096814  -0.039529008114 0.12449373  0.00125474  0.0242355 0.0000
  3   -362.9348240011  -0.059414319708 0.07526868  0.00060855  0.0640241 0.0000
  4   -362.9521823583  -0.017358357209 0.02167264  0.00019351  0.0132804 0.0000
  5   -362.9532247528  -0.001042394456 0.01047045  0.00008776  0.0066420 0.0000
                      *** Initiating the SOSCF procedure ***
                           *** Shutting down DIIS ***
                      *** Re-Reading the Fockian *** 
                      *** Removing any level shift *** 
ITER      Energy       Delta-E        Grad      Rot      Max-DP    RMS-DP
  6   -362.95333995  -0.0001152013  0.000334  0.000334  0.002479  0.000036
               *** Restarting incremental Fock matrix formation ***
  7   -362.95334067  -0.0000007185  0.000615  0.003975  0.002520  0.000029
  8   -362.95331693   0.0000237403  0.001702  0.002928  0.002017  0.000022
  9   -362.95334436  -0.0000274299  0.000086  0.000401  0.000183  0.000003
 10   -362.95334389   0.0000004722  0.000181  0.000302  0.000158  0.000002
 11   -362.95334452  -0.0000006259  0.000017  0.000070  0.000100  0.000001
 12   -362.95334450   0.0000000112  0.000025  0.000045  0.000047  0.000001
 13   -362.95334452  -0.0000000184  0.000003  0.000027  0.000010  0.000000
 14   -362.95334453  -0.0000000023  0.000009  0.000022  0.000010  0.000000
                  ***Gradient check signals convergence***
              ***Rediagonalizing the Fockian in SOSCF/NRSCF***

               *****************************************************
               *                     SUCCESS                       *
               *           SCF CONVERGED AFTER  15 CYCLES          *
               *****************************************************


----------------
TOTAL SCF ENERGY
----------------

Total Energy       :         -362.95334452 Eh           -9876.46261 eV

Components:
Nuclear Repulsion  :          343.35055076 Eh            9343.04348 eV
Electronic Energy  :         -706.30389528 Eh          -19219.50609 eV
One Electron Energy:        -1172.19892320 Eh          -31897.15432 eV
Two Electron Energy:          465.89502792 Eh           12677.64823 eV

Virial components:
Potential Energy   :         -723.42155588 Eh          -19685.30132 eV
Kinetic Energy     :          360.46821136 Eh            9808.83870 eV
Virial Ratio       :            2.00689418


DFT components:
N(Alpha)           :       29.000000151025 electrons
N(Beta)            :       29.000000151025 electrons
N(Total)           :       58.000000302050 electrons
E(X)               :      -48.585382960665 Eh       
E(C)               :       -2.113162998801 Eh       
E(XC)              :      -50.698545959466 Eh       
DFET-embed. en.    :        0.000000000000 Eh       

---------------
SCF CONVERGENCE
---------------

  Last Energy change         ...    1.9058e-09  Tolerance :   1.0000e-08
  Last MAX-Density change    ...    1.3697e-05  Tolerance :   1.0000e-07
  Last RMS-Density change    ...    1.9363e-07  Tolerance :   5.0000e-09
  Last Orbital Gradient      ...    1.0522e-06  Tolerance :   1.0000e-05
  Last Orbital Rotation      ...    4.6627e-06  Tolerance :   1.0000e-05

             **** THE GBW FILE WAS UPDATED (opt.gbw) ****
             **** DENSITY opt.scfp WAS UPDATED ****
             **** ENERGY FILE WAS UPDATED (opt.en.tmp) ****
             **** THE GBW FILE WAS UPDATED (opt.gbw) ****
             **** DENSITY opt.scfp WAS UPDATED ****
----------------
ORBITAL ENERGIES
----------------

  NO   OCC          E(Eh)            E(eV) 
   0   2.0000     -18.785861      -511.1893 
   1   2.0000     -14.002667      -381.0319 
   2   2.0000      -9.946985      -270.6712 
   3   2.0000      -9.933820      -270.3130 
   4   2.0000      -9.893489      -269.2155 
   5   2.0000      -9.892561      -269.1903 
   6   2.0000      -9.892458      -269.1875 
   7   2.0000      -9.891577      -269.1635 
   8   2.0000      -0.964467       -26.2445 
   9   2.0000      -0.821981       -22.3672 
  10   2.0000      -0.751779       -20.4569 
  11   2.0000      -0.672345       -18.2954 
  12   2.0000      -0.650213       -17.6932 
  13   2.0000      -0.564962       -15.3734 
  14   2.0000      -0.546927       -14.8826 
  15   2.0000      -0.495795       -13.4913 
  16   2.0000      -0.463947       -12.6246 
  17   2.0000      -0.456099       -12.4111 
  18   2.0000      -0.399784       -10.8787 
  19   2.0000      -0.388358       -10.5678 
  20   2.0000      -0.370927       -10.0934 
  21   2.0000      -0.358969        -9.7680 
  22   2.0000      -0.346966        -9.4414 
  23   2.0000      -0.318691        -8.6720 
  24   2.0000      -0.316093        -8.6013 
  25   2.0000      -0.284539        -7.7427 
  26   2.0000      -0.239007        -6.5037 
  27   2.0000      -0.222421        -6.0524 
  28   2.0000      -0.155402        -4.2287 
  29   0.0000      -0.036331        -0.9886 
  30   0.0000      -0.000695        -0.0189 
  31   0.0000       0.014067         0.3828 
  32   0.0000       0.020923         0.5693 
  33   0.0000       0.044871         1.2210 
  34   0.0000       0.053798         1.4639 
  35   0.0000       0.087699         2.3864 
  36   0.0000       0.103200         2.8082 
  37   0.0000       0.119333         3.2472 
  38   0.0000       0.120833         3.2880 
  39   0.0000       0.156900         4.2695 
  40   0.0000       0.182917         4.9774 
  41   0.0000       0.204219         5.5571 
  42   0.0000       0.230425         6.2702 
  43   0.0000       0.239154         6.5077 
  44   0.0000       0.254040         6.9128 
  45   0.0000       0.265585         7.2269 
  46   0.0000       0.270407         7.3582 
  47   0.0000       0.293704         7.9921 
  48   0.0000       0.300252         8.1703 
  49   0.0000       0.302543         8.2326 
  50   0.0000       0.316932         8.6242 
  51   0.0000       0.326826         8.8934 
  52   0.0000       0.331852         9.0302 
  53   0.0000       0.348867         9.4932 
  54   0.0000       0.357615         9.7312 
  55   0.0000       0.372493        10.1361 
  56   0.0000       0.375463        10.2169 
  57   0.0000       0.379231        10.3194 
  58   0.0000       0.381063        10.3693 
  59   0.0000       0.385306        10.4847 
  60   0.0000       0.420570        11.4443 
  61   0.0000       0.437451        11.9036 
  62   0.0000       0.443296        12.0627 
  63   0.0000       0.451426        12.2839 
  64   0.0000       0.459669        12.5082 
  65   0.0000       0.460193        12.5225 
  66   0.0000       0.482374        13.1261 
  67   0.0000       0.489005        13.3065 
  68   0.0000       0.512217        13.9381 
  69   0.0000       0.516738        14.0612 
  70   0.0000       0.518841        14.1184 
  71   0.0000       0.539772        14.6879 
  72   0.0000       0.561337        15.2747 
  73   0.0000       0.593362        16.1462 
  74   0.0000       0.593749        16.1567 
  75   0.0000       0.614893        16.7321 
  76   0.0000       0.629522        17.1302 
  77   0.0000       0.630059        17.1448 
  78   0.0000       0.636486        17.3197 
  79   0.0000       0.663165        18.0456 
  80   0.0000       0.691190        18.8082 
  81   0.0000       0.705105        19.1869 
  82   0.0000       0.715654        19.4739 
  83   0.0000       0.724114        19.7042 
  84   0.0000       0.730299        19.8724 
  85   0.0000       0.731666        19.9097 
  86   0.0000       0.764531        20.8039 
  87   0.0000       0.769750        20.9460 
  88   0.0000       0.789365        21.4797 
  89   0.0000       0.819612        22.3028 
  90   0.0000       0.821243        22.3471 
  91   0.0000       0.850999        23.1569 
  92   0.0000       0.863956        23.5094 
  93   0.0000       0.897528        24.4230 
  94   0.0000       0.901562        24.5328 
  95   0.0000       0.933613        25.4049 
  96   0.0000       0.942651        25.6508 
  97   0.0000       0.948800        25.8182 
  98   0.0000       0.949204        25.8291 
  99   0.0000       0.982041        26.7227 
 100   0.0000       0.988647        26.9025 
 101   0.0000       1.010462        27.4961 
 102   0.0000       1.014007        27.5925 
 103   0.0000       1.039678        28.2911 
 104   0.0000       1.065854        29.0034 
 105   0.0000       1.103460        30.0267 
 106   0.0000       1.133997        30.8576 
 107   0.0000       1.141359        31.0580 
 108   0.0000       1.148636        31.2560 
 109   0.0000       1.169196        31.8154 
 110   0.0000       1.182732        32.1838 
 111   0.0000       1.182888        32.1880 
 112   0.0000       1.191293        32.4167 
 113   0.0000       1.196754        32.5653 
 114   0.0000       1.234219        33.5848 
 115   0.0000       1.270647        34.5761 
 116   0.0000       1.276469        34.7345 
 117   0.0000       1.282811        34.9071 
 118   0.0000       1.291367        35.1399 
 119   0.0000       1.309145        35.6237 
 120   0.0000       1.326468        36.0950 
 121   0.0000       1.342727        36.5375 
 122   0.0000       1.347880        36.6777 
 123   0.0000       1.374242        37.3950 
 124   0.0000       1.389002        37.7967 
 125   0.0000       1.393673        37.9238 
 126   0.0000       1.428066        38.8596 
 127   0.0000       1.475778        40.1580 
 128   0.0000       1.480305        40.2812 
 129   0.0000       1.576165        42.8896 
 130   0.0000       1.576984        42.9119 
 131   0.0000       1.589948        43.2647 
 132   0.0000       1.607524        43.7430 
 133   0.0000       1.637904        44.5696 
 134   0.0000       1.684177        45.8288 
 135   0.0000       1.734789        47.2060 
 136   0.0000       1.758994        47.8647 
 137   0.0000       1.797991        48.9258 
 138   0.0000       1.845737        50.2251 
 139   0.0000       1.856868        50.5279 
 140   0.0000       1.869642        50.8755 
 141   0.0000       1.914719        52.1022 
 142   0.0000       1.941770        52.8382 
 143   0.0000       1.961380        53.3719 
 144   0.0000       2.003162        54.5088 
 145   0.0000       2.053304        55.8732 
 146   0.0000       2.064219        56.1702 
 147   0.0000       2.071067        56.3566 
 148   0.0000       2.110874        57.4398 
 149   0.0000       2.111181        57.4482 
 150   0.0000       2.130318        57.9689 
 151   0.0000       2.153180        58.5910 
 152   0.0000       2.173116        59.1335 
 153   0.0000       2.217708        60.3469 
 154   0.0000       2.257246        61.4228 
 155   0.0000       2.260035        61.4987 
 156   0.0000       2.275002        61.9060 
 157   0.0000       2.326727        63.3134 
 158   0.0000       2.362662        64.2913 
 159   0.0000       2.370130        64.4945 
 160   0.0000       2.400046        65.3086 
 161   0.0000       2.408959        65.5511 
 162   0.0000       2.440006        66.3959 
 163   0.0000       2.465180        67.0810 
 164   0.0000       2.490905        67.7810 
 165   0.0000       2.554884        69.5219 
 166   0.0000       2.559178        69.6388 
 167   0.0000       2.570866        69.9568 
 168   0.0000       2.603512        70.8452 
 169   0.0000       2.615987        71.1846 
 170   0.0000       2.635610        71.7186 
 171   0.0000       2.639604        71.8273 
 172   0.0000       2.650958        72.1362 
 173   0.0000       2.657832        72.3233 
 174   0.0000       2.674139        72.7670 
 175   0.0000       2.693472        73.2931 
 176   0.0000       2.696407        73.3730 
 177   0.0000       2.734121        74.3992 
 178   0.0000       2.757581        75.0376 
 179   0.0000       2.787054        75.8396 
 180   0.0000       2.804235        76.3071 
 181   0.0000       2.833955        77.1158 
 182   0.0000       2.839390        77.2637 
 183   0.0000       2.850124        77.5558 
 184   0.0000       2.863150        77.9103 
 185   0.0000       2.872584        78.1670 
 186   0.0000       2.891354        78.6777 
 187   0.0000       2.908764        79.1515 
 188   0.0000       2.926476        79.6335 
 189   0.0000       2.954969        80.4088 
 190   0.0000       2.966748        80.7293 
 191   0.0000       2.968744        80.7836 
 192   0.0000       2.983599        81.1878 
 193   0.0000       3.000867        81.6577 
 194   0.0000       3.004813        81.7651 
 195   0.0000       3.013392        81.9986 
 196   0.0000       3.029097        82.4259 
 197   0.0000       3.029502        82.4369 
 198   0.0000       3.037208        82.6466 
 199   0.0000       3.038491        82.6816 
 200   0.0000       3.056926        83.1832 
 201   0.0000       3.074759        83.6684 
 202   0.0000       3.097064        84.2754 
 203   0.0000       3.100152        84.3594 
 204   0.0000       3.107664        84.5638 
 205   0.0000       3.167783        86.1997 
 206   0.0000       3.180117        86.5354 
 207   0.0000       3.186417        86.7068 
 208   0.0000       3.205524        87.2267 
 209   0.0000       3.213528        87.4445 
 210   0.0000       3.225864        87.7802 
 211   0.0000       3.268665        88.9449 
 212   0.0000       3.276223        89.1506 
 213   0.0000       3.297562        89.7312 
 214   0.0000       3.308166        90.0198 
 215   0.0000       3.308850        90.0384 
 216   0.0000       3.317501        90.2738 
 217   0.0000       3.343077        90.9697 
 218   0.0000       3.376943        91.8913 
 219   0.0000       3.399416        92.5028 
 220   0.0000       3.405219        92.6607 
 221   0.0000       3.440335        93.6163 
 222   0.0000       3.475655        94.5774 
 223   0.0000       3.488189        94.9184 
 224   0.0000       3.525977        95.9467 
 225   0.0000       3.531194        96.0887 
 226   0.0000       3.536912        96.2443 
 227   0.0000       3.574262        97.2606 
 228   0.0000       3.587052        97.6086 
 229   0.0000       3.589639        97.6791 
 230   0.0000       3.617682        98.4421 
 231   0.0000       3.639092        99.0247 
 232   0.0000       3.670706        99.8850 
 233   0.0000       3.675196       100.0072 
 234   0.0000       3.694474       100.5318 
 235   0.0000       3.701362       100.7192 
 236   0.0000       3.702009       100.7368 
 237   0.0000       3.728894       101.4684 
 238   0.0000       3.732206       101.5585 
 239   0.0000       3.759783       102.3089 
 240   0.0000       3.768986       102.5593 
 241   0.0000       3.788083       103.0790 
 242   0.0000       3.791690       103.1771 
 243   0.0000       3.804951       103.5380 
 244   0.0000       3.805784       103.5606 
 245   0.0000       3.817419       103.8773 
 246   0.0000       3.850717       104.7833 
 247   0.0000       3.883381       105.6722 
 248   0.0000       3.900248       106.1311 
 249   0.0000       3.911211       106.4295 
 250   0.0000       3.944990       107.3486 
 251   0.0000       3.956956       107.6742 
 252   0.0000       3.967459       107.9600 
 253   0.0000       3.985168       108.4419 
 254   0.0000       3.993681       108.6736 
 255   0.0000       4.016086       109.2832 
 256   0.0000       4.023163       109.4758 
 257   0.0000       4.052897       110.2849 
 258   0.0000       4.063830       110.5824 
 259   0.0000       4.087236       111.2194 
 260   0.0000       4.087498       111.2265 
 261   0.0000       4.118310       112.0649 
 262   0.0000       4.148597       112.8891 
 263   0.0000       4.174857       113.6036 
 264   0.0000       4.176248       113.6415 
 265   0.0000       4.195703       114.1709 
 266   0.0000       4.217372       114.7605 
 267   0.0000       4.233119       115.1890 
 268   0.0000       4.246769       115.5605 
 269   0.0000       4.263665       116.0202 
 270   0.0000       4.291490       116.7774 
 271   0.0000       4.303793       117.1122 
 272   0.0000       4.383015       119.2679 
 273   0.0000       4.385153       119.3261 
 274   0.0000       4.423388       120.3665 
 275   0.0000       4.454098       121.2022 
 276   0.0000       4.527357       123.1956 
 277   0.0000       4.549895       123.8089 
 278   0.0000       4.565267       124.2272 
 279   0.0000       4.580549       124.6431 
 280   0.0000       4.600657       125.1902 
 281   0.0000       4.604406       125.2923 
 282   0.0000       4.661848       126.8553 
 283   0.0000       4.672156       127.1358 
 284   0.0000       4.693417       127.7144 
 285   0.0000       4.721374       128.4751 
 286   0.0000       4.722144       128.4961 
 287   0.0000       4.752982       129.3352 
 288   0.0000       4.762719       129.6002 
 289   0.0000       4.790250       130.3493 
 290   0.0000       4.839752       131.6963 
 291   0.0000       4.930596       134.1683 
 292   0.0000       4.934480       134.2740 
 293   0.0000       4.936177       134.3202 
 294   0.0000       4.971941       135.2934 
 295   0.0000       4.990882       135.8088 
 296   0.0000       5.049172       137.3949 
 297   0.0000       5.145490       140.0159 
 298   0.0000       5.242886       142.6662 
 299   0.0000       5.243395       142.6800 
 300   0.0000       5.288772       143.9148 
 301   0.0000       5.322056       144.8205 
 302   0.0000       5.324176       144.8782 
 303   0.0000       5.370473       146.1380 
 304   0.0000       5.454230       148.4172 
 305   0.0000       5.490657       149.4084 
 306   0.0000       5.525968       150.3692 
 307   0.0000       5.555253       151.1661 
 308   0.0000       5.566720       151.4781 
 309   0.0000       5.592583       152.1819 
 310   0.0000       5.678198       154.5116 
 311   0.0000       5.744541       156.3169 
 312   0.0000       5.827656       158.5786 
 313   0.0000       5.859478       159.4445 
 314   0.0000       5.879137       159.9795 
 315   0.0000       5.917881       161.0337 
 316   0.0000       6.061720       164.9478 
 317   0.0000       6.220847       169.2779 
 318   0.0000       6.260237       170.3497 
 319   0.0000       6.321502       172.0168 
 320   0.0000       6.413535       174.5212 
 321   0.0000       6.487911       176.5450 
 322   0.0000       6.611571       179.9100 
 323   0.0000       6.652955       181.0361 
 324   0.0000       6.653426       181.0489 
 325   0.0000       6.787053       184.6851 
 326   0.0000       6.839224       186.1047 
 327   0.0000       7.075707       192.5398 
 328   0.0000       7.120714       193.7645 
 329   0.0000       7.454551       202.8486 
 330   0.0000       8.269228       225.0171 
 331   0.0000      11.646385       316.9143 
 332   0.0000      12.115967       329.6922 
 333   0.0000      12.289381       334.4110 
 334   0.0000      12.362355       336.3968 
 335   0.0000      12.888959       350.7264 
 336   0.0000      12.998946       353.7193 
 337   0.0000      14.973923       407.4612 

                    ********************************
                    * MULLIKEN POPULATION ANALYSIS *
                    ********************************

-----------------------
MULLIKEN ATOMIC CHARGES
-----------------------
   0 C :    0.163559
   1 C :   -0.145436
   2 C :   -0.142396
   3 C :    0.185419
   4 C :   -0.198832
   5 C :   -0.155101
   6 H :    0.092270
   7 H :    0.109815
   8 H :    0.087877
   9 H :    0.089974
  10 N :   -0.318383
  11 H :    0.150336
  12 H :    0.149921
  13 O :   -0.278757
  14 H :    0.209734
Sum of atomic charges:    0.0000000

--------------------------------
MULLIKEN REDUCED ORBITAL CHARGES
--------------------------------
  0 C s       :     3.123735  s :     3.123735
      pz      :     0.942082  p :     2.578949
      px      :     0.888756
      py      :     0.748111
      dz2     :     0.004803  d :     0.120933
      dxz     :     0.022793
      dyz     :     0.035393
      dx2y2   :     0.030794
      dxy     :     0.027150
      f0      :     0.002030  f :     0.012825
      f+1     :     0.000834
      f-1     :     0.001215
      f+2     :     0.001674
      f-2     :     0.001091
      f+3     :     0.003765
      f-3     :     0.002216
  1 C s       :     3.240471  s :     3.240471
      pz      :     1.030836  p :     2.825757
      px      :     0.909705
      py      :     0.885216
      dz2     :     0.004943  d :     0.070852
      dxz     :     0.008554
      dyz     :     0.021312
      dx2y2   :     0.015272
      dxy     :     0.020770
      f0      :     0.001347  f :     0.008355
      f+1     :     0.000630
      f-1     :     0.000724
      f+2     :     0.000795
      f-2     :     0.000716
      f+3     :     0.002599
      f-3     :     0.001544
  2 C s       :     3.253119  s :     3.253119
      pz      :     1.011578  p :     2.815163
      px      :     0.899622
      py      :     0.903964
      dz2     :     0.004581  d :     0.065679
      dxz     :     0.014087
      dyz     :     0.018308
      dx2y2   :     0.009420
      dxy     :     0.019283
      f0      :     0.001366  f :     0.008435
      f+1     :     0.000662
      f-1     :     0.000687
      f+2     :     0.001228
      f-2     :     0.000414
      f+3     :     0.002602
      f-3     :     0.001476
  3 C s       :     3.115855  s :     3.115855
      pz      :     0.971888  p :     2.529127
      px      :     0.872188
      py      :     0.685050
      dz2     :     0.006457  d :     0.153982
      dxz     :     0.024054
      dyz     :     0.038568
      dx2y2   :     0.046159
      dxy     :     0.038744
      f0      :     0.002379  f :     0.015617
      f+1     :     0.000862
      f-1     :     0.001368
      f+2     :     0.002248
      f-2     :     0.001096
      f+3     :     0.004810
      f-3     :     0.002854
  4 C s       :     3.250016  s :     3.250016
      pz      :     1.031041  p :     2.877106
      px      :     0.923150
      py      :     0.922915
      dz2     :     0.004105  d :     0.063351
      dxz     :     0.008964
      dyz     :     0.022329
      dx2y2   :     0.007961
      dxy     :     0.019991
      f0      :     0.001352  f :     0.008359
      f+1     :     0.000638
      f-1     :     0.000700
      f+2     :     0.000844
      f-2     :     0.000728
      f+3     :     0.002504
      f-3     :     0.001593
  5 C s       :     3.239969  s :     3.239969
      pz      :     1.030903  p :     2.834253
      px      :     0.884740
      py      :     0.918610
      dz2     :     0.004802  d :     0.072490
      dxz     :     0.012572
      dyz     :     0.017781
      dx2y2   :     0.010914
      dxy     :     0.026420
      f0      :     0.001355  f :     0.008389
      f+1     :     0.000655
      f-1     :     0.000703
      f+2     :     0.001159
      f-2     :     0.000385
      f+3     :     0.002721
      f-3     :     0.001411
  6 H s       :     0.869753  s :     0.869753
      pz      :     0.014927  p :     0.035340
      px      :     0.010816
      py      :     0.009597
      dz2     :     0.000133  d :     0.002637
      dxz     :     0.000741
      dyz     :     0.000158
      dx2y2   :     0.000834
      dxy     :     0.000770
  7 H s       :     0.855393  s :     0.855393
      pz      :     0.013878  p :     0.032200
      px      :     0.008099
      py      :     0.010222
      dz2     :     0.000103  d :     0.002593
      dxz     :     0.000533
      dyz     :     0.000350
      dx2y2   :     0.001233
      dxy     :     0.000374
  8 H s       :     0.873268  s :     0.873268
      pz      :     0.014924  p :     0.036211
      px      :     0.011091
      py      :     0.010197
      dz2     :     0.000134  d :     0.002643
      dxz     :     0.000742
      dyz     :     0.000156
      dx2y2   :     0.000848
      dxy     :     0.000765
  9 H s       :     0.871897  s :     0.871897
      pz      :     0.015043  p :     0.035506
      px      :     0.011167
      py      :     0.009296
      dz2     :     0.000133  d :     0.002623
      dxz     :     0.000553
      dyz     :     0.000342
      dx2y2   :     0.001232
      dxy     :     0.000363
 10 N s       :     3.446103  s :     3.446103
      pz      :     1.745224  p :     3.838614
      px      :     1.030929
      py      :     1.062461
      dz2     :     0.004126  d :     0.031041
      dxz     :     0.000251
      dyz     :     0.007809
      dx2y2   :     0.006413
      dxy     :     0.012441
      f0      :     0.000465  f :     0.002625
      f+1     :     0.000343
      f-1     :     0.000647
      f+2     :     0.000196
      f-2     :     0.000023
      f+3     :     0.000498
      f-3     :     0.000452
 11 H s       :     0.780202  s :     0.780202
      pz      :     0.029151  p :     0.064333
      px      :     0.018455
      py      :     0.016727
      dz2     :     0.000473  d :     0.005129
      dxz     :     0.001798
      dyz     :     0.000323
      dx2y2   :     0.001135
      dxy     :     0.001400
 12 H s       :     0.780588  s :     0.780588
      pz      :     0.029190  p :     0.064365
      px      :     0.015933
      py      :     0.019242
      dz2     :     0.000473  d :     0.005127
      dxz     :     0.001353
      dyz     :     0.000767
      dx2y2   :     0.001164
      dxy     :     0.001369
 13 O s       :     3.693888  s :     3.693888
      pz      :     1.787460  p :     4.557182
      px      :     1.419326
      py      :     1.350396
      dz2     :     0.003494  d :     0.025934
      dxz     :     0.000985
      dyz     :     0.005937
      dx2y2   :     0.009142
      dxy     :     0.006377
      f0      :     0.000222  f :     0.001753
      f+1     :     0.000176
      f-1     :     0.000368
      f+2     :     0.000156
      f-2     :     0.000045
      f+3     :     0.000350
      f-3     :     0.000436
 14 H s       :     0.690321  s :     0.690321
      pz      :     0.037853  p :     0.091642
      px      :     0.029809
      py      :     0.023980
      dz2     :     0.000650  d :     0.008303
      dxz     :     0.002569
      dyz     :     0.000627
      dx2y2   :     0.002394
      dxy     :     0.002064


                     *******************************
                     * LOEWDIN POPULATION ANALYSIS *
                     *******************************

----------------------
LOEWDIN ATOMIC CHARGES
----------------------
   0 C :   -0.164259
   1 C :    0.012990
   2 C :    0.019093
   3 C :   -0.257348
   4 C :    0.001024
   5 C :    0.010065
   6 H :   -0.035804
   7 H :   -0.030183
   8 H :   -0.038479
   9 H :   -0.037643
  10 N :    0.392282
  11 H :   -0.078405
  12 H :   -0.078753
  13 O :    0.454818
  14 H :   -0.169398

-------------------------------
LOEWDIN REDUCED ORBITAL CHARGES
-------------------------------
  0 C s       :     2.702160  s :     2.702160
      pz      :     0.867347  p :     2.771783
      px      :     1.029653
      py      :     0.874783
      dz2     :     0.037479  d :     0.618207
      dxz     :     0.078008
      dyz     :     0.141844
      dx2y2   :     0.194640
      dxy     :     0.166237
      f0      :     0.004641  f :     0.072108
      f+1     :     0.004065
      f-1     :     0.005840
      f+2     :     0.013493
      f-2     :     0.007479
      f+3     :     0.022997
      f-3     :     0.013593
  1 C s       :     2.702943  s :     2.702943
      pz      :     0.895028  p :     2.850064
      px      :     0.964558
      py      :     0.990478
      dz2     :     0.026833  d :     0.392007
      dxz     :     0.023748
      dyz     :     0.074351
      dx2y2   :     0.127462
      dxy     :     0.139613
      f0      :     0.002354  f :     0.041996
      f+1     :     0.003245
      f-1     :     0.003694
      f+2     :     0.005084
      f-2     :     0.004873
      f+3     :     0.013437
      f-3     :     0.009310
  2 C s       :     2.706571  s :     2.706571
      pz      :     0.879526  p :     2.843224
      px      :     0.972695
      py      :     0.991003
      dz2     :     0.026969  d :     0.388979
      dxz     :     0.040095
      dyz     :     0.062634
      dx2y2   :     0.108808
      dxy     :     0.150473
      f0      :     0.002339  f :     0.042133
      f+1     :     0.003436
      f-1     :     0.003520
      f+2     :     0.007913
      f-2     :     0.002557
      f+3     :     0.013043
      f-3     :     0.009326
  3 C s       :     2.707932  s :     2.707932
      pz      :     0.890447  p :     2.760114
      px      :     1.039745
      py      :     0.829923
      dz2     :     0.045062  d :     0.692401
      dxz     :     0.078683
      dyz     :     0.144355
      dx2y2   :     0.226535
      dxy     :     0.197766
      f0      :     0.006452  f :     0.096901
      f+1     :     0.004245
      f-1     :     0.008983
      f+2     :     0.017561
      f-2     :     0.007828
      f+3     :     0.031060
      f-3     :     0.020772
  4 C s       :     2.708490  s :     2.708490
      pz      :     0.891761  p :     2.854185
      px      :     0.965481
      py      :     0.996942
      dz2     :     0.028017  d :     0.394166
      dxz     :     0.024567
      dyz     :     0.078769
      dx2y2   :     0.123044
      dxy     :     0.139769
      f0      :     0.002289  f :     0.042136
      f+1     :     0.003261
      f-1     :     0.003703
      f+2     :     0.005345
      f-2     :     0.005133
      f+3     :     0.013176
      f-3     :     0.009229
  5 C s       :     2.703053  s :     2.703053
      pz      :     0.896402  p :     2.851949
      px      :     0.968767
      py      :     0.986779
      dz2     :     0.026992  d :     0.392867
      dxz     :     0.038031
      dyz     :     0.061055
      dx2y2   :     0.111269
      dxy     :     0.155520
      f0      :     0.002371  f :     0.042066
      f+1     :     0.003419
      f-1     :     0.003524
      f+2     :     0.007569
      f-2     :     0.002447
      f+3     :     0.013485
      f-3     :     0.009252
  6 H s       :     0.843517  s :     0.843517
      pz      :     0.048951  p :     0.162536
      px      :     0.071846
      py      :     0.041739
      dz2     :     0.002633  d :     0.029751
      dxz     :     0.007910
      dyz     :     0.001421
      dx2y2   :     0.008955
      dxy     :     0.008833
  7 H s       :     0.839514  s :     0.839514
      pz      :     0.046911  p :     0.161019
      px      :     0.062919
      py      :     0.051189
      dz2     :     0.002641  d :     0.029651
      dxz     :     0.005736
      dyz     :     0.003336
      dx2y2   :     0.009320
      dxy     :     0.008618
  8 H s       :     0.845406  s :     0.845406
      pz      :     0.049011  p :     0.163346
      px      :     0.072209
      py      :     0.042126
      dz2     :     0.002629  d :     0.029727
      dxz     :     0.007821
      dyz     :     0.001393
      dx2y2   :     0.009046
      dxy     :     0.008837
  9 H s       :     0.844708  s :     0.844708
      pz      :     0.049194  p :     0.163158
      px      :     0.063145
      py      :     0.050820
      dz2     :     0.002631  d :     0.029778
      dxz     :     0.005953
      dyz     :     0.003400
      dx2y2   :     0.009299
      dxy     :     0.008494
 10 N s       :     2.839170  s :     2.839170
      pz      :     1.463250  p :     3.614416
      px      :     1.083331
      py      :     1.067835
      dz2     :     0.009230  d :     0.145579
      dxz     :     0.000538
      dyz     :     0.024233
      dx2y2   :     0.042763
      dxy     :     0.068815
      f0      :     0.001327  f :     0.008552
      f+1     :     0.001048
      f-1     :     0.001238
      f+2     :     0.001262
      f-2     :     0.000097
      f+3     :     0.001963
      f-3     :     0.001618
 11 H s       :     0.772516  s :     0.772516
      pz      :     0.099817  p :     0.249335
      px      :     0.097981
      py      :     0.051537
      dz2     :     0.004751  d :     0.056554
      dxz     :     0.019490
      dyz     :     0.003596
      dx2y2   :     0.013892
      dxy     :     0.014825
 12 H s       :     0.772797  s :     0.772797
      pz      :     0.099837  p :     0.249401
      px      :     0.083883
      py      :     0.065680
      dz2     :     0.004750  d :     0.056555
      dxz     :     0.014539
      dyz     :     0.008547
      dx2y2   :     0.013719
      dxy     :     0.015001
 13 O s       :     3.151255  s :     3.151255
      pz      :     1.597414  p :     4.311999
      px      :     1.404760
      py      :     1.309825
      dz2     :     0.007771  d :     0.077451
      dxz     :     0.000396
      dyz     :     0.016566
      dx2y2   :     0.026369
      dxy     :     0.026349
      f0      :     0.000603  f :     0.004476
      f+1     :     0.000316
      f-1     :     0.000558
      f+2     :     0.000720
      f-2     :     0.000149
      f+3     :     0.001086
      f-3     :     0.001043
 14 H s       :     0.719247  s :     0.719247
      pz      :     0.108071  p :     0.353518
      px      :     0.171076
      py      :     0.074371
      dz2     :     0.008179  d :     0.096633
      dxz     :     0.027438
      dyz     :     0.006697
      dx2y2   :     0.030131
      dxy     :     0.024189


                      *****************************
                      * MAYER POPULATION ANALYSIS *
                      *****************************

  NA   - Mulliken gross atomic population
  ZA   - Total nuclear charge
  QA   - Mulliken gross atomic charge
  VA   - Mayer's total valence
  BVA  - Mayer's bonded valence
  FA   - Mayer's free valence

  ATOM       NA         ZA         QA         VA         BVA        FA
  0 C      5.8364     6.0000     0.1636     3.8065     3.8065    -0.0000
  1 C      6.1454     6.0000    -0.1454     3.8552     3.8552     0.0000
  2 C      6.1424     6.0000    -0.1424     3.8538     3.8538     0.0000
  3 C      5.8146     6.0000     0.1854     3.9354     3.9354     0.0000
  4 C      6.1988     6.0000    -0.1988     3.8502     3.8502    -0.0000
  5 C      6.1551     6.0000    -0.1551     3.8423     3.8423    -0.0000
  6 H      0.9077     1.0000     0.0923     1.0091     1.0091    -0.0000
  7 H      0.8902     1.0000     0.1098     1.0103     1.0103    -0.0000
  8 H      0.9121     1.0000     0.0879     1.0116     1.0116     0.0000
  9 H      0.9100     1.0000     0.0900     1.0115     1.0115    -0.0000
 10 N      7.3184     7.0000    -0.3184     3.1943     3.1943    -0.0000
 11 H      0.8497     1.0000     0.1503     1.0301     1.0301     0.0000
 12 H      0.8501     1.0000     0.1499     1.0304     1.0304    -0.0000
 13 O      8.2788     8.0000    -0.2788     2.2851     2.2851     0.0000
 14 H      0.7903     1.0000     0.2097     1.0505     1.0505     0.0000

  Mayer bond orders larger than 0.100000
B(  0-C ,  1-C ) :   1.2788 B(  0-C ,  5-C ) :   1.2842 B(  0-C , 10-N ) :   1.1115 
B(  1-C ,  2-C ) :   1.4022 B(  1-C ,  6-H ) :   0.9784 B(  2-C ,  3-C ) :   1.3121 
B(  2-C ,  7-H ) :   0.9660 B(  3-C ,  4-C ) :   1.3049 B(  3-C , 13-O ) :   1.1779 
B(  4-C ,  5-C ) :   1.3777 B(  4-C ,  8-H ) :   0.9774 B(  5-C ,  9-H ) :   0.9726 
B( 10-N , 11-H ) :   0.9767 B( 10-N , 12-H ) :   0.9769 B( 13-O , 14-H ) :   0.9967 


-------
TIMINGS
-------

Total SCF time: 0 days 0 hours 2 min 16 sec 

Total time                  ....     136.464 sec
Sum of individual times     ....     134.497 sec  ( 98.6%)

Fock matrix formation       ....     124.029 sec  ( 90.9%)
  Split-RI-J                ....      32.743 sec  ( 26.4% of F)
  XC integration            ....      90.873 sec  ( 73.3% of F)
    Basis function eval.    ....      27.552 sec  ( 30.3% of XC)
    Density eval.           ....      28.624 sec  ( 31.5% of XC)
    XC-Functional eval.     ....       2.754 sec  (  3.0% of XC)
    XC-Potential eval.      ....      29.736 sec  ( 32.7% of XC)
Diagonalization             ....       0.423 sec  (  0.3%)
Density matrix formation    ....       0.061 sec  (  0.0%)
Population analysis         ....       0.087 sec  (  0.1%)
Initial guess               ....       4.553 sec  (  3.3%)
Orbital Transformation      ....       0.000 sec  (  0.0%)
Orbital Orthonormalization  ....       0.000 sec  (  0.0%)
DIIS solution               ....       0.438 sec  (  0.3%)
SOSCF solution              ....       0.357 sec  (  0.3%)
Grid generation             ....       4.549 sec  (  3.3%)

Maximum memory used throughout the entire SCF-calculation: 135.0 MB


-------------------------------------------------------------------------------
                          DFT DISPERSION CORRECTION                            
                                                                               
                                 DFTD4 V2.5                                    
-------------------------------------------------------------------------------
The BP86 functional is recognized
Active option DFTDOPT                   ...         5   

Starting D4
-------------------------   ----------------
Dispersion correction           -0.019012270
-------------------------   ----------------


-------------------------   --------------------
FINAL SINGLE POINT ENERGY      -362.972356793472
-------------------------   --------------------

------------------------------------------------------------------------------
                         ORCA SCF GRADIENT CALCULATION
------------------------------------------------------------------------------

Gradient of the Kohn-Sham DFT energy:
Kohn-Sham wavefunction type      ... RKS
Hartree-Fock exchange scaling    ...    0.000
Number of operators              ...    1
Number of atoms                  ...   15
Basis set dimensions             ...  338
Integral neglect threshold       ... 2.5e-11
Integral primitive cutoff        ... 2.5e-12
SHARK Integral package           ... ON

Nuc. rep. gradient       (SHARK) ... done (  0.0 sec)
HCore & Overlap gradient (SHARK) ... done (  1.9 sec)
RI-J gradient            (SHARK) ... done ( 10.2 sec)
Exchange-correlation gradient    ... done
Dispersion correction            ... Starting D4


------------------- 
Dispersion Gradient 
------------------- 
   1  :   -0.000035509    0.000265212    0.000000000
   2  :   -0.000309571    0.000114083    0.000000000
   3  :   -0.000263361   -0.000262125    0.000000000
   4  :    0.000037099   -0.000309993    0.000000000
   5  :    0.000309736   -0.000202693    0.000000000
   6  :    0.000266871    0.000196475    0.000000000
   7  :   -0.000144357    0.000039813    0.000000000
   8  :   -0.000119593   -0.000090587    0.000000000
   9  :    0.000137259   -0.000055868    0.000000000
  10  :    0.000129396    0.000075772    0.000000000
  11  :   -0.000062547    0.000495626    0.000000000
  12  :   -0.000114120    0.000148010    0.000000000
  13  :    0.000073888    0.000171780    0.000000000
  14  :    0.000062159   -0.000484923    0.000000000
  15  :    0.000032651   -0.000100581    0.000000000

  |G| =    0.001149722

done

------------------
CARTESIAN GRADIENT
------------------

   1   C   :    0.003441689   -0.028085575   -0.000000000
   2   C   :   -0.008731965    0.008985258   -0.000000000
   3   C   :   -0.002008912   -0.004223422    0.000000000
   4   C   :   -0.021985244   -0.013833635   -0.000000000
   5   C   :    0.010317949   -0.010883605   -0.000000000
   6   C   :    0.003579270    0.009460303    0.000000000
   7   H   :    0.004354327   -0.002218298   -0.000000001
   8   H   :    0.002307624    0.004105972   -0.000000000
   9   H   :   -0.004693806    0.003014566    0.000000000
  10   H   :   -0.003644242   -0.003868449   -0.000000000
  11   N   :   -0.000307772    0.001505028   -0.000000000
  12   H   :   -0.017648430    0.007267236    0.000000000
  13   H   :    0.015339421    0.011323202    0.000000000
  14   O   :    0.025786445    0.035502447    0.000000000
  15   H   :   -0.006106355   -0.018051028    0.000000000

Difference to translation invariance:
           :    0.0000000000   -0.0000000000    0.0000000000

Difference to rotation invariance:
           :   -0.0000000008   -0.0000000041    0.0002063553

Norm of the cartesian gradient     ...    0.0714528919
RMS gradient                       ...    0.0106515682
MAX gradient                       ...    0.0355024471

-------
TIMINGS
-------

Total SCF gradient time            ...       39.228 sec

One electron gradient       ....       1.924 sec  (  4.9%)
RI-J Coulomb gradient       ....      10.195 sec  ( 26.0%)
XC gradient                 ....      25.896 sec  ( 66.0%)

Maximum memory used throughout the entire SCFGRAD-calculation: 142.8 MB
------------------------------------------------------------------------------
                         ORCA GEOMETRY RELAXATION STEP
------------------------------------------------------------------------------

Reading the OPT-File                    .... done
Getting information on internals        .... done
Copying old internal coords+grads       .... done
Making the new internal coordinates     .... (new redundants).... done
Validating the new internal coordinates .... (new redundants).... done
Calculating the B-matrix                .... done
Calculating the G,G- and P matrices     .... done
Transforming gradient to internals      .... done
Projecting the internal gradient        .... done
Number of atoms                         ....  15
Number of internal coordinates          ....  67
Current Energy                          ....  -362.972356793 Eh
Current gradient norm                   ....     0.071452892 Eh/bohr
Maximum allowed component of the step   ....  0.300
Current trust radius                    ....  0.300
Evaluating the initial hessian          ....  (Almloef) done
Projecting the Hessian                  .... done
Forming the augmented Hessian           .... done
Diagonalizing the augmented Hessian     .... done
Last element of RFO vector              ....  0.991535909
Lowest eigenvalues of augmented Hessian:
 -0.007075411  0.020388429  0.020388429  0.023239153  0.024520712
[...]
      5       0.000000   0.000000   0.000000   0.000000   0.000000  -0.000000
      6       0.083158  -0.054675   0.093991  -0.023921  -0.105792   0.106994
      7       0.070658   0.078959  -0.132196   0.201475   0.081769   0.016051
      8      -0.000000  -0.000000   0.000000  -0.000000  -0.000000   0.000000
      9       0.020234  -0.031884  -0.260344  -0.139596   0.029139  -0.212034
     10       0.115387   0.028751  -0.025107  -0.019612  -0.194900  -0.048559
     11       0.000000  -0.000000  -0.000000  -0.000000  -0.000000   0.000000
     12      -0.079266  -0.054766   0.078520   0.043790   0.093077   0.111314
     13       0.113288  -0.043495   0.188380  -0.156605   0.141860   0.101936
     14       0.000000   0.000000  -0.000000  -0.000000  -0.000000  -0.000000
     15       0.032581   0.016390   0.157908   0.008468  -0.118314  -0.089450
     16      -0.115312  -0.045513  -0.189098   0.175558   0.067238  -0.003643
     17      -0.000000  -0.000000  -0.000000   0.000000   0.000000   0.000000
     18       0.243013  -0.165482  -0.083710   0.237048  -0.129675   0.018897
     19       0.463800  -0.444730  -0.294437   0.185992  -0.416081   0.206696
     20      -0.000000   0.000000  -0.000000   0.000000   0.000000  -0.000000
     21      -0.175988   0.230288   0.076531   0.341161   0.189344   0.048988
     22       0.440167  -0.297380  -0.106192  -0.251844  -0.334551   0.109883
     23      -0.000000   0.000000  -0.000000   0.000000   0.000000  -0.000000
     24      -0.115859   0.126024   0.004204   0.225562  -0.132527   0.009927
     25       0.067552   0.421148   0.013868   0.248085  -0.455024  -0.158591
     26       0.000000   0.000000   0.000000   0.000000   0.000000   0.000000
     27      -0.134131  -0.305079  -0.100167   0.332027   0.188969  -0.019577
     28       0.078379   0.390434   0.169509  -0.241986  -0.386300  -0.097694
     29      -0.000000  -0.000000   0.000000   0.000000   0.000000  -0.000000
     30      -0.009404  -0.041489   0.029052   0.060304  -0.013175  -0.036511
     31       0.178420   0.023558   0.005562   0.017825   0.044483   0.076999
     32       0.000000   0.000000   0.000000   0.000000  -0.000000   0.000000
     33       0.023198   0.042157  -0.056897  -0.031240   0.052025  -0.244684
     34       0.286235   0.209315  -0.176147  -0.176857   0.196305  -0.422424
     35       0.000000   0.000000  -0.000000  -0.000000   0.000000  -0.000000
     36      -0.145731   0.055254  -0.096983  -0.096554  -0.075012   0.429939
     37       0.370187  -0.090691   0.156182   0.210592   0.128574  -0.522321
     38       0.000000  -0.000000   0.000000   0.000000   0.000000  -0.000000
     39      -0.000934   0.029330   0.046036   0.050112  -0.014264   0.026639
     40      -0.060932   0.000057   0.033501   0.021529   0.034909   0.016243
     41      -0.000000  -0.000000   0.000000   0.000000   0.000000  -0.000000
     42       0.015501  -0.053899  -0.144855  -0.071493   0.020080  -0.048477
     43      -0.013749  -0.308817  -0.656338  -0.407867   0.152589  -0.234188
     44      -0.000000   0.000000   0.000000   0.000000   0.000000   0.000000
                 36         37         38         39         40         41    
      0      -0.090648   0.060383   0.000148   0.001558   0.002467   0.000989
      1      -0.038677  -0.252125  -0.001281   0.002907  -0.003142   0.001529
      2      -0.000000  -0.000000   0.000000  -0.000000  -0.000000  -0.000000
      3       0.048957   0.024821   0.003331  -0.076350   0.007512  -0.020765
      4       0.014719   0.275198  -0.000960   0.030672  -0.002062   0.011229
      5       0.000000   0.000000  -0.000000   0.000000  -0.000000  -0.000000
      6      -0.076025   0.128470  -0.001055   0.016833  -0.004646  -0.066957
      7       0.045401  -0.256443   0.000460   0.010055  -0.003703  -0.050960
      8      -0.000000   0.000000   0.000000  -0.000000   0.000000   0.000000
      9       0.119528  -0.062114  -0.000981   0.000517   0.001766   0.002767
     10      -0.019276   0.188567  -0.003679   0.000494   0.002265  -0.002958
     11       0.000000  -0.000000   0.000000  -0.000000  -0.000000   0.000000
     12      -0.053428  -0.027517   0.070491  -0.000905  -0.037115   0.001990
     13       0.001885  -0.255362  -0.027464   0.000387   0.017126  -0.000167
     14       0.000000   0.000000   0.000000  -0.000000  -0.000000   0.000000
     15       0.062694  -0.122544  -0.031208  -0.007584  -0.061634   0.002983
     16      -0.037854   0.264988  -0.020318  -0.006536  -0.046062   0.001962
     17       0.000000   0.000000  -0.000000   0.000000  -0.000000  -0.000000
     18       0.015797  -0.187928  -0.039017   0.887924  -0.085402   0.231365
     19      -0.061709  -0.247798   0.015254  -0.360218   0.033292  -0.096959
     20       0.000000  -0.000000  -0.000000  -0.000000   0.000000  -0.000000
     21       0.023876  -0.228294   0.008748  -0.199542   0.056098   0.768853
     22      -0.095444   0.217080   0.004675  -0.147144   0.042886   0.579843
     23       0.000000  -0.000000  -0.000000   0.000000  -0.000000  -0.000000
     24      -0.041796   0.165240  -0.822047   0.009117   0.417094  -0.020175
     25       0.034016   0.229534   0.332637  -0.003940  -0.172376   0.007647
     26       0.000000  -0.000000  -0.000000   0.000000   0.000000  -0.000000
     27      -0.024564   0.240392   0.367322   0.091429   0.711618  -0.032188
     28       0.089382  -0.236307   0.263751   0.067843   0.518416  -0.023040
     29      -0.000000  -0.000000   0.000000   0.000000   0.000000  -0.000000
     30       0.001237  -0.016793   0.000019  -0.000294  -0.000378  -0.000169
     31       0.103430   0.099238   0.000009  -0.000220   0.000235  -0.000195
     32       0.000000   0.000000   0.000000  -0.000000   0.000000   0.000000
     33      -0.320882  -0.157214   0.001376  -0.000081   0.001616   0.000577
     34      -0.642798  -0.230492   0.000642  -0.005657   0.002728  -0.001623
     35      -0.000000  -0.000000   0.000000   0.000000   0.000000   0.000000
     36       0.423849   0.222331  -0.001430   0.002297  -0.001423   0.000220
     37      -0.450825  -0.210193   0.002647  -0.000743   0.005191  -0.001306
     38      -0.000000  -0.000000   0.000000   0.000000   0.000000   0.000000
     39      -0.016021   0.011088   0.000281  -0.000077  -0.000376  -0.000331
     40      -0.003250  -0.023596   0.000388   0.000021  -0.000383   0.000316
     41       0.000000   0.000000  -0.000000   0.000000  -0.000000  -0.000000
     42       0.028824  -0.015008  -0.004942  -0.000233   0.003700   0.000193
     43       0.144482  -0.107137   0.008507   0.000023  -0.003390   0.002213
     44      -0.000000   0.000000  -0.000000   0.000000   0.000000  -0.000000
                 42         43         44    
      0       0.000180   0.001446   0.000025
      1      -0.001419   0.000158   0.000197
      2      -0.000000   0.000000  -0.000000
      3      -0.000310  -0.000625  -0.000191
      4      -0.000642  -0.000136  -0.000114
      5       0.000000  -0.000000   0.000000
      6       0.000201   0.000028   0.000668
      7       0.000155  -0.000004  -0.000108
      8      -0.000000   0.000000  -0.000000
      9       0.000008   0.000035  -0.002739
     10       0.000097   0.000001  -0.000314
     11      -0.000000  -0.000000   0.000000
     12      -0.000223   0.000026   0.001213
     13       0.000067   0.000008  -0.000892
     14      -0.000000   0.000000  -0.000000
     15       0.000464  -0.000639  -0.000064
     16      -0.000528  -0.000004   0.000048
     17       0.000000  -0.000000   0.000000
     18      -0.000196   0.001382   0.000307
     19       0.001459  -0.002294   0.000310
     20       0.000000  -0.000000   0.000000
     21      -0.000714  -0.000110   0.000641
     22      -0.000116   0.000224  -0.000429
     23      -0.000000   0.000000  -0.000000
     24       0.000574  -0.000022  -0.005338
     25       0.000146  -0.000252   0.005243
     26      -0.000000  -0.000000  -0.000000
     27      -0.000222   0.000796  -0.000423
     28       0.001401   0.002529  -0.000852
     29       0.000000  -0.000000   0.000000
     30      -0.006575   0.085547   0.000178
     31       0.052622   0.010755  -0.000428
     32       0.000000   0.000000  -0.000000
     33       0.649649  -0.643286  -0.004176
     34      -0.275277   0.288533   0.001705
     35       0.000000  -0.000000  -0.000000
     36      -0.561761  -0.550657   0.002034
     37      -0.428669  -0.438470   0.001479
     38      -0.000000  -0.000000  -0.000000
     39      -0.000295   0.000084  -0.059706
     40      -0.000118  -0.000024   0.016814
     41       0.000000   0.000000  -0.000000
     42       0.004907  -0.001416   0.965096
     43      -0.001235   0.000403  -0.254257
     44       0.000000  -0.000000   0.000000


-----------
IR SPECTRUM
-----------

 Mode   freq       eps      Int      T**2         TX        TY        TZ
       cm**-1   L/(mol*cm) km/mol    a.u.
----------------------------------------------------------------------------
  7:    143.76   0.000625    3.16  0.001357  ( 0.000000 -0.000000 -0.036841)
  8:    299.26   0.017796   89.93  0.018557  ( 0.000000 -0.000000  0.136225)
  9:    314.35   0.000010    0.05  0.000010  (-0.000000 -0.000000  0.003201)
 10:    315.67   0.001115    5.64  0.001103  ( 0.018887  0.027313  0.000000)
 11:    347.27   0.000401    2.03  0.000360  (-0.000000  0.000000 -0.018981)
 12:    410.12   0.000287    1.45  0.000218  (-0.000000 -0.000000 -0.014771)
 13:    418.78   0.001403    7.09  0.001045  ( 0.014029 -0.029128 -0.000000)
 14:    459.85   0.000131    0.66  0.000089  ( 0.001738  0.009285 -0.000000)
 15:    495.00   0.006035   30.50  0.003805  ( 0.000000 -0.000000 -0.061681)
 16:    640.27   0.000087    0.44  0.000042  (-0.002229  0.006116  0.000000)
 17:    692.71   0.000121    0.61  0.000054  ( 0.000000 -0.000000 -0.007381)
 18:    754.44   0.008106   40.96  0.003353  (-0.005779  0.057614 -0.000000)
 19:    761.59   0.001318    6.66  0.000540  (-0.000000  0.000000  0.023239)
 20:    794.03   0.008371   42.31  0.003290  (-0.000000  0.000000 -0.057360)
 21:    840.95   0.000278    1.41  0.000103  ( 0.003324 -0.009604  0.000000)
 22:    868.87   0.000043    0.22  0.000016  (-0.000000 -0.000000 -0.003942)
 23:    902.67   0.000073    0.37  0.000025  ( 0.000000  0.000000  0.005013)
 24:    993.85   0.000066    0.33  0.000021  ( 0.000574 -0.004499 -0.000000)
 25:    997.57   0.000362    1.83  0.000113  ( 0.002130 -0.010426 -0.000000)
 26:   1104.29   0.004313   21.80  0.001219  ( 0.030961 -0.016135  0.000000)
 27:   1155.46   0.013241   66.91  0.003576  ( 0.001053 -0.059790  0.000000)
 28:   1159.01   0.018771   94.86  0.005054  ( 0.004028  0.070978 -0.000000)
 29:   1242.58   0.019210   97.08  0.004825  (-0.014464  0.067936 -0.000000)
 30:   1294.42   0.004553   23.01  0.001098  ( 0.007555 -0.032258 -0.000000)
 31:   1312.45   0.004072   20.58  0.000968  (-0.004347 -0.030811 -0.000000)
 32:   1355.03   0.006823   34.48  0.001571  ( 0.031360 -0.024248  0.000000)
 33:   1445.14   0.004197   21.21  0.000906  (-0.001905 -0.030045  0.000000)
 34:   1508.01   0.044790  226.35  0.009269  ( 0.011523 -0.095582 -0.000000)
 35:   1585.72   0.008651   43.72  0.001702  ( 0.005673 -0.040869 -0.000000)
 36:   1588.54   0.012249   61.90  0.002406  ( 0.006059 -0.048678 -0.000000)
 37:   1628.99   0.006029   30.47  0.001155  ( 0.004062 -0.033741 -0.000000)
 38:   3071.95   0.004812   24.32  0.000489  ( 0.008211 -0.020527 -0.000000)
 39:   3085.64   0.003664   18.51  0.000371  (-0.014780  0.012332 -0.000000)
 40:   3092.85   0.003429   17.33  0.000346  (-0.016208 -0.009126 -0.000000)
 41:   3118.21   0.001350    6.82  0.000135  (-0.010027 -0.005877 -0.000000)
 42:   3555.22   0.009719   49.12  0.000853  ( 0.004073 -0.028923 -0.000000)
 43:   3676.58   0.004750   24.00  0.000403  (-0.019938 -0.002372 -0.000000)
 44:   3698.05   0.007902   39.93  0.000667  ( 0.017563 -0.018930  0.000000)

* The epsilon (eps) is given for a Dirac delta lineshape.
** The dipole moment derivative (T) already includes vibrational overlap.

The first frequency considered to be a vibration is 7
The total number of vibrations considered is 38


--------------------------
THERMOCHEMISTRY AT 298.15K
--------------------------

Temperature         ... 298.15 K
Pressure            ... 1.00 atm
Total Mass          ... 109.13 AMU

Throughout the following assumptions are being made:
  (1) The electronic state is orbitally nondegenerate
  (2) There are no thermally accessible electronically excited states
  (3) Hindered rotations indicated by low frequency modes are not
      treated as such but are treated as vibrations and this may
      cause some error
  (4) All equations used are the standard statistical mechanics
      equations for an ideal gas
  (5) All vibrations are strictly harmonic

freq.     143.76  E(vib)   ...       0.41 
freq.     299.26  E(vib)   ...       0.26 
freq.     314.35  E(vib)   ...       0.25 
freq.     315.67  E(vib)   ...       0.25 
freq.     347.27  E(vib)   ...       0.23 
freq.     410.12  E(vib)   ...       0.19 
freq.     418.78  E(vib)   ...       0.18 
freq.     459.85  E(vib)   ...       0.16 
freq.     495.00  E(vib)   ...       0.14 
freq.     640.27  E(vib)   ...       0.09 
freq.     692.71  E(vib)   ...       0.07 
freq.     754.44  E(vib)   ...       0.06 
freq.     761.59  E(vib)   ...       0.06 
freq.     794.03  E(vib)   ...       0.05 
freq.     840.95  E(vib)   ...       0.04 
freq.     868.87  E(vib)   ...       0.04 
freq.     902.67  E(vib)   ...       0.03 
freq.     993.85  E(vib)   ...       0.02 
freq.     997.57  E(vib)   ...       0.02 
freq.    1104.29  E(vib)   ...       0.02 
freq.    1155.46  E(vib)   ...       0.01 
freq.    1159.01  E(vib)   ...       0.01 
freq.    1242.58  E(vib)   ...       0.01 
freq.    1294.42  E(vib)   ...       0.01 
freq.    1312.45  E(vib)   ...       0.01 
freq.    1355.03  E(vib)   ...       0.01 
freq.    1445.14  E(vib)   ...       0.00 
freq.    1508.01  E(vib)   ...       0.00 
freq.    1585.72  E(vib)   ...       0.00 
freq.    1588.54  E(vib)   ...       0.00 
freq.    1628.99  E(vib)   ...       0.00 
freq.    3071.95  E(vib)   ...       0.00 
freq.    3085.64  E(vib)   ...       0.00 
freq.    3092.85  E(vib)   ...       0.00 
freq.    3118.21  E(vib)   ...       0.00 
freq.    3555.22  E(vib)   ...       0.00 
freq.    3676.58  E(vib)   ...       0.00 
freq.    3698.05  E(vib)   ...       0.00 

------------
INNER ENERGY
------------

The inner energy is: U= E(el) + E(ZPE) + E(vib) + E(rot) + E(trans)
    E(el)   - is the total energy from the electronic structure calculation
              = E(kin-el) + E(nuc-el) + E(el-el) + E(nuc-nuc)
    E(ZPE)  - the the zero temperature vibrational energy from the frequency calculation
    E(vib)  - the the finite temperature correction to E(ZPE) due to population
              of excited vibrational states
    E(rot)  - is the rotational thermal energy
    E(trans)- is the translational thermal energy

Summary of contributions to the inner energy U:
Electronic energy                ...   -362.97958697 Eh
Zero point energy                ...      0.11648079 Eh      73.09 kcal/mol
Thermal vibrational correction   ...      0.00422212 Eh       2.65 kcal/mol
Thermal rotational correction    ...      0.00141627 Eh       0.89 kcal/mol
Thermal translational correction ...      0.00141627 Eh       0.89 kcal/mol
-----------------------------------------------------------------------
Total thermal energy                   -362.85605152 Eh


Summary of corrections to the electronic energy:
(perhaps to be used in another calculation)
Total thermal correction                  0.00705466 Eh       4.43 kcal/mol
Non-thermal (ZPE) correction              0.11648079 Eh      73.09 kcal/mol
-----------------------------------------------------------------------
Total correction                          0.12353545 Eh      77.52 kcal/mol


--------
ENTHALPY
--------

The enthalpy is H = U + kB*T
                kB is Boltzmann's constant
Total free energy                 ...   -362.85605152 Eh 
Thermal Enthalpy correction       ...      0.00094421 Eh       0.59 kcal/mol
-----------------------------------------------------------------------
Total Enthalpy                    ...   -362.85510731 Eh


Note: Rotational entropy computed according to Herzberg 
Infrared and Raman Spectra, Chapter V,1, Van Nostrand Reinhold, 1945 
Point Group:  Cs, Symmetry Number:   1  
Rotational constants in cm-1:     0.185850     0.048949     0.038745 

Vibrational entropy computed according to the QRRHO of S. Grimme
Chem.Eur.J. 2012 18 9955


-------
ENTROPY
-------

The entropy contributions are T*S = T*(S(el)+S(vib)+S(rot)+S(trans))
     S(el)   - electronic entropy
     S(vib)  - vibrational entropy
     S(rot)  - rotational entropy
     S(trans)- translational entropy
The entropies will be listed as multiplied by the temperature to get
units of energy

Electronic entropy                ...      0.00000000 Eh      0.00 kcal/mol
Vibrational entropy               ...      0.00648148 Eh      4.07 kcal/mol
Rotational entropy                ...      0.01326419 Eh      8.32 kcal/mol
Translational entropy             ...      0.01899496 Eh     11.92 kcal/mol
-----------------------------------------------------------------------
Final entropy term                ...      0.03874063 Eh     24.31 kcal/mol

In case the symmetry of your molecule has not been determined correctly
or in case you have a reason to use a different symmetry number we print 
out the resulting rotational entropy values for sn=1,12 :
 --------------------------------------------------------
|  sn= 1 | S(rot)=       0.01326419 Eh      8.32 kcal/mol|
|  sn= 2 | S(rot)=       0.01260974 Eh      7.91 kcal/mol|
|  sn= 3 | S(rot)=       0.01222690 Eh      7.67 kcal/mol|
|  sn= 4 | S(rot)=       0.01195528 Eh      7.50 kcal/mol|
|  sn= 5 | S(rot)=       0.01174459 Eh      7.37 kcal/mol|
|  sn= 6 | S(rot)=       0.01157245 Eh      7.26 kcal/mol|
|  sn= 7 | S(rot)=       0.01142690 Eh      7.17 kcal/mol|
|  sn= 8 | S(rot)=       0.01130082 Eh      7.09 kcal/mol|
|  sn= 9 | S(rot)=       0.01118961 Eh      7.02 kcal/mol|
|  sn=10 | S(rot)=       0.01109014 Eh      6.96 kcal/mol|
|  sn=11 | S(rot)=       0.01100015 Eh      6.90 kcal/mol|
|  sn=12 | S(rot)=       0.01091799 Eh      6.85 kcal/mol|
 --------------------------------------------------------


-------------------
GIBBS FREE ENERGY
-------------------

The Gibbs free energy is G = H - T*S

Total enthalpy                    ...   -362.85510731 Eh 
Total entropy correction          ...     -0.03874063 Eh    -24.31 kcal/mol
-----------------------------------------------------------------------
Final Gibbs free energy         ...   -362.89384794 Eh

For completeness - the Gibbs free energy minus the electronic energy
G-E(el)                           ...      0.08573903 Eh     53.80 kcal/mol


Timings for individual modules:

Sum of individual times         ...     2525.588 sec (=  42.093 min)
GTO integral calculation        ...       18.432 sec (=   0.307 min)   0.7 %
SCF iterations                  ...      556.661 sec (=   9.278 min)  22.0 %
SCF Gradient evaluation         ...      217.187 sec (=   3.620 min)   8.6 %
Geometry relaxation             ...        1.033 sec (=   0.017 min)   0.0 %
Analytical frequency calculation...     1732.275 sec (=  28.871 min)  68.6 %
                             ****ORCA TERMINATED NORMALLY****
TOTAL RUN TIME: 0 days 0 hours 42 minutes 11 seconds 218 msec
