
                                 *****************
                                 * O   R   C   A *
                                 *****************

                                            #,                                       
                                            ###                                      
                                            ####                                     
                                            #####                                    
                                            ######                                   
                                           ########,                                 
                                     ,,################,,,,,                         
                               ,,#################################,,                 
                          ,,##########################################,,             
                       ,#########################################, ''#####,          
                    ,#############################################,,   '####,        
                  ,##################################################,,,,####,       
                ,###########''''           ''''###############################       
              ,#####''   ,,,,##########,,,,          '''####'''          '####       
            ,##' ,,,,###########################,,,                        '##       
           ' ,,###''''                  '''############,,,                           
         ,,##''                                '''############,,,,        ,,,,,,###''
      ,#''                                            '''#######################'''  
     '                                                          ''''####''''         
             ,#######,   #######,   ,#######,      ##                                
            ,#'     '#,  ##    ##  ,#'     '#,    #''#        ######   ,####,        
            ##       ##  ##   ,#'  ##            #'  '#       #        #'  '#        
            ##       ##  #######   ##           ,######,      #####,   #    #        
            '#,     ,#'  ##    ##  '#,     ,#' ,#      #,         ##   #,  ,#        
             '#######'   ##     ##  '#######'  #'      '#     #####' # '####'        



                  #######################################################
                  #                        -***-                        #
                  #          Department of theory and spectroscopy      #
                  #    Directorship and core code : Frank Neese         #
                  #        Max Planck Institute fuer Kohlenforschung    #
                  #                Kaiser Wilhelm Platz 1               #
                  #                 D-45470 Muelheim/Ruhr               #
                  #                      Germany                        #
                  #                                                     #
                  #                  All rights reserved                #
                  #                        -***-                        #
                  #######################################################



                         Program Version 5.0.4 -  RELEASE  -

 With contributions from (in alphabetic order):
   Daniel Aravena         : Magnetic Suceptibility
   Michael Atanasov       : Ab Initio Ligand Field Theory (pilot matlab implementation)
   Alexander A. Auer      : GIAO ZORA, VPT2 properties, NMR spectrum
   Ute Becker             : Parallelization
   Giovanni Bistoni       : ED, misc. LED, open-shell LED, HFLD
   Martin Brehm           : Molecular dynamics
   Dmytro Bykov           : SCF Hessian
   Vijay G. Chilkuri      : MRCI spin determinant printing, contributions to CSF-ICE
   Dipayan Datta          : RHF DLPNO-CCSD density
   Achintya Kumar Dutta   : EOM-CC, STEOM-CC
   Dmitry Ganyushin       : Spin-Orbit,Spin-Spin,Magnetic field MRCI
   Miquel Garcia          : C-PCM and meta-GGA Hessian, CC/C-PCM, Gaussian charge scheme
   Yang Guo               : DLPNO-NEVPT2, F12-NEVPT2, CIM, IAO-localization
   Andreas Hansen         : Spin unrestricted coupled pair/coupled cluster methods
   Benjamin Helmich-Paris : MC-RPA, TRAH-SCF, COSX integrals
   Lee Huntington         : MR-EOM, pCC
   Robert Izsak           : Overlap fitted RIJCOSX, COSX-SCS-MP3, EOM
   Marcus Kettner         : VPT2
   Christian Kollmar      : KDIIS, OOCD, Brueckner-CCSD(T), CCSD density, CASPT2, CASPT2-K
   Simone Kossmann        : Meta GGA functionals, TD-DFT gradient, OOMP2, MP2 Hessian
   Martin Krupicka        : Initial AUTO-CI
   Lucas Lang             : DCDCAS
   Marvin Lechner         : AUTO-CI (C++ implementation), FIC-MRCC
   Dagmar Lenk            : GEPOL surface, SMD
   Dimitrios Liakos       : Extrapolation schemes; Compound Job, initial MDCI parallelization
   Dimitrios Manganas     : Further ROCIS development; embedding schemes
   Dimitrios Pantazis     : SARC Basis sets
   Anastasios Papadopoulos: AUTO-CI, single reference methods and gradients
   Taras Petrenko         : DFT Hessian,TD-DFT gradient, ASA, ECA, R-Raman, ABS, FL, XAS/XES, NRVS
   Peter Pinski           : DLPNO-MP2, DLPNO-MP2 Gradient
   Christoph Reimann      : Effective Core Potentials
   Marius Retegan         : Local ZFS, SOC
   Christoph Riplinger    : Optimizer, TS searches, QM/MM, DLPNO-CCSD(T), (RO)-DLPNO pert. Triples
   Tobias Risthaus        : Range-separated hybrids, TD-DFT gradient, RPA, STAB
   Michael Roemelt        : Original ROCIS implementation
   Masaaki Saitow         : Open-shell DLPNO-CCSD energy and density
   Barbara Sandhoefer     : DKH picture change effects
   Avijit Sen             : IP-ROCIS
   Kantharuban Sivalingam : CASSCF convergence, NEVPT2, FIC-MRCI
   Bernardo de Souza      : ESD, SOC TD-DFT
   Georgi Stoychev        : AutoAux, RI-MP2 NMR, DLPNO-MP2 response
   Willem Van den Heuvel  : Paramagnetic NMR
   Boris Wezisla          : Elementary symmetry handling
   Frank Wennmohs         : Technical directorship


 We gratefully acknowledge several colleagues who have allowed us to
 interface, adapt or use parts of their codes:
   Stefan Grimme, W. Hujo, H. Kruse, P. Pracht,  : VdW corrections, initial TS optimization,
                  C. Bannwarth, S. Ehlert          DFT functionals, gCP, sTDA/sTD-DF
   Ed Valeev, F. Pavosevic, A. Kumar             : LibInt (2-el integral package), F12 methods
   Garnet Chan, S. Sharma, J. Yang, R. Olivares  : DMRG
   Ulf Ekstrom                                   : XCFun DFT Library
   Mihaly Kallay                                 : mrcc  (arbitrary order and MRCC methods)
   Jiri Pittner, Ondrej Demel                    : Mk-CCSD
   Frank Weinhold                                : gennbo (NPA and NBO analysis)
   Christopher J. Cramer and Donald G. Truhlar   : smd solvation model
   Lars Goerigk                                  : TD-DFT with DH, B97 family of functionals
   V. Asgeirsson, H. Jonsson                     : NEB implementation
   FAccTs GmbH                                   : IRC, NEB, NEB-TS, DLPNO-Multilevel, CI-OPT
                                                   MM, QMMM, 2- and 3-layer-ONIOM, Crystal-QMMM,
                                                   LR-CPCM, SF, NACMEs, symmetry and pop. for TD-DFT,
                                                   nearIR, NL-DFT gradient (VV10), updates on ESD,
                                                   ML-optimized integration grids
   S Lehtola, MJT Oliveira, MAL Marques          : LibXC Library
   Liviu Ungur et al                             : ANISO software


 Your calculation uses the libint2 library for the computation of 2-el integrals
 For citations please refer to: http://libint.valeyev.net

 Your ORCA version has been built with support for libXC version: 5.1.0
 For citations please refer to: https://tddft.org/programs/libxc/

 This ORCA versions uses:
   CBLAS   interface :  Fast vector & matrix operations
   LAPACKE interface :  Fast linear algebra routines
   Shared memory     :  Shared parallel matrices


================================================================================

----- Orbital basis set information -----
Your calculation utilizes the basis: cc-pVTZ 
       H, B-Ne : Obtained from the ccRepo (grant-hill.group.shef.ac.uk/ccrepo) Feb. 2017
                 T. H. Dunning, Jr., J. Chem. Phys. 90, 1007 (1989)
            He : Obtained from the ccRepo (grant-hill.group.shef.ac.uk/ccrepo) Feb. 2017
                 D. E. Woon, T. H. Dunning, Jr., J. Chem. Phys. 100, 2975 (1994)
  Li-Be, Na-Mg : Obtained from the ccRepo (grant-hill.group.shef.ac.uk/ccrepo) Feb. 2017
                 B. P. Prascher, D. E. Woon, K. A. Peterson, T. H. Dunning, Jr., A. K. Wilson, Theor. Chem. Acc. 128, 69 (2011)
         Al-Ar : Obtained from the ccRepo (grant-hill.group.shef.ac.uk/ccrepo) Feb. 2017
                 D. E. Woon, T. H. Dunning, Jr., J. Chem. Phys. 98, 1358 (1993)
            Ca : Obtained from the Peterson Research Group Website (tyr0.chem.wsu.edu/~kipeters) Feb. 2017
                 J. Koput, K. A. Peterson, J. Phys. Chem. 106, 9595 (2002)
         Sc-Zn : Obtained from the ccRepo (grant-hill.group.shef.ac.uk/ccrepo) Feb. 2017
                 N. B. Balabanov, K. A. Peterson, J. Chem. Phys. 123, 064107 (2005)
                 N. B. Balabanov, K. A. Peterson, J. Chem. Phys. 125, 074110 (2006)
         Ga-Kr : Obtained from the ccRepo (grant-hill.group.shef.ac.uk/ccrepo) Feb. 2017
                 A. K. Wilson, D. E. Woon, K. A. Peterson, T. H. Dunning, Jr., J. Chem. Phys. 110, 7667 (1999)
             Y : Obtained from the ccRepo (grant-hill.group.shef.ac.uk/ccrepo) Feb. 2017
                 K. A. Peterson, D. Figgen, M. Dolg, H. Stoll, J. Chem. Phys. 126, 124101 (2007)
        Ag, Au : Obtained from the Peterson Research Group Website (tyr0.chem.wsu.edu/~kipeters) Feb. 2017
                 K. A. Peterson, C. Puzzarini, Theor. Chem. Acc. 114, 283 (2005)

----- AuxJ basis set information -----
Your calculation utilizes the auxiliary basis: def2/J
   F. Weigend, Phys. Chem. Chem. Phys. 8, 1057 (2006).

----- AuxC basis set information -----
Your calculation utilizes the auxiliary basis: cc-pVTZ/C 
  Obtained from the EMSL Basis Set Exchange (bse.pnl.gov) Feb. 2017
  H-He, B-F, Al-Ar, Ga-Kr : F. Weigend, A. Kohn, C. Hattig, J. Chem. Phys. 116, 3175 (2002)
             Li-Be, Na-Mg : C. Haettig, Phys. Chem. Chem. Phys. 7, 59 (2005)
                       Ne : C. Haettig, Phys. Chem. Chem. Phys. 7, 59 (2005)
                            F. Weigend, A. Kohn, C. Hattig, J. Chem. Phys. 116, 3175 (2002)
                    Sc-Zn : J. G. Hill, J. A. Platts, J. Chem. Phys. 128, 044104 (2008)

================================================================================
                                        WARNINGS
                       Please study these warnings very carefully!
================================================================================


WARNING: Post HF methods need fully converged wavefunctions
  ===> : Setting SCFConvForced true
         You can overwrite this default with %scf ConvForced false 


WARNING: MDCI localization with Augmented Hessian Foster-Boys
  ===> : Switching off randomization!

INFO   : the flag for use of the SHARK integral package has been found!

================================================================================
                                       INPUT FILE
================================================================================
NAME = CCSD.inp
|  1> !DLPNO-CCSD(T) cc-pVTZ cc-pVTZ/C TIGHTSCF RIJCOSX
|  2> 
|  3> * xyz 0 1
|  4>   C   -1.05354596271083      1.42135243576665     -0.73549220185663
|  5>   C   -1.76717691585433      0.81968690597605      0.22444324622836
|  6>   C   -0.91604797271676     -0.21504620254596      0.92339098529051
|  7>   C   -3.18658916550982      1.06760146729181      0.62043996179919
|  8>   H   -3.65177058285626      1.84890976029203      0.00161745831760
|  9>   H   -3.25259686050292      1.37975261146372      1.67787971117939
| 10>   H   -3.79133874736600      0.14808169577577      0.52701048897989
| 11>   C   0.35705795446457      0.89749440001034     -0.79501799653405
| 12>   C   1.41588701773226      2.02006837281249     -0.63884945754235
| 13>   C   2.80881703463114      1.41251132710473     -0.63583732910559
| 14>   H   1.20967085252781      2.57392305919014      0.29049098629325
| 15>   H   1.34740263144453      2.70902449090648     -1.49554455642121
| 16>   C   3.37622781232091      1.19049215945855      0.75754145591531
| 17>   N   0.41123761481178     -0.07210345422347      0.31381604773552
| 18>   H   0.56307393880421      0.40954505459904     -1.76931562713006
| 19>   H   -1.34153580290440     -1.23063666814028      0.78694765203342
| 20>   H   -0.89469173408622     -0.03961126720342      2.01833030977159
| 21>   H   0.80199521648994     -0.96262165511348      0.02364954504097
| 22>   O   3.36130687691708      1.06897825383177     -1.65256833709520
| 23>   Cl  4.92950915132907      0.31373216343513      0.77168111918747
| 24>   H   2.62051255229742      0.61607693324621      1.31840686987001
| 25>   H   3.50773757250952      2.16097047317234      1.26235402519175
| 26>   H   -1.41589248177270      2.21265768289335     -1.39571435714913
| 27> **                         ****END OF INPUT****
================================================================================

                       ****************************
                       * Single Point Calculation *
                       ****************************

---------------------------------
CARTESIAN COORDINATES (ANGSTROEM)
---------------------------------
  C     -1.053546    1.421352   -0.735492
  C     -1.767177    0.819687    0.224443
  C     -0.916048   -0.215046    0.923391
  C     -3.186589    1.067601    0.620440
  H     -3.651771    1.848910    0.001617
  H     -3.252597    1.379753    1.677880
  H     -3.791339    0.148082    0.527010
  C      0.357058    0.897494   -0.795018
  C      1.415887    2.020068   -0.638849
  C      2.808817    1.412511   -0.635837
  H      1.209671    2.573923    0.290491
  H      1.347403    2.709024   -1.495545
  C      3.376228    1.190492    0.757541
  N      0.411238   -0.072103    0.313816
  H      0.563074    0.409545   -1.769316
  H     -1.341536   -1.230637    0.786948
  H     -0.894692   -0.039611    2.018330
  H      0.801995   -0.962622    0.023650
  O      3.361307    1.068978   -1.652568
  Cl     4.929509    0.313732    0.771681
  H      2.620513    0.616077    1.318407
  H      3.507738    2.160970    1.262354
  H     -1.415892    2.212658   -1.395714

----------------------------
CARTESIAN COORDINATES (A.U.)
----------------------------
  NO LB      ZA    FRAG     MASS         X           Y           Z
   0 C     6.0000    0    12.011   -1.990913    2.685967   -1.389879
   1 C     6.0000    0    12.011   -3.339480    1.548984    0.424136
   2 C     6.0000    0    12.011   -1.731080   -0.406378    1.744956
   3 C     6.0000    0    12.011   -6.021781    2.017474    1.172462
   4 H     1.0000    0     1.008   -6.900846    3.493933    0.003057
   5 H     1.0000    0     1.008   -6.146517    2.607355    3.170733
   6 H     1.0000    0     1.008   -7.164592    0.279834    0.995905
   7 C     6.0000    0    12.011    0.674742    1.696019   -1.502366
   8 C     6.0000    0    12.011    2.675639    3.817376   -1.207251
   9 C     6.0000    0    12.011    5.307895    2.669260   -1.201558
  10 H     1.0000    0     1.008    2.285947    4.864010    0.548948
  11 H     1.0000    0     1.008    2.546222    5.119314   -2.826170
  12 C     6.0000    0    12.011    6.380146    2.249704    1.431546
  13 N     7.0000    0    14.007    0.777126   -0.136256    0.593026
  14 H     1.0000    0     1.008    1.064056    0.773928   -3.343522
  15 H     1.0000    0     1.008   -2.535135   -2.325566    1.487116
  16 H     1.0000    0     1.008   -1.690722   -0.074854    3.814092
  17 H     1.0000    0     1.008    1.515551   -1.819091    0.044691
  18 O     8.0000    0    15.999    6.351949    2.020076   -3.122902
  19 Cl   17.0000    0    35.453    9.315422    0.592868    1.458266
  20 H     1.0000    0     1.008    4.952051    1.164217    2.491428
  21 H     1.0000    0     1.008    6.628663    4.083642    2.385503
  22 H     1.0000    0     1.008   -2.675649    4.181317   -2.637518

--------------------------------
INTERNAL COORDINATES (ANGSTROEM)
--------------------------------
 C      0   0   0     0.000000000000     0.00000000     0.00000000
 C      1   0   0     1.338934879489     0.00000000     0.00000000
 C      2   1   0     1.511165452774   109.82196906     0.00000000
 C      2   1   3     1.494324651114   128.44062839   179.78269870
 H      4   2   1     1.099898945618   111.74548719     0.56287256
 H      4   2   1     1.104524411761   110.93787333   239.70122251
 H      4   2   1     1.104521495198   111.07206626   121.48725273
 C      1   2   3     1.505913003134   111.79412486   359.04900444
 C      8   1   2     1.551025442152   112.56335804   236.40577598
 C      9   8   1     1.519667288812   109.66823387   177.07142628
 H      9   8   1     1.101341809323   108.73027453    54.57694854
 H      9   8   1     1.101488600153   109.38669597   295.31290613
 C     10   9   8     1.520773467676   113.71409416   262.94198134
 N      3   2   1     1.467549407909   104.51207102     3.94388319
 H      8   1   2     1.108960334041   111.21128859   117.28720759
 H      3   2   1     1.109540747622   110.72492162   242.40782782
 H      3   2   1     1.109110287466   111.04803639   125.08450044
 H     14   3   2     1.014845194437   112.42873142   228.76442572
 O     10   9   8     1.207063354124   122.11734072    78.62710422
 Cl    13  10   9     1.783701471327   113.82421088   173.56777860
 H     13  10   9     1.102555404008   106.64293304    52.48876903
 H     13  10   9     1.101797941781   109.61716057   295.91096255
 H      1   2   3     1.092406649717   125.59235336   180.27335036

---------------------------
INTERNAL COORDINATES (A.U.)
---------------------------
 C      0   0   0     0.000000000000     0.00000000     0.00000000
 C      1   0   0     2.530220233389     0.00000000     0.00000000
 C      2   1   0     2.855688848786   109.82196906     0.00000000
 C      2   1   3     2.823864345773   128.44062839   179.78269870
 H      4   2   1     2.078507782206   111.74548719     0.56287256
 H      4   2   1     2.087248646458   110.93787333   239.70122251
 H      4   2   1     2.087243134954   111.07206626   121.48725273
 C      1   2   3     2.845763157435   111.79412486   359.04900444
 C      8   1   2     2.931013312412   112.56335804   236.40577598
 C      9   8   1     2.871754990533   109.66823387   177.07142628
 H      9   8   1     2.081234399458   108.73027453    54.57694854
 H      9   8   1     2.081511793926   109.38669597   295.31290613
 C     10   9   8     2.873845365641   113.71409416   262.94198134
 N      3   2   1     2.773266468946   104.51207102     3.94388319
 H      8   1   2     2.095631324719   111.21128859   117.28720759
 H      3   2   1     2.096728147432   110.72492162   242.40782782
 H      3   2   1     2.095914695625   111.04803639   125.08450044
 H     14   3   2     1.917779485812   112.42873142   228.76442572
 O     10   9   8     2.281019165587   122.11734072    78.62710422
 Cl    13  10   9     3.370707285481   113.82421088   173.56777860
 H     13  10   9     2.083527761050   106.64293304    52.48876903
 H     13  10   9     2.082096364884   109.61716057   295.91096255
 H      1   2   3     2.064349394839   125.59235336   180.27335036

---------------------
BASIS SET INFORMATION
---------------------
There are 5 groups of distinct atoms

 Group   1 Type C   : 18s5p2d1f contracted to 4s3p2d1f pattern {8811/311/11/1}
 Group   2 Type H   : 5s2p1d contracted to 3s2p1d pattern {311/11/1}
 Group   3 Type N   : 18s5p2d1f contracted to 4s3p2d1f pattern {8811/311/11/1}
 Group   4 Type O   : 18s5p2d1f contracted to 4s3p2d1f pattern {8811/311/11/1}
 Group   5 Type Cl  : 41s16p2d1f contracted to 5s4p2d1f pattern {13131311/7711/11/1}

Atom   0C    basis set group =>   1
Atom   1C    basis set group =>   1
Atom   2C    basis set group =>   1
Atom   3C    basis set group =>   1
Atom   4H    basis set group =>   2
Atom   5H    basis set group =>   2
Atom   6H    basis set group =>   2
Atom   7C    basis set group =>   1
Atom   8C    basis set group =>   1
Atom   9C    basis set group =>   1
Atom  10H    basis set group =>   2
Atom  11H    basis set group =>   2
Atom  12C    basis set group =>   1
Atom  13N    basis set group =>   3
Atom  14H    basis set group =>   2
Atom  15H    basis set group =>   2
Atom  16H    basis set group =>   2
Atom  17H    basis set group =>   2
Atom  18O    basis set group =>   4
Atom  19Cl   basis set group =>   5
Atom  20H    basis set group =>   2
Atom  21H    basis set group =>   2
Atom  22H    basis set group =>   2
---------------------------------
AUXILIARY/J BASIS SET INFORMATION
---------------------------------
There are 5 groups of distinct atoms

 Group   1 Type C   : 12s5p4d2f1g contracted to 6s4p3d1f1g pattern {711111/2111/211/2/1}
 Group   2 Type H   : 5s2p1d contracted to 3s1p1d pattern {311/2/1}
 Group   3 Type N   : 12s5p4d2f1g contracted to 6s4p3d1f1g pattern {711111/2111/211/2/1}
 Group   4 Type O   : 12s5p4d2f1g contracted to 6s4p3d1f1g pattern {711111/2111/211/2/1}
 Group   5 Type Cl  : 14s5p5d2f1g contracted to 8s4p3d1f1g pattern {71111111/2111/311/2/1}

Atom   0C    basis set group =>   1
Atom   1C    basis set group =>   1
Atom   2C    basis set group =>   1
Atom   3C    basis set group =>   1
Atom   4H    basis set group =>   2
Atom   5H    basis set group =>   2
Atom   6H    basis set group =>   2
Atom   7C    basis set group =>   1
Atom   8C    basis set group =>   1
Atom   9C    basis set group =>   1
Atom  10H    basis set group =>   2
Atom  11H    basis set group =>   2
Atom  12C    basis set group =>   1
Atom  13N    basis set group =>   3
Atom  14H    basis set group =>   2
Atom  15H    basis set group =>   2
Atom  16H    basis set group =>   2
Atom  17H    basis set group =>   2
Atom  18O    basis set group =>   4
Atom  19Cl   basis set group =>   5
Atom  20H    basis set group =>   2
Atom  21H    basis set group =>   2
Atom  22H    basis set group =>   2
---------------------------------
AUXILIARY/C BASIS SET INFORMATION
---------------------------------
There are 5 groups of distinct atoms

 Group   1 Type C   : 8s6p5d3f1g contracted to 8s6p5d3f1g pattern {11111111/111111/11111/111/1}
 Group   2 Type H   : 4s3p2d1f contracted to 4s3p2d1f pattern {1111/111/11/1}
 Group   3 Type N   : 8s6p5d3f1g contracted to 8s6p5d3f1g pattern {11111111/111111/11111/111/1}
 Group   4 Type O   : 8s6p5d3f1g contracted to 8s6p5d3f1g pattern {11111111/111111/11111/111/1}
 Group   5 Type Cl  : 10s8p7d5f2g contracted to 10s8p7d5f2g pattern {1111111111/11111111/1111111/11111/11}

Atom   0C    basis set group =>   1
Atom   1C    basis set group =>   1
Atom   2C    basis set group =>   1
Atom   3C    basis set group =>   1
Atom   4H    basis set group =>   2
Atom   5H    basis set group =>   2
Atom   6H    basis set group =>   2
Atom   7C    basis set group =>   1
Atom   8C    basis set group =>   1
Atom   9C    basis set group =>   1
Atom  10H    basis set group =>   2
Atom  11H    basis set group =>   2
Atom  12C    basis set group =>   1
Atom  13N    basis set group =>   3
Atom  14H    basis set group =>   2
Atom  15H    basis set group =>   2
Atom  16H    basis set group =>   2
Atom  17H    basis set group =>   2
Atom  18O    basis set group =>   4
Atom  19Cl   basis set group =>   5
Atom  20H    basis set group =>   2
Atom  21H    basis set group =>   2
Atom  22H    basis set group =>   2
------------------------------------------------------------------------------
                           ORCA GTO INTEGRAL CALCULATION
                           -- RI-GTO INTEGRALS CHOSEN --
------------------------------------------------------------------------------
------------------------------------------------------------------------------
                   ___                                                        
                  /   \      - P O W E R E D   B Y -                         
                 /     \                                                     
                 |  |  |   _    _      __       _____    __    __             
                 |  |  |  | |  | |    /  \     |  _  \  |  |  /  |          
                  \  \/   | |  | |   /    \    | | | |  |  | /  /          
                 / \  \   | |__| |  /  /\  \   | |_| |  |  |/  /          
                |  |  |   |  __  | /  /__\  \  |    /   |      \           
                |  |  |   | |  | | |   __   |  |    \   |  |\   \          
                \     /   | |  | | |  |  |  |  | |\  \  |  | \   \       
                 \___/    |_|  |_| |__|  |__|  |_| \__\ |__|  \__/        
                                                                              
                      - O R C A' S   B I G   F R I E N D -                    
                                      &                                       
                       - I N T E G R A L  F E E D E R -                       
                                                                              
 v1 FN, 2020, v2 2021                                                         
------------------------------------------------------------------------------


Reading SHARK input file CCSD.SHARKINP.tmp ... ok
----------------------
SHARK INTEGRAL PACKAGE
----------------------

Number of atoms                             ...     23
Number of basis functions                   ...    587
Number of shells                            ...    259
Maximum angular momentum                    ...      3
Integral batch strategy                     ... SHARK/LIBINT Hybrid
RI-J (if used) integral strategy            ... SPLIT-RIJ (Revised 2003 algorithm where possible)
Printlevel                                  ...      1
Contraction scheme used                     ... PARTIAL GENERAL contraction
Coulomb Range Separation                    ... NOT USED
Exchange Range Separation                   ... NOT USED
Finite Nucleus Model                        ... NOT USED
Auxiliary Coulomb fitting basis             ... AVAILABLE
   # of basis functions in Aux-J            ...    673
   # of shells in Aux-J                     ...    227
   Maximum angular momentum in Aux-J        ...      4
Auxiliary J/K fitting basis                 ... NOT available
Auxiliary Correlation fitting basis         ... AVAILABLE
   # of basis functions in Aux-C            ...   1292
   # of shells in Aux-C                     ...    382
   Maximum angular momentum in Aux-C        ...      4
Auxiliary 'external' fitting basis          ... NOT available
Integral threshold                          ...     2.500000e-11
Primitive cut-off                           ...     2.500000e-12
Primitive pair pre-selection threshold      ...     2.500000e-12

Calculating pre-screening integrals         ... done (  0.5 sec) Dimension = 259
Calculating pre-screening integrals (ORCA)  ... done (  2.2 sec) Dimension = 184
Organizing shell pair data                  ... done (  0.7 sec)
Shell pair information
Total number of shell pairs                 ...     33670
Shell pairs after pre-screening             ...     21967
Total number of primitive shell pairs       ...     46122
Primitive shell pairs kept                  ...     27194
          la=0 lb=0:   6378 shell pairs
          la=1 lb=0:   6475 shell pairs
          la=1 lb=1:   1562 shell pairs
          la=2 lb=0:   3440 shell pairs
          la=2 lb=1:   1644 shell pairs
          la=2 lb=2:    460 shell pairs
          la=3 lb=0:   1126 shell pairs
          la=3 lb=1:    530 shell pairs
          la=3 lb=2:    297 shell pairs
          la=3 lb=3:     55 shell pairs

Calculating one electron integrals          ... done (  0.3 sec)
Calculating RI/J V-Matrix + Cholesky decomp.... done (  0.1 sec)
Calculating RI/C V-Matrix + Cholesky decomp.... done (  0.2 sec)
Calculating Nuclear repulsion               ... done (  0.0 sec) ENN=    682.250720776388 Eh

SHARK setup successfully completed in   4.5 seconds

Maximum memory used throughout the entire GTOINT-calculation: 198.4 MB
-------------------------------------------------------------------------------
                                 ORCA SCF
-------------------------------------------------------------------------------

------------
SCF SETTINGS
------------
Hamiltonian:
 Ab initio Hamiltonian  Method          .... Hartree-Fock(GTOs)
 RI-approximation to the Coulomb term is turned on
   Number of AuxJ basis functions       .... 673
   RIJ-COSX (HFX calculated with COS-X)).... on


General Settings:
 Integral files         IntName         .... CCSD
 Hartree-Fock type      HFTyp           .... RHF
 Total Charge           Charge          ....    0
 Multiplicity           Mult            ....    1
 Number of Electrons    NEL             ....   92
 Basis Dimension        Dim             ....  502
 Nuclear Repulsion      ENuc            ....    682.2507207764 Eh

Convergence Acceleration:
 DIIS                   CNVDIIS         .... on
   Start iteration      DIISMaxIt       ....    12
   Startup error        DIISStart       ....  0.200000
   # of expansion vecs  DIISMaxEq       ....     5
   Bias factor          DIISBfac        ....   1.050
   Max. coefficient     DIISMaxC        ....  10.000
 Trust-Rad. Augm. Hess. CNVTRAH         .... auto
   Auto Start mean grad. ratio tolernc. ....  1.125000
   Auto Start start iteration           ....    20
   Auto Start num. interpolation iter.  ....    10
   Max. Number of Micro iterations      ....    16
   Max. Number of Macro iterations      .... Maxiter - #DIIS iter
   Number of Davidson start vectors     ....     2
   Converg. threshold I  (grad. norm)   ....   1.000e-05
   Converg. threshold II (energy diff.) ....   1.000e-08
   Grad. Scal. Fac. for Micro threshold ....   0.100
   Minimum threshold for Micro iter.    ....   0.010
   NR start threshold (gradient norm)   ....   0.001
   Initial trust radius                 ....   0.400
   Minimum AH scaling param. (alpha)    ....   1.000
   Maximum AH scaling param. (alpha)    .... 1000.000
   Orbital update algorithm             .... Taylor
   White noise on init. David. guess    .... on
   Maximum white noise                  ....   0.010
   Quad. conv. algorithm                .... NR
 SOSCF                  CNVSOSCF        .... on
   Start iteration      SOSCFMaxIt      ....   150
   Startup grad/error   SOSCFStart      ....  0.003300
 Level Shifting         CNVShift        .... on
   Level shift para.    LevelShift      ....    0.2500
   Turn off err/grad.   ShiftErr        ....    0.0010
 Zerner damping         CNVZerner       .... off
 Static damping         CNVDamp         .... on
   Fraction old density DampFac         ....    0.7000
   Max. Damping (<1)    DampMax         ....    0.9800
   Min. Damping (>=0)   DampMin         ....    0.0000
   Turn off err/grad.   DampErr         ....    0.1000
 Fernandez-Rico         CNVRico         .... off

SCF Procedure:
 Maximum # iterations   MaxIter         ....   125
 SCF integral mode      SCFMode         .... Direct
   Integral package                     .... SHARK and LIBINT hybrid scheme
 Reset frequency        DirectResetFreq ....    20
 Integral Threshold     Thresh          ....  2.500e-11 Eh
 Primitive CutOff       TCut            ....  2.500e-12 Eh

Convergence Tolerance:
 Convergence Check Mode ConvCheckMode   .... Total+1el-Energy
 Convergence forced     ConvForced      .... 1
 Energy Change          TolE            ....  1.000e-08 Eh
 1-El. energy change                    ....  1.000e-05 Eh
 Orbital Gradient       TolG            ....  1.000e-05
 Orbital Rotation angle TolX            ....  1.000e-05
 DIIS Error             TolErr          ....  5.000e-07


Diagonalization of the overlap matrix:
Smallest eigenvalue                        ... 1.066e-04
Time for diagonalization                   ...    0.091 sec
Threshold for overlap eigenvalues          ... 1.000e-08
Number of eigenvalues below threshold      ... 0
Time for construction of square roots      ...    0.054 sec
Total time needed                          ...    0.146 sec

Time for model grid setup =    2.307 sec

------------------------------
INITIAL GUESS: MODEL POTENTIAL
------------------------------
Loading Hartree-Fock densities                     ... done
Calculating cut-offs                               ... done
Initializing the effective Hamiltonian             ... done
Setting up the integral package (SHARK)            ... done
Starting the Coulomb interaction                   ... done (   4.3 sec)
Reading the grid                                   ... done
Mapping shells                                     ... done
Starting the XC term evaluation                    ... done (   1.8 sec)
Transforming the Hamiltonian                       ... done (   0.0 sec)
Diagonalizing the Hamiltonian                      ... done (   0.1 sec)
Back transforming the eigenvectors                 ... done (   0.0 sec)
Now organizing SCF variables                       ... done
                      ------------------
                      INITIAL GUESS DONE (   8.7 sec)
                      ------------------
--------------------
COSX GRID GENERATION
--------------------

GRIDX 1
-------
General Integration Accuracy     IntAcc      ... 3.816
Radial Grid Type                 RadialGrid  ... OptM3 with GC (2021)
Angular Grid (max. ang.)         AngularGrid ... 1 (Lebedev-50)
Angular grid pruning method      GridPruning ... 4 (adaptive)
Weight generation scheme         WeightScheme... Becke
Basis function cutoff            BFCut       ... 1.0000e-11
Integration weight cutoff        WCut        ... 1.0000e-14
Angular grids for H and He will be reduced by one unit
Partially contracted basis set               ... on
Rotationally invariant grid construction     ... off

Total number of grid points                  ...    13407
Total number of batches                      ...      223
Average number of points per batch           ...       60
Average number of grid points per atom       ...      583
UseSFitting                                  ... on

GRIDX 2
-------
General Integration Accuracy     IntAcc      ... 4.020
Radial Grid Type                 RadialGrid  ... OptM3 with GC (2021)
Angular Grid (max. ang.)         AngularGrid ... 2 (Lebedev-110)
Angular grid pruning method      GridPruning ... 4 (adaptive)
Weight generation scheme         WeightScheme... Becke
Basis function cutoff            BFCut       ... 1.0000e-11
Integration weight cutoff        WCut        ... 1.0000e-14
Angular grids for H and He will be reduced by one unit
Partially contracted basis set               ... on
Rotationally invariant grid construction     ... off

Total number of grid points                  ...    28758
Total number of batches                      ...      461
Average number of points per batch           ...       62
Average number of grid points per atom       ...     1250
UseSFitting                                  ... on

GRIDX 3
-------
General Integration Accuracy     IntAcc      ... 4.338
Radial Grid Type                 RadialGrid  ... OptM3 with GC (2021)
Angular Grid (max. ang.)         AngularGrid ... 3 (Lebedev-194)
Angular grid pruning method      GridPruning ... 4 (adaptive)
Weight generation scheme         WeightScheme... Becke
Basis function cutoff            BFCut       ... 1.0000e-11
Integration weight cutoff        WCut        ... 1.0000e-14
Angular grids for H and He will be reduced by one unit
Partially contracted basis set               ... on
Rotationally invariant grid construction     ... off

Total number of grid points                  ...    63503
Total number of batches                      ...     1005
Average number of points per batch           ...       63
Average number of grid points per atom       ...     2761
UseSFitting                                  ... on

Time for X-Grid setup             =   10.956 sec

 re-compute Schwartz prescreening matrix in partically contracted basis (1) ...done (   0.612 sec)
--------------
SCF ITERATIONS
--------------
ITER       Energy         Delta-E        Max-DP      RMS-DP      [F,P]     Damp
               ***  Starting incremental Fock matrix formation  ***
  0   -898.4032734927   0.000000000000 0.04765580  0.00054767  0.3081956 0.7000
  1   -898.5690510129  -0.165777520205 0.03437886  0.00043734  0.1871121 0.7000
                               ***Turning on DIIS***
  2   -898.6706247513  -0.101573738383 0.02434328  0.00027862  0.1092612 0.7000
  3   -899.9035941814  -1.232969430126 0.05826097  0.00055504  0.0823556 0.0000
  4   -898.8409300704   1.062664111076 0.02020418  0.00015330  0.0079487 0.0000
                      *** Initiating the SOSCF procedure ***
                           *** Shutting down DIIS ***
                      *** Re-Reading the Fockian *** 
                      *** Removing any level shift *** 
ITER      Energy       Delta-E        Grad      Rot      Max-DP    RMS-DP
  5   -898.89631052  -0.0553804512  0.001620  0.001620  0.008859  0.000082
               *** Restarting incremental Fock matrix formation ***
  6   -898.88764693   0.0086635946  0.001331  0.002137  0.004267  0.000048
  7   -898.88770647  -0.0000595469  0.000279  0.001307  0.004029  0.000042
  8   -898.88772276  -0.0000162910  0.000200  0.000187  0.000764  0.000010
  9   -898.88772511  -0.0000023454  0.000056  0.000142  0.000168  0.000003
 10   -898.88772543  -0.0000003218  0.000016  0.000089  0.000081  0.000001
 11   -898.88772548  -0.0000000526  0.000004  0.000008  0.000026  0.000000
                  ***Gradient check signals convergence***
              ***Rediagonalizing the Fockian in SOSCF/NRSCF***

               *****************************************************
               *                     SUCCESS                       *
               *           SCF CONVERGED AFTER  12 CYCLES          *
               *****************************************************

Old exchange energy                            =    -88.256017421 Eh
New exchange energy                            =    -88.256090394 Eh
Exchange energy change after final integration =     -0.000072972 Eh
Total energy after final integration           =   -898.887798450 Eh
Final COS-X integration done in                =   102.536 sec

----------------
TOTAL SCF ENERGY
----------------

Total Energy       :         -898.88779845 Eh          -24459.98052 eV

Components:
Nuclear Repulsion  :          682.25072078 Eh           18564.98594 eV
Electronic Energy  :        -1581.13851923 Eh          -43024.96646 eV
One Electron Energy:        -2587.47218664 Eh          -70408.69771 eV
Two Electron Energy:         1006.33366742 Eh           27383.73125 eV
Max COSX asymmetry :            0.00001239 Eh               0.00034 eV

Virial components:
Potential Energy   :        -1796.93618853 Eh          -48897.11957 eV
Kinetic Energy     :          898.04839008 Eh           24437.13905 eV
Virial Ratio       :            2.00093470


---------------
SCF CONVERGENCE
---------------

  Last Energy change         ...    7.2480e-09  Tolerance :   1.0000e-08
  Last MAX-Density change    ...    3.1086e-15  Tolerance :   1.0000e-07
  Last RMS-Density change    ...    1.5608e-17  Tolerance :   5.0000e-09
  Last Orbital Gradient      ...    1.4604e-06  Tolerance :   1.0000e-05
  Last Orbital Rotation      ...    1.9025e-06  Tolerance :   1.0000e-05

             **** THE GBW FILE WAS UPDATED (CCSD.gbw) ****
             **** DENSITY CCSD.scfp WAS UPDATED ****
             **** ENERGY FILE WAS UPDATED (CCSD.en.tmp) ****
             **** THE GBW FILE WAS UPDATED (CCSD.gbw) ****
             **** DENSITY CCSD.scfp WAS UPDATED ****
----------------
ORBITAL ENERGIES
----------------

  NO   OCC          E(Eh)            E(eV) 
   0   2.0000    -104.819563     -2852.2853 
   1   2.0000     -20.550648      -559.2116 
   2   2.0000     -15.555604      -423.2895 
   3   2.0000     -11.337738      -308.5155 
   4   2.0000     -11.298214      -307.4400 
   5   2.0000     -11.280192      -306.9496 
   6   2.0000     -11.268870      -306.6416 
   7   2.0000     -11.249224      -306.1070 
   8   2.0000     -11.243202      -305.9431 
   9   2.0000     -11.240553      -305.8710 
  10   2.0000     -11.232803      -305.6601 
  11   2.0000     -10.544352      -286.9264 
  12   2.0000      -8.011146      -217.9944 
  13   2.0000      -8.009395      -217.9467 
  14   2.0000      -8.009361      -217.9458 
  15   2.0000      -1.394851       -37.9558 
  16   2.0000      -1.241671       -33.7876 
  17   2.0000      -1.129538       -30.7363 
  18   2.0000      -1.077604       -29.3231 
  19   2.0000      -1.057935       -28.7879 
  20   2.0000      -0.982000       -26.7216 
  21   2.0000      -0.941652       -25.6237 
  22   2.0000      -0.914704       -24.8903 
  23   2.0000      -0.808194       -21.9921 
  24   2.0000      -0.745887       -20.2966 
  25   2.0000      -0.732039       -19.9198 
  26   2.0000      -0.702660       -19.1204 
  27   2.0000      -0.662246       -18.0206 
  28   2.0000      -0.652114       -17.7449 
  29   2.0000      -0.630877       -17.1670 
  30   2.0000      -0.622518       -16.9396 
  31   2.0000      -0.597155       -16.2494 
  32   2.0000      -0.591683       -16.1005 
  33   2.0000      -0.573709       -15.6114 
  34   2.0000      -0.552554       -15.0358 
  35   2.0000      -0.549699       -14.9581 
  36   2.0000      -0.542533       -14.7631 
  37   2.0000      -0.519340       -14.1320 
  38   2.0000      -0.514041       -13.9878 
  39   2.0000      -0.503204       -13.6929 
  40   2.0000      -0.486891       -13.2490 
  41   2.0000      -0.442001       -12.0275 
  42   2.0000      -0.431745       -11.7484 
  43   2.0000      -0.412004       -11.2112 
  44   2.0000      -0.393342       -10.7034 
  45   2.0000      -0.345125        -9.3913 
  46   0.0000       0.122809         3.3418 
  47   0.0000       0.136183         3.7057 
  48   0.0000       0.139324         3.7912 
  49   0.0000       0.146474         3.9858 
  50   0.0000       0.156988         4.2719 
  51   0.0000       0.165178         4.4947 
  52   0.0000       0.181880         4.9492 
  53   0.0000       0.190641         5.1876 
  54   0.0000       0.201997         5.4966 
  55   0.0000       0.207202         5.6382 
  56   0.0000       0.214203         5.8288 
  57   0.0000       0.218064         5.9338 
  58   0.0000       0.224502         6.1090 
  59   0.0000       0.234722         6.3871 
  60   0.0000       0.261021         7.1027 
  61   0.0000       0.278653         7.5825 
  62   0.0000       0.298803         8.1309 
  63   0.0000       0.309364         8.4182 
  64   0.0000       0.318128         8.6567 
  65   0.0000       0.330689         8.9985 
  66   0.0000       0.345428         9.3996 
  67   0.0000       0.354044         9.6340 
  68   0.0000       0.363686         9.8964 
  69   0.0000       0.376365        10.2414 
  70   0.0000       0.385628        10.4935 
  71   0.0000       0.428535        11.6610 
  72   0.0000       0.430028        11.7017 
  73   0.0000       0.445715        12.1285 
  74   0.0000       0.446565        12.1517 
  75   0.0000       0.455322        12.3899 
  76   0.0000       0.470205        12.7949 
  77   0.0000       0.485241        13.2041 
  78   0.0000       0.489311        13.3148 
  79   0.0000       0.493758        13.4358 
  80   0.0000       0.509181        13.8555 
  81   0.0000       0.527685        14.3590 
  82   0.0000       0.536392        14.5960 
  83   0.0000       0.540679        14.7126 
  84   0.0000       0.546437        14.8693 
  85   0.0000       0.555937        15.1278 
  86   0.0000       0.563541        15.3347 
  87   0.0000       0.573078        15.5942 
  88   0.0000       0.578681        15.7467 
  89   0.0000       0.583495        15.8777 
  90   0.0000       0.590047        16.0560 
  91   0.0000       0.597261        16.2523 
  92   0.0000       0.603095        16.4111 
  93   0.0000       0.613491        16.6939 
  94   0.0000       0.619873        16.8676 
  95   0.0000       0.624623        16.9969 
  96   0.0000       0.629475        17.1289 
  97   0.0000       0.634935        17.2775 
  98   0.0000       0.642566        17.4851 
  99   0.0000       0.650651        17.7051 
 100   0.0000       0.656092        17.8532 
 101   0.0000       0.661125        17.9901 
 102   0.0000       0.672029        18.2868 
 103   0.0000       0.675608        18.3842 
 104   0.0000       0.694263        18.8919 
 105   0.0000       0.696982        18.9658 
 106   0.0000       0.703189        19.1347 
 107   0.0000       0.707851        19.2616 
 108   0.0000       0.727496        19.7962 
 109   0.0000       0.728164        19.8144 
 110   0.0000       0.741649        20.1813 
 111   0.0000       0.747390        20.3375 
 112   0.0000       0.758283        20.6339 
 113   0.0000       0.763845        20.7853 
 114   0.0000       0.780331        21.2339 
 115   0.0000       0.802471        21.8363 
 116   0.0000       0.809842        22.0369 
 117   0.0000       0.829915        22.5831 
 118   0.0000       0.843032        22.9401 
 119   0.0000       0.863159        23.4877 
 120   0.0000       0.871227        23.7073 
 121   0.0000       0.886569        24.1248 
 122   0.0000       0.914258        24.8782 
 123   0.0000       0.921612        25.0784 
 124   0.0000       0.929342        25.2887 
 125   0.0000       0.947445        25.7813 
 126   0.0000       0.956869        26.0377 
 127   0.0000       0.976065        26.5601 
 128   0.0000       0.986221        26.8364 
 129   0.0000       1.000093        27.2139 
 130   0.0000       1.004718        27.3398 
 131   0.0000       1.019339        27.7376 
 132   0.0000       1.022303        27.8183 
 133   0.0000       1.031916        28.0799 
 134   0.0000       1.048190        28.5227 
 135   0.0000       1.072834        29.1933 
 136   0.0000       1.081198        29.4209 
 137   0.0000       1.097677        29.8693 
 138   0.0000       1.123752        30.5788 
 139   0.0000       1.130575        30.7645 
 140   0.0000       1.145321        31.1658 
 141   0.0000       1.150770        31.3141 
 142   0.0000       1.157901        31.5081 
 143   0.0000       1.175455        31.9858 
 144   0.0000       1.185492        32.2589 
 145   0.0000       1.195248        32.5244 
 146   0.0000       1.208066        32.8732 
 147   0.0000       1.214725        33.0543 
 148   0.0000       1.235291        33.6140 
 149   0.0000       1.238669        33.7059 
 150   0.0000       1.243606        33.8402 
 151   0.0000       1.251868        34.0650 
 152   0.0000       1.271386        34.5962 
 153   0.0000       1.280045        34.8318 
 154   0.0000       1.289643        35.0930 
 155   0.0000       1.305398        35.5217 
 156   0.0000       1.313893        35.7529 
 157   0.0000       1.321735        35.9662 
 158   0.0000       1.342108        36.5206 
 159   0.0000       1.350652        36.7531 
 160   0.0000       1.368461        37.2377 
 161   0.0000       1.374194        37.3937 
 162   0.0000       1.388039        37.7705 
 163   0.0000       1.397112        38.0173 
 164   0.0000       1.400460        38.1085 
 165   0.0000       1.411681        38.4138 
 166   0.0000       1.414426        38.4885 
 167   0.0000       1.427439        38.8426 
 168   0.0000       1.439292        39.1651 
 169   0.0000       1.464948        39.8633 
 170   0.0000       1.471801        40.0497 
 171   0.0000       1.474400        40.1205 
 172   0.0000       1.478697        40.2374 
 173   0.0000       1.496471        40.7210 
 174   0.0000       1.510929        41.1145 
 175   0.0000       1.516780        41.2737 
 176   0.0000       1.525285        41.5051 
 177   0.0000       1.536505        41.8104 
 178   0.0000       1.552148        42.2361 
 179   0.0000       1.555941        42.3393 
 180   0.0000       1.565262        42.5930 
 181   0.0000       1.572528        42.7907 
 182   0.0000       1.576934        42.9106 
 183   0.0000       1.591073        43.2953 
 184   0.0000       1.601051        43.5668 
 185   0.0000       1.619723        44.0749 
 186   0.0000       1.630077        44.3566 
 187   0.0000       1.638364        44.5822 
 188   0.0000       1.642714        44.7005 
 189   0.0000       1.661495        45.2116 
 190   0.0000       1.681083        45.7446 
 191   0.0000       1.701864        46.3101 
 192   0.0000       1.709689        46.5230 
 193   0.0000       1.719260        46.7835 
 194   0.0000       1.728569        47.0368 
 195   0.0000       1.736500        47.2526 
 196   0.0000       1.784792        48.5667 
 197   0.0000       1.811363        49.2897 
 198   0.0000       1.821255        49.5589 
 199   0.0000       1.831415        49.8353 
 200   0.0000       1.853499        50.4363 
 201   0.0000       1.873721        50.9865 
 202   0.0000       1.906962        51.8911 
 203   0.0000       1.927657        52.4542 
 204   0.0000       1.979327        53.8602 
 205   0.0000       1.982060        53.9346 
 206   0.0000       1.995860        54.3101 
 207   0.0000       2.044110        55.6231 
 208   0.0000       2.081972        56.6533 
 209   0.0000       2.112845        57.4934 
 210   0.0000       2.151545        58.5465 
 211   0.0000       2.160564        58.7919 
 212   0.0000       2.210490        60.1505 
 213   0.0000       2.230619        60.6982 
 214   0.0000       2.261382        61.5353 
 215   0.0000       2.276166        61.9376 
 216   0.0000       2.289562        62.3021 
 217   0.0000       2.294966        62.4492 
 218   0.0000       2.311896        62.9099 
 219   0.0000       2.355477        64.0958 
 220   0.0000       2.363996        64.3276 
 221   0.0000       2.370715        64.5104 
 222   0.0000       2.404126        65.4196 
 223   0.0000       2.429393        66.1071 
 224   0.0000       2.430008        66.1239 
 225   0.0000       2.434586        66.2485 
 226   0.0000       2.444769        66.5256 
 227   0.0000       2.506294        68.1997 
 228   0.0000       2.547016        69.3078 
 229   0.0000       2.562570        69.7311 
 230   0.0000       2.567258        69.8586 
 231   0.0000       2.571063        69.9622 
 232   0.0000       2.593581        70.5749 
 233   0.0000       2.610239        71.0282 
 234   0.0000       2.624209        71.4084 
 235   0.0000       2.636169        71.7338 
 236   0.0000       2.645619        71.9910 
 237   0.0000       2.652629        72.1817 
 238   0.0000       2.678950        72.8979 
 239   0.0000       2.685975        73.0891 
 240   0.0000       2.691762        73.2466 
 241   0.0000       2.704272        73.5870 
 242   0.0000       2.710602        73.7592 
 243   0.0000       2.727550        74.2204 
 244   0.0000       2.750036        74.8323 
 245   0.0000       2.776159        75.5431 
 246   0.0000       2.778552        75.6082 
 247   0.0000       2.790620        75.9366 
 248   0.0000       2.820446        76.7482 
 249   0.0000       2.835223        77.1503 
 250   0.0000       2.861639        77.8692 
 251   0.0000       2.878484        78.3275 
 252   0.0000       2.897153        78.8355 
 253   0.0000       2.912690        79.2583 
 254   0.0000       2.919483        79.4432 
 255   0.0000       2.931876        79.7804 
 256   0.0000       2.945822        80.1599 
 257   0.0000       2.963014        80.6277 
 258   0.0000       2.977950        81.0342 
 259   0.0000       3.000429        81.6458 
 260   0.0000       3.004462        81.7556 
 261   0.0000       3.012683        81.9793 
 262   0.0000       3.024831        82.3098 
 263   0.0000       3.038971        82.6946 
 264   0.0000       3.048628        82.9574 
 265   0.0000       3.061344        83.3034 
 266   0.0000       3.067569        83.4728 
 267   0.0000       3.088811        84.0508 
 268   0.0000       3.099284        84.3358 
 269   0.0000       3.104105        84.4670 
 270   0.0000       3.109051        84.6016 
 271   0.0000       3.134043        85.2817 
 272   0.0000       3.139597        85.4328 
 273   0.0000       3.159782        85.9821 
 274   0.0000       3.173201        86.3472 
 275   0.0000       3.184574        86.6567 
 276   0.0000       3.198209        87.0277 
 277   0.0000       3.212861        87.4264 
 278   0.0000       3.217713        87.5584 
 279   0.0000       3.239240        88.1442 
 280   0.0000       3.250629        88.4541 
 281   0.0000       3.252040        88.4925 
 282   0.0000       3.274074        89.0921 
 283   0.0000       3.285736        89.4094 
 284   0.0000       3.300813        89.8197 
 285   0.0000       3.306859        89.9842 
 286   0.0000       3.309646        90.0600 
 287   0.0000       3.315537        90.2203 
 288   0.0000       3.336094        90.7797 
 289   0.0000       3.340514        90.9000 
 290   0.0000       3.346465        91.0619 
 291   0.0000       3.356318        91.3300 
 292   0.0000       3.357524        91.3629 
 293   0.0000       3.383992        92.0831 
 294   0.0000       3.395255        92.3896 
 295   0.0000       3.398737        92.4843 
 296   0.0000       3.401386        92.5564 
 297   0.0000       3.416338        92.9633 
 298   0.0000       3.428810        93.3027 
 299   0.0000       3.436817        93.5205 
 300   0.0000       3.444486        93.7292 
 301   0.0000       3.456689        94.0613 
 302   0.0000       3.462110        94.2088 
 303   0.0000       3.482928        94.7753 
 304   0.0000       3.493082        95.0516 
 305   0.0000       3.504004        95.3488 
 306   0.0000       3.506111        95.4061 
 307   0.0000       3.514009        95.6210 
 308   0.0000       3.514900        95.6453 
 309   0.0000       3.538457        96.2863 
 310   0.0000       3.551916        96.6526 
 311   0.0000       3.565467        97.0213 
 312   0.0000       3.580651        97.4345 
 313   0.0000       3.583547        97.5133 
 314   0.0000       3.607099        98.1541 
 315   0.0000       3.626286        98.6763 
 316   0.0000       3.631760        98.8252 
 317   0.0000       3.638110        98.9980 
 318   0.0000       3.645953        99.2114 
 319   0.0000       3.658960        99.5654 
 320   0.0000       3.689385       100.3933 
 321   0.0000       3.706659       100.8633 
 322   0.0000       3.711812       101.0035 
 323   0.0000       3.714433       101.0749 
 324   0.0000       3.732207       101.5585 
 325   0.0000       3.744321       101.8882 
 326   0.0000       3.751210       102.0756 
 327   0.0000       3.759902       102.3121 
 328   0.0000       3.772052       102.6427 
 329   0.0000       3.780588       102.8750 
 330   0.0000       3.793488       103.2261 
 331   0.0000       3.815609       103.8280 
 332   0.0000       3.823536       104.0437 
 333   0.0000       3.833002       104.3013 
 334   0.0000       3.844211       104.6063 
 335   0.0000       3.851308       104.7994 
 336   0.0000       3.857110       104.9573 
 337   0.0000       3.877089       105.5010 
 338   0.0000       3.885380       105.7266 
 339   0.0000       3.897293       106.0507 
 340   0.0000       3.916678       106.5782 
 341   0.0000       3.927864       106.8826 
 342   0.0000       3.935657       107.0947 
 343   0.0000       3.963242       107.8453 
 344   0.0000       3.972407       108.0947 
 345   0.0000       3.992279       108.6354 
 346   0.0000       3.994317       108.6909 
 347   0.0000       4.016126       109.2843 
 348   0.0000       4.044531       110.0573 
 349   0.0000       4.051513       110.2473 
 350   0.0000       4.058304       110.4321 
 351   0.0000       4.076877       110.9375 
 352   0.0000       4.081030       111.0505 
 353   0.0000       4.093128       111.3797 
 354   0.0000       4.105903       111.7273 
 355   0.0000       4.120859       112.1343 
 356   0.0000       4.134185       112.4969 
 357   0.0000       4.143326       112.7456 
 358   0.0000       4.145904       112.8158 
 359   0.0000       4.158135       113.1486 
 360   0.0000       4.167131       113.3934 
 361   0.0000       4.182547       113.8129 
 362   0.0000       4.196981       114.2057 
 363   0.0000       4.204116       114.3998 
 364   0.0000       4.211231       114.5934 
 365   0.0000       4.217518       114.7645 
 366   0.0000       4.237636       115.3119 
 367   0.0000       4.242156       115.4349 
 368   0.0000       4.258375       115.8763 
 369   0.0000       4.265411       116.0677 
 370   0.0000       4.286555       116.6431 
 371   0.0000       4.298228       116.9607 
 372   0.0000       4.307026       117.2001 
 373   0.0000       4.316063       117.4460 
 374   0.0000       4.321656       117.5982 
 375   0.0000       4.335682       117.9799 
 376   0.0000       4.340617       118.1142 
 377   0.0000       4.362475       118.7090 
 378   0.0000       4.369579       118.9023 
 379   0.0000       4.383840       119.2904 
 380   0.0000       4.396542       119.6360 
 381   0.0000       4.410028       120.0030 
 382   0.0000       4.419435       120.2589 
 383   0.0000       4.425733       120.4303 
 384   0.0000       4.438101       120.7669 
 385   0.0000       4.451925       121.1430 
 386   0.0000       4.470160       121.6392 
 387   0.0000       4.478596       121.8688 
 388   0.0000       4.494183       122.2929 
 389   0.0000       4.508197       122.6743 
 390   0.0000       4.525471       123.1443 
 391   0.0000       4.544301       123.6567 
 392   0.0000       4.545962       123.7019 
 393   0.0000       4.557788       124.0237 
 394   0.0000       4.573081       124.4399 
 395   0.0000       4.586737       124.8115 
 396   0.0000       4.615363       125.5904 
 397   0.0000       4.629343       125.9708 
 398   0.0000       4.637212       126.1850 
 399   0.0000       4.662814       126.8816 
 400   0.0000       4.671756       127.1250 
 401   0.0000       4.681732       127.3964 
 402   0.0000       4.713634       128.2645 
 403   0.0000       4.721225       128.4711 
 404   0.0000       4.731893       128.7614 
 405   0.0000       4.750301       129.2623 
 406   0.0000       4.767353       129.7263 
 407   0.0000       4.793048       130.4255 
 408   0.0000       4.815614       131.0395 
 409   0.0000       4.856794       132.1601 
 410   0.0000       4.863496       132.3425 
 411   0.0000       4.884520       132.9145 
 412   0.0000       4.906033       133.4999 
 413   0.0000       4.945153       134.5644 
 414   0.0000       4.959932       134.9666 
 415   0.0000       4.980567       135.5281 
 416   0.0000       4.992714       135.8587 
 417   0.0000       5.011926       136.3814 
 418   0.0000       5.047170       137.3405 
 419   0.0000       5.053016       137.4996 
 420   0.0000       5.073499       138.0569 
 421   0.0000       5.082349       138.2978 
 422   0.0000       5.103949       138.8855 
 423   0.0000       5.117257       139.2476 
 424   0.0000       5.137799       139.8066 
 425   0.0000       5.167297       140.6093 
 426   0.0000       5.171773       140.7311 
 427   0.0000       5.199763       141.4927 
 428   0.0000       5.215910       141.9321 
 429   0.0000       5.235404       142.4626 
 430   0.0000       5.244739       142.7166 
 431   0.0000       5.280575       143.6918 
 432   0.0000       5.294220       144.0630 
 433   0.0000       5.323116       144.8494 
 434   0.0000       5.329489       145.0228 
 435   0.0000       5.354013       145.6901 
 436   0.0000       5.365758       146.0097 
 437   0.0000       5.368644       146.0882 
 438   0.0000       5.392037       146.7248 
 439   0.0000       5.410652       147.2313 
 440   0.0000       5.454388       148.4214 
 441   0.0000       5.461364       148.6113 
 442   0.0000       5.475632       148.9995 
 443   0.0000       5.487330       149.3178 
 444   0.0000       5.521054       150.2355 
 445   0.0000       5.526427       150.3817 
 446   0.0000       5.536212       150.6480 
 447   0.0000       5.554138       151.1358 
 448   0.0000       5.581884       151.8908 
 449   0.0000       5.595980       152.2744 
 450   0.0000       5.613378       152.7478 
 451   0.0000       5.619107       152.9037 
 452   0.0000       5.630321       153.2088 
 453   0.0000       5.639699       153.4640 
 454   0.0000       5.659622       154.0061 
 455   0.0000       5.665165       154.1570 
 456   0.0000       5.672969       154.3693 
 457   0.0000       5.690447       154.8449 
 458   0.0000       5.702405       155.1703 
 459   0.0000       5.753666       156.5652 
 460   0.0000       5.765981       156.9003 
 461   0.0000       5.800286       157.8338 
 462   0.0000       5.834988       158.7781 
 463   0.0000       5.856771       159.3708 
 464   0.0000       5.896837       160.4611 
 465   0.0000       5.981487       162.7645 
 466   0.0000       6.003520       163.3641 
 467   0.0000       6.035762       164.2414 
 468   0.0000       6.083399       165.5377 
 469   0.0000       6.091302       165.7528 
 470   0.0000       6.144080       167.1889 
 471   0.0000       6.165993       167.7852 
 472   0.0000       6.180386       168.1768 
 473   0.0000       6.218938       169.2259 
 474   0.0000       6.231156       169.5584 
 475   0.0000       6.251149       170.1024 
 476   0.0000       6.278536       170.8477 
 477   0.0000       6.321257       172.0101 
 478   0.0000       6.345258       172.6632 
 479   0.0000       6.379417       173.5928 
 480   0.0000       6.435072       175.1072 
 481   0.0000       6.455063       175.6512 
 482   0.0000       6.551633       178.2790 
 483   0.0000       6.749937       183.6751 
 484   0.0000       6.806672       185.2190 
 485   0.0000       6.936424       188.7497 
 486   0.0000       6.997607       190.4146 
 487   0.0000       7.062971       192.1932 
 488   0.0000       7.146504       194.4663 
 489   0.0000       7.377853       200.7616 
 490   0.0000       7.544203       205.2882 
 491   0.0000       7.580736       206.2823 
 492   0.0000       9.608206       261.4526 
 493   0.0000      10.019036       272.6318 
 494   0.0000      12.072095       328.4984 
 495   0.0000      12.589128       342.5676 
 496   0.0000      12.938497       352.0744 
 497   0.0000      13.557938       368.9302 
 498   0.0000      13.636334       371.0635 
 499   0.0000      14.160307       385.3215 
 500   0.0000      14.280261       388.5857 
 501   0.0000      14.601124       397.3168 

                    ********************************
                    * MULLIKEN POPULATION ANALYSIS *
                    ********************************

-----------------------
MULLIKEN ATOMIC CHARGES
-----------------------
   0 C :   -0.285130
   1 C :    0.023541
   2 C :   -0.056539
   3 C :   -0.267494
   4 H :    0.106397
   5 H :    0.098277
   6 H :    0.098467
   7 C :    0.061553
   8 C :   -0.194011
   9 C :    0.277604
  10 H :    0.105645
  11 H :    0.126091
  12 C :   -0.093000
  13 N :   -0.338157
  14 H :    0.125225
  15 H :    0.087196
  16 H :    0.079192
  17 H :    0.146372
  18 O :   -0.348676
  19 Cl:   -0.186531
  20 H :    0.137550
  21 H :    0.128550
  22 H :    0.167878
Sum of atomic charges:    0.0000000

--------------------------------
MULLIKEN REDUCED ORBITAL CHARGES
--------------------------------
  0 C s       :     3.300476  s :     3.300476
      pz      :     0.981977  p :     2.876737
      px      :     0.895420
      py      :     0.999341
      dz2     :     0.022371  d :     0.098371
      dxz     :     0.013988
      dyz     :     0.018718
      dx2y2   :     0.023201
      dxy     :     0.020093
      f0      :     0.001311  f :     0.009546
      f+1     :     0.001309
      f-1     :     0.001009
      f+2     :     0.001637
      f-2     :     0.001587
      f+3     :     0.001294
      f-3     :     0.001399
  1 C s       :     3.158155  s :     3.158155
      pz      :     0.908921  p :     2.683566
      px      :     0.875803
      py      :     0.898842
      dz2     :     0.034100  d :     0.123588
      dxz     :     0.023464
      dyz     :     0.013911
      dx2y2   :     0.023186
      dxy     :     0.028927
      f0      :     0.001390  f :     0.011150
      f+1     :     0.001782
      f-1     :     0.001028
      f+2     :     0.001925
      f-2     :     0.001758
      f+3     :     0.001503
      f-3     :     0.001764
  2 C s       :     3.223240  s :     3.223240
      pz      :     0.970198  p :     2.693385
      px      :     0.772329
      py      :     0.950858
      dz2     :     0.036930  d :     0.130506
      dxz     :     0.026153
      dyz     :     0.007761
      dx2y2   :     0.030811
      dxy     :     0.028852
      f0      :     0.001396  f :     0.009408
      f+1     :     0.001768
      f-1     :     0.000796
      f+2     :     0.001382
      f-2     :     0.001133
      f+3     :     0.001551
      f-3     :     0.001382
  3 C s       :     3.275954  s :     3.275954
      pz      :     1.006830  p :     2.908314
      px      :     0.888215
      py      :     1.013269
      dz2     :     0.019276  d :     0.078458
      dxz     :     0.012193
      dyz     :     0.010962
      dx2y2   :     0.012245
      dxy     :     0.023783
      f0      :     0.000858  f :     0.004768
      f+1     :     0.000577
      f-1     :     0.000664
      f+2     :     0.000454
      f-2     :     0.000322
      f+3     :     0.001218
      f-3     :     0.000676
  4 H s       :     0.863620  s :     0.863620
      pz      :     0.008385  p :     0.027754
      px      :     0.009420
      py      :     0.009949
      dz2     :     0.000488  d :     0.002229
      dxz     :     0.000275
      dyz     :     0.000458
      dx2y2   :     0.000469
      dxy     :     0.000539
  5 H s       :     0.872431  s :     0.872431
      pz      :     0.010893  p :     0.027085
      px      :     0.008235
      py      :     0.007958
      dz2     :     0.000744  d :     0.002206
      dxz     :     0.000733
      dyz     :     0.000574
      dx2y2   :     0.000068
      dxy     :     0.000086
  6 H s       :     0.872456  s :     0.872456
      pz      :     0.007875  p :     0.026863
      px      :     0.009947
      py      :     0.009041
      dz2     :     0.000256  d :     0.002214
      dxz     :     0.000166
      dyz     :     0.000425
      dx2y2   :     0.000737
      dxy     :     0.000630
  7 C s       :     3.145220  s :     3.145220
      pz      :     0.884841  p :     2.607232
      px      :     0.864142
      py      :     0.858249
      dz2     :     0.042637  d :     0.174629
      dxz     :     0.024536
      dyz     :     0.041815
      dx2y2   :     0.029247
      dxy     :     0.036392
      f0      :     0.001315  f :     0.011366
      f+1     :     0.001274
      f-1     :     0.002350
      f+2     :     0.001269
      f-2     :     0.001593
      f+3     :     0.001718
      f-3     :     0.001847
  8 C s       :     3.191049  s :     3.191049
      pz      :     1.051887  p :     2.902004
      px      :     0.875639
      py      :     0.974478
      dz2     :     0.020093  d :     0.094498
      dxz     :     0.006432
      dyz     :     0.029255
      dx2y2   :     0.021712
      dxy     :     0.017006
      f0      :     0.000493  f :     0.006461
      f+1     :     0.000913
      f-1     :     0.001484
      f+2     :     0.000296
      f-2     :     0.000681
      f+3     :     0.001084
      f-3     :     0.001509
  9 C s       :     3.176222  s :     3.176222
      pz      :     0.813711  p :     2.301487
      px      :     0.814677
      py      :     0.673098
      dz2     :     0.068897  d :     0.226275
      dxz     :     0.056000
      dyz     :     0.046956
      dx2y2   :     0.027566
      dxy     :     0.026857
      f0      :     0.004897  f :     0.018411
      f+1     :     0.003673
      f-1     :     0.002620
      f+2     :     0.002652
      f-2     :     0.002462
      f+3     :     0.001130
      f-3     :     0.000977
 10 H s       :     0.862293  s :     0.862293
      pz      :     0.010188  p :     0.029574
      px      :     0.009261
      py      :     0.010125
      dz2     :     0.000615  d :     0.002488
      dxz     :     0.000589
      dyz     :     0.000692
      dx2y2   :     0.000214
      dxy     :     0.000377
 11 H s       :     0.841568  s :     0.841568
      pz      :     0.009342  p :     0.029835
      px      :     0.008504
      py      :     0.011989
      dz2     :     0.000581  d :     0.002506
      dxz     :     0.000517
      dyz     :     0.000649
      dx2y2   :     0.000288
      dxy     :     0.000470
 12 C s       :     3.198508  s :     3.198508
      pz      :     0.992642  p :     2.766438
      px      :     0.802705
      py      :     0.971091
      dz2     :     0.015870  d :     0.121192
      dxz     :     0.029425
      dyz     :     0.017425
      dx2y2   :     0.029536
      dxy     :     0.028936
      f0      :     0.001448  f :     0.006862
      f+1     :     0.001409
      f-1     :     0.000586
      f+2     :     0.000317
      f-2     :     0.000833
      f+3     :     0.000809
      f-3     :     0.001461
 13 N s       :     3.463618  s :     3.463618
      pz      :     1.336437  p :     3.815018
      px      :     1.323859
      py      :     1.154723
      dz2     :     0.011492  d :     0.055963
      dxz     :     0.008308
      dyz     :     0.012208
      dx2y2   :     0.013834
      dxy     :     0.010122
      f0      :     0.000504  f :     0.003557
      f+1     :     0.000343
      f-1     :     0.000594
      f+2     :     0.000757
      f-2     :     0.000492
      f+3     :     0.000565
      f-3     :     0.000303
 14 H s       :     0.843377  s :     0.843377
      pz      :     0.012773  p :     0.028802
      px      :     0.008583
      py      :     0.007445
      dz2     :     0.000853  d :     0.002596
      dxz     :     0.000621
      dyz     :     0.000657
      dx2y2   :     0.000185
      dxy     :     0.000280
 15 H s       :     0.883514  s :     0.883514
      pz      :     0.006799  p :     0.026945
      px      :     0.007951
      py      :     0.012196
      dz2     :     0.000310  d :     0.002345
      dxz     :     0.000091
      dyz     :     0.000534
      dx2y2   :     0.000675
      dxy     :     0.000734
 16 H s       :     0.892995  s :     0.892995
      pz      :     0.012164  p :     0.025391
      px      :     0.005514
      py      :     0.007714
      dz2     :     0.000919  d :     0.002421
      dxz     :     0.000749
      dyz     :     0.000718
      dx2y2   :     0.000022
      dxy     :     0.000013
 17 H s       :     0.786988  s :     0.786988
      pz      :     0.017647  p :     0.061407
      px      :     0.023693
      py      :     0.020066
      dz2     :     0.000589  d :     0.005233
      dxz     :     0.000326
      dyz     :     0.001507
      dx2y2   :     0.001314
      dxy     :     0.001496
 18 O s       :     3.757046  s :     3.757046
      pz      :     1.507303  p :     4.552266
      px      :     1.646949
      py      :     1.398013
      dz2     :     0.009484  d :     0.036904
      dxz     :     0.010723
      dyz     :     0.010272
      dx2y2   :     0.003561
      dxy     :     0.002865
      f0      :     0.000465  f :     0.002461
      f+1     :     0.000712
      f-1     :     0.000419
      f+2     :     0.000424
      f-2     :     0.000396
      f+3     :     0.000020
      f-3     :     0.000025
 19 Cls       :     5.931838  s :     5.931838
      pz      :     3.968174  p :    11.197890
      px      :     3.433189
      py      :     3.796526
      dz2     :     0.009594  d :     0.051976
      dxz     :     0.005761
      dyz     :     0.001891
      dx2y2   :     0.013026
      dxy     :     0.021704
      f0      :     0.000397  f :     0.004827
      f+1     :     0.000867
      f-1     :     0.000321
      f+2     :     0.000179
      f-2     :     0.000424
      f+3     :     0.000868
      f-3     :     0.001771
 20 H s       :     0.826910  s :     0.826910
      pz      :     0.011909  p :     0.033043
      px      :     0.014236
      py      :     0.006898
      dz2     :     0.000579  d :     0.002498
      dxz     :     0.000555
      dyz     :     0.000376
      dx2y2   :     0.000540
      dxy     :     0.000447
 21 H s       :     0.836605  s :     0.836605
      pz      :     0.012449  p :     0.032371
      px      :     0.007338
      py      :     0.012584
      dz2     :     0.000510  d :     0.002474
      dxz     :     0.000174
      dyz     :     0.000764
      dx2y2   :     0.000508
      dxy     :     0.000518
 22 H s       :     0.808691  s :     0.808691
      pz      :     0.004930  p :     0.021350
      px      :     0.008581
      py      :     0.007838
      dz2     :     0.000526  d :     0.002081
      dxz     :     0.000318
      dyz     :     0.000383
      dx2y2   :     0.000313
      dxy     :     0.000542


                     *******************************
                     * LOEWDIN POPULATION ANALYSIS *
                     *******************************

----------------------
LOEWDIN ATOMIC CHARGES
----------------------
   0 C :    0.030512
   1 C :   -0.050650
   2 C :    0.000126
   3 C :    0.105589
   4 H :   -0.014885
   5 H :   -0.016205
   6 H :   -0.016460
   7 C :   -0.079019
   8 C :    0.056204
   9 C :   -0.267410
  10 H :   -0.018123
  11 H :   -0.010218
  12 C :   -0.137034
  13 N :    0.320788
  14 H :   -0.019226
  15 H :   -0.027696
  16 H :   -0.027894
  17 H :   -0.111161
  18 O :    0.159307
  19 Cl:    0.210102
  20 H :   -0.029295
  21 H :   -0.025572
  22 H :   -0.031781

-------------------------------
LOEWDIN REDUCED ORBITAL CHARGES
-------------------------------
  0 C s       :     2.708777  s :     2.708777
      pz      :     0.949911  p :     2.816761
      px      :     0.939898
      py      :     0.926951
      dz2     :     0.065977  d :     0.401110
      dxz     :     0.085512
      dyz     :     0.074650
      dx2y2   :     0.089157
      dxy     :     0.085814
      f0      :     0.005545  f :     0.042840
      f+1     :     0.005468
      f-1     :     0.004561
      f+2     :     0.007929
      f-2     :     0.006097
      f+3     :     0.007006
      f-3     :     0.006234
  1 C s       :     2.705971  s :     2.705971
      pz      :     0.924209  p :     2.762127
      px      :     0.947918
      py      :     0.890000
      dz2     :     0.109934  d :     0.527932
      dxz     :     0.122273
      dyz     :     0.066448
      dx2y2   :     0.110445
      dxy     :     0.118832
      f0      :     0.005750  f :     0.054620
      f+1     :     0.008793
      f-1     :     0.005673
      f+2     :     0.010299
      f-2     :     0.006754
      f+3     :     0.007147
      f-3     :     0.010203
  2 C s       :     2.669401  s :     2.669401
      pz      :     0.950323  p :     2.757819
      px      :     0.843728
      py      :     0.963768
      dz2     :     0.156781  d :     0.513179
      dxz     :     0.091909
      dyz     :     0.041548
      dx2y2   :     0.114292
      dxy     :     0.108650
      f0      :     0.005602  f :     0.059474
      f+1     :     0.011447
      f-1     :     0.005116
      f+2     :     0.010503
      f-2     :     0.008894
      f+3     :     0.008699
      f-3     :     0.009213
  3 C s       :     2.660026  s :     2.660026
      pz      :     0.975717  p :     2.891977
      px      :     0.937799
      py      :     0.978462
      dz2     :     0.076406  d :     0.312677
      dxz     :     0.050345
      dyz     :     0.039564
      dx2y2   :     0.053370
      dxy     :     0.092992
      f0      :     0.003810  f :     0.029731
      f+1     :     0.004536
      f-1     :     0.002827
      f+2     :     0.004545
      f-2     :     0.003913
      f+3     :     0.005952
      f-3     :     0.004147
  4 H s       :     0.841492  s :     0.841492
      pz      :     0.048646  p :     0.146281
      px      :     0.041885
      py      :     0.055751
      dz2     :     0.006396  d :     0.027111
      dxz     :     0.003691
      dyz     :     0.005539
      dx2y2   :     0.005959
      dxy     :     0.005525
  5 H s       :     0.841163  s :     0.841163
      pz      :     0.069665  p :     0.148238
      px      :     0.036950
      py      :     0.041622
      dz2     :     0.008863  d :     0.026804
      dxz     :     0.007908
      dyz     :     0.008427
      dx2y2   :     0.000833
      dxy     :     0.000773
  6 H s       :     0.841515  s :     0.841515
      pz      :     0.039547  p :     0.148149
      px      :     0.047161
      py      :     0.061441
      dz2     :     0.002503  d :     0.026797
      dxz     :     0.002428
      dyz     :     0.006476
      dx2y2   :     0.008361
      dxy     :     0.007029
  7 C s       :     2.667985  s :     2.667985
      pz      :     0.906253  p :     2.723903
      px      :     0.929991
      py      :     0.887659
      dz2     :     0.142689  d :     0.616564
      dxz     :     0.083915
      dyz     :     0.134853
      dx2y2   :     0.115324
      dxy     :     0.139782
      f0      :     0.009486  f :     0.070567
      f+1     :     0.008100
      f-1     :     0.011378
      f+2     :     0.010170
      f-2     :     0.011309
      f+3     :     0.010567
      f-3     :     0.009556
  8 C s       :     2.673301  s :     2.673301
      pz      :     0.974939  p :     2.848042
      px      :     0.923226
      py      :     0.949877
      dz2     :     0.066195  d :     0.384859
      dxz     :     0.041864
      dyz     :     0.105885
      dx2y2   :     0.086450
      dxy     :     0.084466
      f0      :     0.003316  f :     0.037593
      f+1     :     0.005889
[...]
  6   -900.905428480     -2.008548114     -0.000169032      0.000315294   96.72
  7   -900.905429330     -2.008548964     -0.000000850      0.000134823  107.41
  8   -900.905428410     -2.008548044      0.000000920      0.000058684  106.44
  9   -900.905420740     -2.008540374      0.000007670      0.000021820  106.20
 10   -900.905423085     -2.008542719     -0.000002345      0.000007771  104.63
               --- The Coupled-Cluster iterations have converged ---

----------------------
COUPLED CLUSTER ENERGY
----------------------

E(0)                                       ...   -898.887794198
E(CORR)(strong-pairs)                      ...     -2.008542719
E(CORR)(weak-pairs)                        ...     -0.009086168
E(CORR)(corrected)                         ...     -2.017628887
E(TOT)                                     ...   -900.905423085
Singles Norm <S|S>**1/2                    ...      0.085724137  
T1 diagnostic                              ...      0.010886976  

------------------
LARGEST AMPLITUDES
------------------
  21-> 46  21-> 46       0.062030
  22-> 46  22-> 46       0.062015
  40-> 46  40-> 46       0.060094
  42-> 46  42-> 46       0.059342
  41-> 46  41-> 46       0.058527
  22-> 46  21-> 46       0.053036
  41-> 46  40-> 46       0.048601
  35-> 46  35-> 46       0.044567
  34-> 46  34-> 46       0.044107
  45-> 49  45-> 49       0.043439
  28-> 48  28-> 48       0.042537
  39-> 46  39-> 46       0.040907
  24-> 49  24-> 49       0.037768
  36-> 46  36-> 46       0.037618
  32-> 46  32-> 46       0.037165
  38-> 46  38-> 46       0.035987


-------------------------------------------
DLPNO BASED TRIPLES CORRECTION
-------------------------------------------

Singles multiplier          ...  1.000000
TCutTNO                     ... 1.000e-09
TCutMP2Pairs                ... 1.000e-05
TCutDOStrong                ... 2.000e-02
TCutMKNStrong               ... 1.000e-02
TCutDOWeak                  ... 4.000e-02
TCutMKNWeak                 ... 1.000e-01

Fragment selection                          .... not used
Number of Triples that are to be computed   ...      2500

 . . . . . . . . .             (     13.656 sec)
 . . . . . . . . .             (     10.736 sec)
 . . . . . . . . .             (      8.310 sec)
 . . . . . . . . .             (     11.286 sec)
 . . . . . . . . .             (     12.155 sec)
 . . . . . . . . .             (     12.349 sec)
 . . . . . . . . .             (      7.712 sec)
 . . .             (     12.363 sec)
 . . . . . .             (     15.195 sec)
 . . . . . . . . .             (     12.886 sec)
 . . . . . . . .             (      6.225 sec)
 . . . . . .             (     14.680 sec)
 . . . . . . . . .             (     12.720 sec)
 . . . . . . . .             (     16.031 sec)
 . . . . . . . . .             (     10.990 sec)
 . . . . . . .             (     12.325 sec)
 . . . . . . . . .             (     21.002 sec)
 . . . . . . . . .             (     16.782 sec)
 . . . . . . . . .             (     14.057 sec)
 . . . . . . . . .             (     10.954 sec)
 . . . . . . . . .             (     12.957 sec)
 . . . . . . . . .             (     14.984 sec)
 . . . . . . . . .             (     10.822 sec)
 . . . . . . . . .             (     11.130 sec)
 . . . . . . . . .             (     11.467 sec)
 . . . . . . . .             (      8.324 sec)
 . . . . . . . . .             (     10.467 sec)
 . . . . . . . . .             (     14.275 sec)
 . . . . . . . . .             (     11.174 sec)
 . . . . . . . . .             (      9.330 sec)
 . . . . . . . . .             (      5.421 sec)
 . . . . . . . . .             (      8.925 sec)
 . . . . . . . . .             (     22.437 sec)
 . . . . . . . . .             (      8.420 sec)
 . . . . . . .             (     13.213 sec)
 . . . . . . . . .
10% done               (     11.707 sec)
 . . . . . . . . .             (     11.952 sec)
 . . . . . . . . .             (      9.337 sec)
 . . . . . . . . .             (      9.672 sec)
 . . . . . . . .             (      8.148 sec)
 . . . . . . . . .             (     16.092 sec)
 . . . . . . .             (     19.858 sec)
 . . . . . . . . .             (     23.836 sec)
 . . . . . . . . .             (     16.250 sec)
 . . . . . . . . .             (     14.568 sec)
 . . . . . . . . .             (     13.984 sec)
 . . . . . . . . .             (     12.194 sec)
 . . . . . . . . .             (      6.475 sec)
 . . . . . . . .             (     17.034 sec)
 . . . . . . . . .             (     18.611 sec)
 . . . . . . . .             (     19.177 sec)
 . . . . . . . . .             (     21.822 sec)
 . . . . . . . . .             (     15.944 sec)
 . . . . . . . . .             (     12.617 sec)
 . . . . . .             (     15.841 sec)
 . . . . . . . . .             (     10.845 sec)
 . . . . . .             (     11.505 sec)
 . . . . . . . . .             (     13.346 sec)
 . . . . . . . . .             (      9.294 sec)
 . . . . . . . . .             (     19.385 sec)
 . . . . . . . . .             (     25.959 sec)
 . . . . . . . . .             (     15.698 sec)
 . . . . . . . . .             (     17.937 sec)
 . . . . . . . . .
20% done               (     22.700 sec)
 . . . . . . . . .             (     16.971 sec)
 . . . . . . . . .             (     25.912 sec)
 . . . . . . . . .             (     12.409 sec)
 . . . . . . . . .             (     19.757 sec)
 . . . . . . . . .             (      8.435 sec)
 . . . . . . . . .             (      9.464 sec)
 . . . . . . . . .             (     19.898 sec)
 . . . . . . . . .             (     26.552 sec)
 . . . . . . . . .             (     22.773 sec)
 . . . . . . . . .             (     25.066 sec)
 . . . . . . . . .             (     12.535 sec)
 . . . . . . . . .             (      9.341 sec)
 . . . . . . . . .             (     14.590 sec)
 . . . . . . . . .
30% done               (     18.498 sec)
 . . . . . . . . .             (     14.722 sec)
 . . . . . . . . .             (      8.028 sec)
 . . . . . . . . .             (   7449.154 sec)
 . . . . . . . . .             (     18.497 sec)
 . . . . . . . . .             (     12.005 sec)
 . . . . . . . . .             (     14.406 sec)
 . . . . . . . .             (      8.153 sec)
 . . . . . . . . .             (     11.097 sec)
 . . . . . . . . .             (     12.264 sec)
 . . . . . . .             (      9.467 sec)
 . . . . . . . . .             (     12.378 sec)
 . . . . . . . . .             (     11.402 sec)
 . . . . . . . . .             (      8.483 sec)
 . . . . . .             (     12.998 sec)
 . . . . . . . . .             (     19.516 sec)
 . . . . . . . . .             (     14.129 sec)
 . . . . . . . . .             (     22.479 sec)
 . . . . . . . . .             (     22.088 sec)
 . . . . . . . . .             (      8.213 sec)
 . . . . . . . . .             (     10.487 sec)
 . . . . . . . . .             (     14.240 sec)
 . . . . . . . . .             (     12.467 sec)
 . . . . . . . . .             (     15.619 sec)
 . . . . . . . . .             (     20.002 sec)
 . . . . . . . . .             (     11.560 sec)
 . . . . . . . . .
40% done               (     14.849 sec)
 . . . . . . . . .             (     11.805 sec)
 . . . . . . . . .             (     13.743 sec)
 . . . . . . . . .             (     11.700 sec)
 . . . . . . . . .             (     12.975 sec)
 . . . . . . . . .             (     14.632 sec)
 . . . . . . . . .             (     14.398 sec)
 . . . . . . . . .             (     20.027 sec)
 . . . . . . . . .             (     11.602 sec)
 . . . . . . . . .             (     14.983 sec)
 . . . . . . . . .             (      9.552 sec)
 . . . . . . . . .             (     11.656 sec)
 . . . . . . . . .             (     11.316 sec)
 . . . . . . . . .             (     12.945 sec)
 . . . . . . . . .             (     12.679 sec)
 . . . . . . . . .             (     16.281 sec)
 . . . . . . . . .             (     12.161 sec)
 . . . . . . . . .             (     16.241 sec)
 . . . . . . . . .             (     12.706 sec)
 . . . . . . . . .             (     13.139 sec)
 . . . . . . . . .             (     10.062 sec)
 . . . . . . . . .
50% done               (     11.216 sec)
 . . . . . . . . .             (     11.365 sec)
 . . . . . . . . .             (     12.349 sec)
 . . . . . . . . .             (     14.296 sec)
 . . . . . . . . .             (     11.074 sec)
 . . . . . . . . .             (     18.210 sec)
 . . . . . . . . .             (     12.455 sec)
 . . . . . . . . .             (      8.673 sec)
 . . . . . . . . .             (     13.950 sec)
 . . . . . . . . .             (     12.400 sec)
 . . . . . . . . .             (     11.418 sec)
 . . . . . . . . .             (     23.458 sec)
 . . . . . . . . .             (     11.611 sec)
 . . . . . . . .             (     11.411 sec)
 . . . . . . . . .             (     11.776 sec)
 . . . . . . . . .             (     12.459 sec)
 . . . . . . .             (     11.892 sec)
 . . . . . . . . .             (     21.416 sec)
 . . . . . . . . .             (     14.076 sec)
 . . . . . . . . .             (     18.546 sec)
 . . . . . . . . .             (     15.942 sec)
 . . . . . . . . .
60% done               (     16.535 sec)
 . . . . . . . . .             (     14.006 sec)
 . . . . . . . . .             (     13.843 sec)
 . . . . . . . . .             (     13.581 sec)
 . . . . . . . . .             (     20.878 sec)
 . . . . . . . . .             (     13.334 sec)
 . . . . . . . . .             (     20.493 sec)
 . . . . . . . . .             (     24.204 sec)
 . . . . . . . . .             (     21.057 sec)
 . . . . . . . . .             (     40.652 sec)
 . . . . . . . . .             (     38.571 sec)
 . . . . . . . . .             (     35.316 sec)
 . . . . . . . . .             (     34.230 sec)
 . . . . . . . . .             (     34.946 sec)
 . . . . . . . . .             (     26.015 sec)
 . . . . . . . . .
70% done               (     36.396 sec)
 . . . . . . . . .             (     27.364 sec)
 . . . . . . . . .             (     19.767 sec)
 . . . . . . . . .             (     29.050 sec)
 . . . . . . . . .             (     29.811 sec)
 . . . . . . . . .             (     26.572 sec)
 . . . . . . . . .             (     29.275 sec)
 . . . . . . . . .             (     31.799 sec)
 . . . . . . . . .             (     39.536 sec)
 . . . . . . . . .             (     31.278 sec)
 . . . . . . . . .             (     25.008 sec)
 . . . . . . . . .             (     34.214 sec)
 . . . . . . . . .
80% done               (     37.831 sec)
 . . . . . . . . .             (     33.245 sec)
 . . . . . . . . .             (     37.194 sec)
 . . . . . . . . .             (     46.434 sec)
 . . . . . . . . .             (     40.691 sec)
 . . . . . . . . .             (     46.438 sec)
 . . . . . . . . .             (     37.524 sec)
 . . . . . . . . .             (     46.233 sec)
 . . . . . . . . .             (     39.968 sec)
 . . . . . . . . .
90% done               (     39.826 sec)
 . . . . . . . . .             (     37.507 sec)
 . . . . . . . . .             (     36.656 sec)
 . . . . . . . . .             (     32.096 sec)
 . . . . . . . . .             (     29.205 sec)
 . . . . . . . . .             (     28.119 sec)
 . . . . . . . . .             (     34.137 sec)
 . . . . . . . . .             (     16.886 sec)
Triples timings:
Total time for T0               ... 11022.759 sec
Total time for Iterative (T)    ...     0.000 sec
Total time of overall (T)       ... 11022.768 sec

Triples List generation         ...     0.000 sec
TNO generation                  ...   221.804 sec
Pair density generation         ...     0.006 sec
Look up tables                  ...     0.000 sec
Generating 3-index integrals    ... 10010.816 sec
  Make 4-ind.int. from 3-ind.int...   184.333 sec
  Projecting amplitudes (D + S) ...   344.017 sec
  Downprojecting integrals      ...     0.025 sec
  Energy contr. (sum over a,b,c)...    89.442 sec
Fitting ET(->0)                 ...     0.000 sec

Everything after 3-index        ...   789.953 sec

Timing details:
 TNO integrals                  ... 10171.561 sec
   Reading 3-index integrals    ...  7980.431 sec
   Sorting integrals            ...   543.052 sec
       Sorting integrals 1      ...     0.016 sec
       Sorting integrals 2      ...   452.705 sec
       Sorting integrals 3      ...    14.949 sec
       Sorting integrals 4      ...     0.471 sec
       Sorting integrals 5      ...     5.250 sec
       Sorting integrals 6      ...    69.661 sec
   Calculating local VM**-1/2   ...     7.755 sec
   Orthogonal. integrals        ...    10.875 sec
   Multipl. 3-index integrals   ...  1629.448 sec
   All concerning IRIab (w/TNO) ...    84.208 sec

 Calculate W0/W1                ...   165.328 sec
 W 3-ext contribution           ...    62.593 sec
 W 3-int contribution           ...    23.497 sec
 Sorting W                      ...    72.631 sec

 V exchange contribution        ...    40.204 sec

 Timings for Triples without generation
     of 3-index integrals       ...   789.495 sec
       0 weak pairs             ...   626.612 sec
       1 weak pair              ...   162.883 sec
       2 weak pairs             ...     0.000 sec
       3 weak pairs             ...     0.000 sec
  Extra time for extrapolation  ...     0.000 sec

Number of Triples   (0, 1, 2, 3 weak pairs; overall):   1659     841       0       0  (  2500)
Number of Atoms     (0, 1, 2, 3 weak pairs; overall):   14.0    12.7     0.0     0.0  (    23)
Number of PAOs      (0, 1, 2, 3 weak pairs; overall):  322.5   308.2     0.0     0.0  (   502)
Number of AuxFcns   (0, 1, 2, 3 weak pairs; overall):  428.0   380.2     0.0     0.0  (  1292)
Number of TNOs      (0, 1, 2, 3 weak pairs         ):   83.2    57.3     0.0     0.0
Aver. Number of NTNO, Atoms, PAOs, AuxFcns / Triples:   2500    74.5    13.6   317.7   411.9

Triples Correction (T)                     ...     -0.086438140
Final correlation energy                   ...     -2.104067026
E(CCSD)                                    ...   -900.905423085
E(CCSD(T))                                 ...   -900.991861224



--------------------------------------------------------------------------------
                                    TIMINGS
--------------------------------------------------------------------------------


Total execution time                   ...    14676.591 sec

Localization of occupied MO's          ...        1.804 sec (  0.0%)
Fock Matrix Formation                  ...       92.670 sec (  0.6%)
Global overlap, Fock, MKN matrices     ...        1.200 sec (  0.0%)
Differential overlap integrals         ...        7.862 sec (  0.1%)
Organizing maps                        ...        0.092 sec (  0.0%)
RI 3-index integral generations        ...       92.995 sec (  0.6%)
RI-PNO integral transformation         ...     2132.973 sec ( 14.5%)
Initial Guess                          ...      162.586 sec (  1.1%)
DIIS Solver                            ...        1.827 sec (  0.0%)
State Vector Update                    ...        0.028 sec (  0.0%)
Sigma-vector construction              ...     1158.922 sec (  7.9%)
  <0|H|D>                              ...        0.002 sec (  0.0% of sigma)
  <D|H|D>(0-ext)                       ...       87.836 sec (  7.6% of sigma)
  <D|H|D>(2-ext Fock)                  ...        0.433 sec (  0.0% of sigma)
  <D|H|D>(2-ext)                       ...      202.265 sec ( 17.5% of sigma)
  <D|H|D>(4-ext)                       ...      125.643 sec ( 10.8% of sigma)
  <D|H|D>(4-ext-corr)                  ...      413.798 sec ( 35.7% of sigma)
  CCSD doubles correction              ...        5.908 sec (  0.5% of sigma)
  <S|H|S>                              ...       36.508 sec (  3.2% of sigma)
  <S|H|D>(1-ext)                       ...       21.805 sec (  1.9% of sigma)
  <D|H|S>(1-ext)                       ...        0.684 sec (  0.1% of sigma)
  <S|H|D>(3-ext)                       ...        6.705 sec (  0.6% of sigma)
  CCSD singles correction              ...        0.008 sec (  0.0% of sigma)
  Fock-dressing                        ...      181.698 sec ( 15.7% of sigma)
  Singles amplitudes                   ...        3.671 sec (  0.3% of sigma)
  (ik|jl)-dressing                     ...       45.240 sec (  3.9% of sigma)
  (ij|ab),(ia|jb)-dressing             ...       26.378 sec (  2.3% of sigma)
  Pair energies                        ...        0.049 sec (  0.0% of sigma)
Total Time for computing (T)           ...    11022.781 sec ( 75.1% of ALL)


Maximum memory used throughout the entire MDCI-calculation: 522.7 MB

-------------------------   --------------------
FINAL SINGLE POINT ENERGY      -900.991861224420
-------------------------   --------------------


                            ***************************************
                            *     ORCA property calculations      *
                            ***************************************


  WARNING: The energy has been calculated at the MDCI level but the densities
           used in the property calculations are still SCF densities
           MDCI response densities have not been calculated 
           use %mdci Density linearized end
           or  %mdci Density unrelaxed end
           or  %mdci Density orbopt end

                                    ---------------------
                                    Active property flags
                                    ---------------------
   (+) Dipole Moment


------------------------------------------------------------------------------
                       ORCA ELECTRIC PROPERTIES CALCULATION
------------------------------------------------------------------------------

Dipole Moment Calculation                       ... on
Quadrupole Moment Calculation                   ... off
Polarizability Calculation                      ... off
GBWName                                         ... CCSD.gbw
Electron density                                ... CCSD.scfp
The origin for moment calculation is the CENTER OF MASS  = ( 2.637983,  1.551899  0.056928)

-------------
DIPOLE MOMENT
-------------
                                X             Y             Z
Electronic contribution:     22.44609      -2.16698      -0.98729
Nuclear contribution   :    -24.46675       2.52936       1.68763
                        -----------------------------------------
Total Dipole Moment    :     -2.02066       0.36238       0.70034
                        -----------------------------------------
Magnitude (a.u.)       :      2.16907
Magnitude (Debye)      :      5.51334



--------------------
Rotational spectrum 
--------------------
 
Rotational constants in cm-1:     0.078975     0.013377     0.012208 
Rotational constants in MHz :  2367.608052   401.025928   365.983271 

 Dipole components along the rotational axes: 
x,y,z [a.u.] :    -2.025416    -0.418673     0.653657 
x,y,z [Debye]:    -5.148199    -1.064182     1.661465 

 

Timings for individual modules:

Sum of individual times         ...    15498.092 sec (= 258.302 min)
GTO integral calculation        ...        4.609 sec (=   0.077 min)   0.0 %
SCF iterations                  ...      802.478 sec (=  13.375 min)   5.2 %
MDCI module                     ...    14691.005 sec (= 244.850 min)  94.8 %
                             ****ORCA TERMINATED NORMALLY****
TOTAL RUN TIME: 0 days 4 hours 18 minutes 19 seconds 177 msec
