
                                 *****************
                                 * O   R   C   A *
                                 *****************

                                            #,                                       
                                            ###                                      
                                            ####                                     
                                            #####                                    
                                            ######                                   
                                           ########,                                 
                                     ,,################,,,,,                         
                               ,,#################################,,                 
                          ,,##########################################,,             
                       ,#########################################, ''#####,          
                    ,#############################################,,   '####,        
                  ,##################################################,,,,####,       
                ,###########''''           ''''###############################       
              ,#####''   ,,,,##########,,,,          '''####'''          '####       
            ,##' ,,,,###########################,,,                        '##       
           ' ,,###''''                  '''############,,,                           
         ,,##''                                '''############,,,,        ,,,,,,###''
      ,#''                                            '''#######################'''  
     '                                                          ''''####''''         
             ,#######,   #######,   ,#######,      ##                                
            ,#'     '#,  ##    ##  ,#'     '#,    #''#        ######   ,####,        
            ##       ##  ##   ,#'  ##            #'  '#       #        #'  '#        
            ##       ##  #######   ##           ,######,      #####,   #    #        
            '#,     ,#'  ##    ##  '#,     ,#' ,#      #,         ##   #,  ,#        
             '#######'   ##     ##  '#######'  #'      '#     #####' # '####'        



                  #######################################################
                  #                        -***-                        #
                  #          Department of theory and spectroscopy      #
                  #    Directorship and core code : Frank Neese         #
                  #        Max Planck Institute fuer Kohlenforschung    #
                  #                Kaiser Wilhelm Platz 1               #
                  #                 D-45470 Muelheim/Ruhr               #
                  #                      Germany                        #
                  #                                                     #
                  #                  All rights reserved                #
                  #                        -***-                        #
                  #######################################################



                         Program Version 5.0.4 -  RELEASE  -

 With contributions from (in alphabetic order):
   Daniel Aravena         : Magnetic Suceptibility
   Michael Atanasov       : Ab Initio Ligand Field Theory (pilot matlab implementation)
   Alexander A. Auer      : GIAO ZORA, VPT2 properties, NMR spectrum
   Ute Becker             : Parallelization
   Giovanni Bistoni       : ED, misc. LED, open-shell LED, HFLD
   Martin Brehm           : Molecular dynamics
   Dmytro Bykov           : SCF Hessian
   Vijay G. Chilkuri      : MRCI spin determinant printing, contributions to CSF-ICE
   Dipayan Datta          : RHF DLPNO-CCSD density
   Achintya Kumar Dutta   : EOM-CC, STEOM-CC
   Dmitry Ganyushin       : Spin-Orbit,Spin-Spin,Magnetic field MRCI
   Miquel Garcia          : C-PCM and meta-GGA Hessian, CC/C-PCM, Gaussian charge scheme
   Yang Guo               : DLPNO-NEVPT2, F12-NEVPT2, CIM, IAO-localization
   Andreas Hansen         : Spin unrestricted coupled pair/coupled cluster methods
   Benjamin Helmich-Paris : MC-RPA, TRAH-SCF, COSX integrals
   Lee Huntington         : MR-EOM, pCC
   Robert Izsak           : Overlap fitted RIJCOSX, COSX-SCS-MP3, EOM
   Marcus Kettner         : VPT2
   Christian Kollmar      : KDIIS, OOCD, Brueckner-CCSD(T), CCSD density, CASPT2, CASPT2-K
   Simone Kossmann        : Meta GGA functionals, TD-DFT gradient, OOMP2, MP2 Hessian
   Martin Krupicka        : Initial AUTO-CI
   Lucas Lang             : DCDCAS
   Marvin Lechner         : AUTO-CI (C++ implementation), FIC-MRCC
   Dagmar Lenk            : GEPOL surface, SMD
   Dimitrios Liakos       : Extrapolation schemes; Compound Job, initial MDCI parallelization
   Dimitrios Manganas     : Further ROCIS development; embedding schemes
   Dimitrios Pantazis     : SARC Basis sets
   Anastasios Papadopoulos: AUTO-CI, single reference methods and gradients
   Taras Petrenko         : DFT Hessian,TD-DFT gradient, ASA, ECA, R-Raman, ABS, FL, XAS/XES, NRVS
   Peter Pinski           : DLPNO-MP2, DLPNO-MP2 Gradient
   Christoph Reimann      : Effective Core Potentials
   Marius Retegan         : Local ZFS, SOC
   Christoph Riplinger    : Optimizer, TS searches, QM/MM, DLPNO-CCSD(T), (RO)-DLPNO pert. Triples
   Tobias Risthaus        : Range-separated hybrids, TD-DFT gradient, RPA, STAB
   Michael Roemelt        : Original ROCIS implementation
   Masaaki Saitow         : Open-shell DLPNO-CCSD energy and density
   Barbara Sandhoefer     : DKH picture change effects
   Avijit Sen             : IP-ROCIS
   Kantharuban Sivalingam : CASSCF convergence, NEVPT2, FIC-MRCI
   Bernardo de Souza      : ESD, SOC TD-DFT
   Georgi Stoychev        : AutoAux, RI-MP2 NMR, DLPNO-MP2 response
   Willem Van den Heuvel  : Paramagnetic NMR
   Boris Wezisla          : Elementary symmetry handling
   Frank Wennmohs         : Technical directorship


 We gratefully acknowledge several colleagues who have allowed us to
 interface, adapt or use parts of their codes:
   Stefan Grimme, W. Hujo, H. Kruse, P. Pracht,  : VdW corrections, initial TS optimization,
                  C. Bannwarth, S. Ehlert          DFT functionals, gCP, sTDA/sTD-DF
   Ed Valeev, F. Pavosevic, A. Kumar             : LibInt (2-el integral package), F12 methods
   Garnet Chan, S. Sharma, J. Yang, R. Olivares  : DMRG
   Ulf Ekstrom                                   : XCFun DFT Library
   Mihaly Kallay                                 : mrcc  (arbitrary order and MRCC methods)
   Jiri Pittner, Ondrej Demel                    : Mk-CCSD
   Frank Weinhold                                : gennbo (NPA and NBO analysis)
   Christopher J. Cramer and Donald G. Truhlar   : smd solvation model
   Lars Goerigk                                  : TD-DFT with DH, B97 family of functionals
   V. Asgeirsson, H. Jonsson                     : NEB implementation
   FAccTs GmbH                                   : IRC, NEB, NEB-TS, DLPNO-Multilevel, CI-OPT
                                                   MM, QMMM, 2- and 3-layer-ONIOM, Crystal-QMMM,
                                                   LR-CPCM, SF, NACMEs, symmetry and pop. for TD-DFT,
                                                   nearIR, NL-DFT gradient (VV10), updates on ESD,
                                                   ML-optimized integration grids
   S Lehtola, MJT Oliveira, MAL Marques          : LibXC Library
   Liviu Ungur et al                             : ANISO software


 Your calculation uses the libint2 library for the computation of 2-el integrals
 For citations please refer to: http://libint.valeyev.net

 Your ORCA version has been built with support for libXC version: 5.1.0
 For citations please refer to: https://tddft.org/programs/libxc/

 This ORCA versions uses:
   CBLAS   interface :  Fast vector & matrix operations
   LAPACKE interface :  Fast linear algebra routines
   Shared memory     :  Shared parallel matrices


Your calculation utilizes the atom-pairwise dispersion correction
based on tight binding partial charges (D4)
Cite in your paper:
E.Caldeweyher, C.Bannwarth, S.Grimme, J.Chem.Phys., (2017), 147, 034112.
E.Caldeweyher, S.Ehlert, A.Hansen, H.Neugebauer, S.Grimme, J.Chem.Phys., (2018), in progress.
   

XCFun DFT library Copyright 2009-2010 Ulf Ekstrom and contributors.
See http://admol.org/xcfun for more information.
This is free software; see the source code for copying conditions.
There is ABSOLUTELY NO WARRANTY; not even for MERCHANTABILITY or FITNESS FOR A PARTICULAR PURPOSE.
For details see the documentation.
Scientific users of this library should cite U. Ekstrom, L. Visscher, R. Bast, A. J. Thorvaldsen and K. Ruud;
J.Chem.Theor.Comp. 2010, DOI: 10.1021/ct100117s
XCFun Version 0.99 

================================================================================

----- Orbital basis set information -----
Your calculation utilizes the basis: def2-SVP
   F. Weigend and R. Ahlrichs, Phys. Chem. Chem. Phys. 7, 3297 (2005).

----- AuxJ basis set information -----
Your calculation utilizes the auxiliary basis: def2/J
   F. Weigend, Phys. Chem. Chem. Phys. 8, 1057 (2006).

================================================================================
                                        WARNINGS
                       Please study these warnings very carefully!
================================================================================


WARNING: Geometry Optimization
  ===> : Switching off AutoStart
         For restart on a previous wavefunction, please use MOREAD

INFO   : the flag for use of the SHARK integral package has been found!

================================================================================
                                       INPUT FILE
================================================================================
NAME = opt.inp
|  1> !cam-B3LYP OPT FREQ DEF2-SVP D4
|  2> 
|  3> * xyz 1 1
|  4>   C   -2.59096763099183      1.35707632868311     -1.29637108519819
|  5>   C   -3.50747628417126      0.37240827878264     -1.80457451714020
|  6>   C   -3.45236690447404     -0.93835909424729     -1.38160475434772
|  7>   C   -2.48817531049545     -1.33980578122810     -0.43443843007945
|  8>   C   -1.57552392964272     -0.40393778752883      0.08434612922563
|  9>   C   -1.61563141305945      0.91521024662854     -0.32827199413195
| 10>   H   -4.25195182069650      0.69125864725650     -2.53800219692391
| 11>   H   -4.15949510762728     -1.66738594169357     -1.78278233677945
| 12>   H   -2.44437445211484     -2.37789999359236     -0.09889195510160
| 13>   H   -0.82178865975236     -0.69300555649948      0.81747370321744
| 14>   H   8.82976292378174     -2.55970494046663     16.90895843887601
| 15>   N   -2.66677522711290      2.61583751867298     -1.72250405352587
| 16>   H   -3.36682596193991      2.89167503631130     -2.40514066495180
| 17>   H   -1.99583134244529      3.28982669128129     -1.33755351490510
| 18>   N   -0.63051392660352      1.84453632440211      0.25570501831424
| 19>   O   -0.66519690147805      3.01805597300700     -0.11265600787859
| 20>   O   0.15310194882382      1.39786405023072      1.06215822133048
| 21> *
| 22> 
| 23>                          ****END OF INPUT****
================================================================================

                       *****************************
                       * Geometry Optimization Run *
                       *****************************

Geometry optimization settings:
Update method            Update   .... BFGS
Choice of coordinates    CoordSys .... Z-matrix Internals
Initial Hessian          InHess   .... Almoef's Model

Convergence Tolerances:
Energy Change            TolE     ....  5.0000e-06 Eh
Max. Gradient            TolMAXG  ....  3.0000e-04 Eh/bohr
RMS Gradient             TolRMSG  ....  1.0000e-04 Eh/bohr
Max. Displacement        TolMAXD  ....  4.0000e-03 bohr
RMS Displacement         TolRMSD  ....  2.0000e-03 bohr
Strict Convergence                ....  False
------------------------------------------------------------------------------
                        ORCA OPTIMIZATION COORDINATE SETUP
------------------------------------------------------------------------------

The optimization will be done in new redundant internal coordinates
Making redundant internal coordinates   ...  (new redundants) done
Evaluating the initial hessian          ...  (Almloef) done
Evaluating the coordinates              ...  done
Calculating the B-matrix                .... done
Calculating the G-matrix                .... done
Diagonalizing the G-matrix              .... done
Small eigenvalue found = 1.532e-02
Small eigenvalue found = 2.272e-02
The first mode is                       ....   38
The number of degrees of freedom        ....   45

    -----------------------------------------------------------------
                    Redundant Internal Coordinates


    -----------------------------------------------------------------
         Definition                    Initial Value    Approx d2E/dq
    -----------------------------------------------------------------
      1. B(C   1,C   0)                  1.4380         0.523800   
      2. B(C   2,C   1)                  1.3784         0.651941   
      3. B(C   3,C   2)                  1.4099         0.580651   
      4. B(C   4,C   3)                  1.4064         0.588298   
      5. B(C   5,C   4)                  1.3828         0.641647   
      6. B(C   5,C   0)                  1.4435         0.513281   
      7. B(H   6,C   1)                  1.0926         0.356646   
      8. B(H   7,C   2)                  1.0920         0.357470   
      9. B(H   8,C   3)                  1.0919         0.357653   
     10. B(H   9,C   4)                  1.0905         0.359462   
     11. B(H  10,H   9)                 18.8566         0.000000   
     12. B(N  11,C   0)                  1.3311         0.694790   
     13. B(H  12,N  11)                  1.0159         0.423356   
     14. B(H  13,N  11)                  1.0260         0.408053   
     15. B(N  14,C   5)                  1.4748         0.409760   
     16. B(O  15,N  14)                  1.2305         0.900621   
     17. B(O  16,H  10)                 18.4951         0.000000   
     18. B(O  16,N  14)                  1.2099         0.971177   
     19. A(C   1,C   0,C   5)          117.2613         0.407244   
     20. A(C   5,C   0,N  11)          122.8642         0.425466   
     21. A(C   1,C   0,N  11)          119.8745         0.427014   
     22. A(C   0,C   1,C   2)          121.1457         0.424943   
     23. A(C   2,C   1,H   6)          120.7113         0.355345   
     24. A(C   0,C   1,H   6)          118.1430         0.342474   
     25. A(C   3,C   2,H   7)          119.9698         0.348590   
     26. A(C   1,C   2,C   3)          120.2799         0.432870   
     27. A(C   1,C   2,H   7)          119.7504         0.355484   
     28. A(C   2,C   3,C   4)          120.1396         0.424968   
     29. A(C   2,C   3,H   8)          120.3039         0.348620   
     30. A(C   4,C   3,H   8)          119.5565         0.349390   
     31. A(C   5,C   4,H   9)          118.2651         0.354860   
     32. A(C   3,C   4,C   5)          120.3934         0.432650   
     33. A(C   3,C   4,H   9)          121.3415         0.349688   
     34. A(C   0,C   5,C   4)          120.7802         0.422202   
     35. A(C   4,C   5,N  14)          117.6201         0.403035   
     36. A(C   0,C   5,N  14)          121.5998         0.387563   
     37. A(C   4,H   9,H  10)          162.5027         0.089000   
     38. A(H   9,H  10,O  16)            7.0351         0.089000   
     39. A(H  12,N  11,H  13)          121.6257         0.299388   
     40. A(C   0,N  11,H  13)          117.6370         0.362060   
     41. A(C   0,N  11,H  12)          120.7373         0.364345   
     42. A(O  15,N  14,O  16)          124.7418         0.490994   
     43. A(C   5,N  14,O  16)          117.6388         0.428211   
     44. A(C   5,N  14,O  15)          117.6194         0.422470   
     45. A(H  10,O  16,N  14)          162.5386         0.089000   
     46. D(C   2,C   1,C   0,C   5)     -0.0185         0.018717   
     47. D(C   2,C   1,C   0,N  11)    179.9922         0.018717   
     48. D(H   6,C   1,C   0,C   5)    179.9895         0.018717   
     49. D(H   6,C   1,C   0,N  11)      0.0002         0.018717   
     50. D(C   3,C   2,C   1,H   6)   -179.9798         0.029606   
     51. D(H   7,C   2,C   1,C   0)   -179.9873         0.029606   
     52. D(C   3,C   2,C   1,C   0)      0.0284         0.029606   
     53. D(H   7,C   2,C   1,H   6)      0.0045         0.029606   
     54. D(H   8,C   3,C   2,H   7)     -0.0037         0.023166   
     55. D(H   8,C   3,C   2,C   1)    179.9806         0.023166   
     56. D(C   4,C   3,C   2,H   7)    179.9847         0.023166   
     57. D(C   4,C   3,C   2,C   1)     -0.0310         0.023166   
     58. D(H   9,C   4,C   3,C   2)   -179.9913         0.023810   
     59. D(C   5,C   4,C   3,H   8)   -179.9872         0.023810   
     60. D(C   5,C   4,C   3,C   2)      0.0243         0.023810   
     61. D(H   9,C   4,C   3,H   8)     -0.0028         0.023810   
     62. D(N  14,C   5,C   4,H   9)     -0.0118         0.028615   
     63. D(C   0,C   5,C   4,H   9)   -179.9999         0.028615   
     64. D(C   0,C   5,C   4,C   3)     -0.0150         0.028615   
     65. D(N  14,C   5,C   0,N  11)      0.0131         0.017958   
     66. D(N  14,C   5,C   0,C   1)   -179.9758         0.017958   
     67. D(N  14,C   5,C   4,C   3)    179.9731         0.028615   
     68. D(C   4,C   5,C   0,N  11)   -179.9993         0.017958   
     69. D(C   4,C   5,C   0,C   1)      0.0117         0.017958   
     70. D(H  10,H   9,C   4,C   5)     70.6574         0.109156   
     71. D(H  10,H   9,C   4,C   3)   -109.3274         0.109156   
     72. D(O  16,H  10,H   9,C   4)    -73.4898         0.001500   
     73. D(H  13,N  11,C   0,C   5)      0.0353         0.039888   
     74. D(H  13,N  11,C   0,C   1)   -179.9760         0.039888   
     75. D(H  12,N  11,C   0,C   5)   -179.9815         0.039888   
     76. D(H  12,N  11,C   0,C   1)      0.0072         0.039888   
     77. D(O  16,N  14,C   5,C   4)     -0.0833         0.013245   
     78. D(O  16,N  14,C   5,C   0)    179.9047         0.013245   
     79. D(O  15,N  14,C   5,C   4)    179.9162         0.013245   
     80. D(O  15,N  14,C   5,C   0)     -0.0958         0.013245   
     81. D(H  10,O  16,N  14,O  15)     73.5518         0.091231   
     82. D(H  10,O  16,N  14,C   5)   -106.4487         0.091231   
     83. D(N  14,O  16,H  10,H   9)    105.6454         0.001500   
    -----------------------------------------------------------------

Number of atoms                         .... 17
Number of degrees of freedom            .... 83

         *************************************************************
         *                GEOMETRY OPTIMIZATION CYCLE   1            *
         *************************************************************
---------------------------------
CARTESIAN COORDINATES (ANGSTROEM)
---------------------------------
  C     -2.590968    1.357076   -1.296371
  C     -3.507476    0.372408   -1.804575
  C     -3.452367   -0.938359   -1.381605
  C     -2.488175   -1.339806   -0.434438
  C     -1.575524   -0.403938    0.084346
  C     -1.615631    0.915210   -0.328272
  H     -4.251952    0.691259   -2.538002
  H     -4.159495   -1.667386   -1.782782
  H     -2.444374   -2.377900   -0.098892
  H     -0.821789   -0.693006    0.817474
  H      8.829763   -2.559705   16.908958
  N     -2.666775    2.615838   -1.722504
  H     -3.366826    2.891675   -2.405141
  H     -1.995831    3.289827   -1.337554
  N     -0.630514    1.844536    0.255705
  O     -0.665197    3.018056   -0.112656
  O      0.153102    1.397864    1.062158

----------------------------
CARTESIAN COORDINATES (A.U.)
----------------------------
  NO LB      ZA    FRAG     MASS         X           Y           Z
   0 C     6.0000    0    12.011   -4.896219    2.564503   -2.449786
   1 C     6.0000    0    12.011   -6.628170    0.703750   -3.410152
   2 C     6.0000    0    12.011   -6.524028   -1.773242   -2.610855
   3 C     6.0000    0    12.011   -4.701970   -2.531866   -0.820970
   4 C     6.0000    0    12.011   -2.977309   -0.763332    0.159391
   5 C     6.0000    0    12.011   -3.053101    1.729497   -0.620344
   6 H     1.0000    0     1.008   -8.035024    1.306290   -4.796129
   7 H     1.0000    0     1.008   -7.860307   -3.150903   -3.368970
   8 H     1.0000    0     1.008   -4.619198   -4.493580   -0.186879
   9 H     1.0000    0     1.008   -1.552956   -1.309591    1.544801
  10 H     1.0000    0     1.008   16.685834   -4.837141   31.953301
  11 N     7.0000    0    14.007   -5.039475    4.943217   -3.255061
  12 H     1.0000    0     1.008   -6.362379    5.464474   -4.545057
  13 H     1.0000    0     1.008   -3.771575    6.216871   -2.527610
  14 N     7.0000    0    14.007   -1.191499    3.485668    0.483212
  15 O     8.0000    0    15.999   -1.257040    5.703299   -0.212889
  16 O     8.0000    0    15.999    0.289321    2.641580    2.007188

--------------------------------
INTERNAL COORDINATES (ANGSTROEM)
--------------------------------
 C      0   0   0     0.000000000000     0.00000000     0.00000000
 C      1   0   0     1.437995134931     0.00000000     0.00000000
 C      2   1   0     1.378423581548   121.14567958     0.00000000
 C      3   2   1     1.409946423881   120.27988325     0.02835750
 C      4   3   2     1.406385033899   120.13960127   359.96900317
 C      5   4   3     1.382755893848   120.39340688     0.02431256
 H      2   1   3     1.092623239472   118.14297120   180.00800245
 H      3   2   1     1.091995372077   119.75035849   180.01274239
 H      4   3   2     1.091856009650   120.30391831   179.98062276
 H      5   4   3     1.090482953503   121.34149359   180.00874826
 H     10   5   4    18.856640622276   162.50273043   250.67261410
 N      1   2   3     1.331095725990   119.87450035   179.99217765
 H     12   1   2     1.015947887801   120.73732271     0.00000000
 H     12   1   2     1.025969794073   117.63702447   180.02402240
 N      6   5   4     1.474833065813   117.62007547   179.97306214
 O     15   6   5     1.230463782492   117.61940541   179.91623182
 O     15   6   5     1.209932530925   117.63883696   359.91674478

---------------------------
INTERNAL COORDINATES (A.U.)
---------------------------
 C      0   0   0     0.000000000000     0.00000000     0.00000000
 C      1   0   0     2.717416986931     0.00000000     0.00000000
 C      2   1   0     2.604843065664   121.14567958     0.00000000
 C      3   2   1     2.664412604637   120.27988325     0.02835750
 C      4   3   2     2.657682552916   120.13960127   359.96900317
 C      5   4   3     2.613029949438   120.39340688     0.02431256
 H      2   1   3     2.064758690159   118.14297120   180.00800245
 H      3   2   1     2.063572192735   119.75035849   180.01274239
 H      4   3   2     2.063308835915   120.30391831   179.98062276
 H      5   4   3     2.060714135831   121.34149359   180.00874826
 H     10   5   4    35.633886581875   162.50273043   250.67261410
 N      1   2   3     2.515406380155   119.87450035   179.99217765
 H     12   1   2     1.919863274280   120.73732271     0.00000000
 H     12   1   2     1.938801932474   117.63702447   180.02402240
 N      6   5   4     2.787030587639   117.62007547   179.97306214
 O     15   6   5     2.325239566620   117.61940541   179.91623182
 O     15   6   5     2.286441123970   117.63883696   359.91674478

---------------------
BASIS SET INFORMATION
---------------------
There are 4 groups of distinct atoms

 Group   1 Type C   : 7s4p1d contracted to 3s2p1d pattern {511/31/1}
 Group   2 Type H   : 4s1p contracted to 2s1p pattern {31/1}
 Group   3 Type N   : 7s4p1d contracted to 3s2p1d pattern {511/31/1}
 Group   4 Type O   : 7s4p1d contracted to 3s2p1d pattern {511/31/1}

Atom   0C    basis set group =>   1
Atom   1C    basis set group =>   1
Atom   2C    basis set group =>   1
Atom   3C    basis set group =>   1
Atom   4C    basis set group =>   1
Atom   5C    basis set group =>   1
Atom   6H    basis set group =>   2
Atom   7H    basis set group =>   2
Atom   8H    basis set group =>   2
Atom   9H    basis set group =>   2
Atom  10H    basis set group =>   2
Atom  11N    basis set group =>   3
Atom  12H    basis set group =>   2
Atom  13H    basis set group =>   2
Atom  14N    basis set group =>   3
Atom  15O    basis set group =>   4
Atom  16O    basis set group =>   4
---------------------------------
AUXILIARY/J BASIS SET INFORMATION
---------------------------------
There are 4 groups of distinct atoms

 Group   1 Type C   : 12s5p4d2f1g contracted to 6s4p3d1f1g pattern {711111/2111/211/2/1}
 Group   2 Type H   : 5s2p1d contracted to 3s1p1d pattern {311/2/1}
 Group   3 Type N   : 12s5p4d2f1g contracted to 6s4p3d1f1g pattern {711111/2111/211/2/1}
 Group   4 Type O   : 12s5p4d2f1g contracted to 6s4p3d1f1g pattern {711111/2111/211/2/1}

Atom   0C    basis set group =>   1
Atom   1C    basis set group =>   1
Atom   2C    basis set group =>   1
Atom   3C    basis set group =>   1
Atom   4C    basis set group =>   1
Atom   5C    basis set group =>   1
Atom   6H    basis set group =>   2
Atom   7H    basis set group =>   2
Atom   8H    basis set group =>   2
Atom   9H    basis set group =>   2
Atom  10H    basis set group =>   2
Atom  11N    basis set group =>   3
Atom  12H    basis set group =>   2
Atom  13H    basis set group =>   2
Atom  14N    basis set group =>   3
Atom  15O    basis set group =>   4
Atom  16O    basis set group =>   4
------------------------------------------------------------------------------
                           ORCA GTO INTEGRAL CALCULATION
                           -- RI-GTO INTEGRALS CHOSEN --
------------------------------------------------------------------------------
------------------------------------------------------------------------------
                   ___                                                        
                  /   \      - P O W E R E D   B Y -                         
                 /     \                                                     
                 |  |  |   _    _      __       _____    __    __             
                 |  |  |  | |  | |    /  \     |  _  \  |  |  /  |          
                  \  \/   | |  | |   /    \    | | | |  |  | /  /          
                 / \  \   | |__| |  /  /\  \   | |_| |  |  |/  /          
                |  |  |   |  __  | /  /__\  \  |    /   |      \           
                |  |  |   | |  | | |   __   |  |    \   |  |\   \          
                \     /   | |  | | |  |  |  |  | |\  \  |  | \   \       
                 \___/    |_|  |_| |__|  |__|  |_| \__\ |__|  \__/        
                                                                              
                      - O R C A' S   B I G   F R I E N D -                    
                                      &                                       
                       - I N T E G R A L  F E E D E R -                       
                                                                              
 v1 FN, 2020, v2 2021                                                         
------------------------------------------------------------------------------


Reading SHARK input file opt.SHARKINP.tmp ... ok
----------------------
SHARK INTEGRAL PACKAGE
----------------------

Number of atoms                             ...     17
Number of basis functions                   ...    175
Number of shells                            ...     81
Maximum angular momentum                    ...      2
Integral batch strategy                     ... SHARK/LIBINT Hybrid
RI-J (if used) integral strategy            ... SPLIT-RIJ (Revised 2003 algorithm where possible)
Printlevel                                  ...      1
Contraction scheme used                     ... SEGMENTED contraction
Coulomb Range Separation                    ... NOT USED
Exchange Range Separation                   ... Long Range
   Mu parameter                             ...  0.330000
   Scaling (regular/separated)              ...  0.190000  0.460000
Finite Nucleus Model                        ... NOT USED
Auxiliary Coulomb fitting basis             ... AVAILABLE
   # of basis functions in Aux-J            ...    567
   # of shells in Aux-J                     ...    185
   Maximum angular momentum in Aux-J        ...      4
Auxiliary J/K fitting basis                 ... NOT available
Auxiliary Correlation fitting basis         ... NOT available
Auxiliary 'external' fitting basis          ... NOT available
Integral threshold                          ...     2.500000e-11
Primitive cut-off                           ...     2.500000e-12
Primitive pair pre-selection threshold      ...     2.500000e-12

Calculating pre-screening integrals         ... done (  0.1 sec) Dimension = 81
Organizing shell pair data                  ... done (  0.0 sec)
Shell pair information
Total number of shell pairs                 ...      3321
Shell pairs after pre-screening             ...      2849
Total number of primitive shell pairs       ...     12241
Primitive shell pairs kept                  ...      7591
          la=0 lb=0:    830 shell pairs
          la=1 lb=0:   1016 shell pairs
          la=1 lb=1:    333 shell pairs
          la=2 lb=0:    379 shell pairs
          la=2 lb=1:    240 shell pairs
          la=2 lb=2:     51 shell pairs

Calculating one electron integrals          ... done (  0.0 sec)
Calculating RI/J V-Matrix + Cholesky decomp.... done (  0.0 sec)
Calculating Nuclear repulsion               ... done (  0.0 sec) ENN=    510.018949079399 Eh

SHARK setup successfully completed in   0.3 seconds

Maximum memory used throughout the entire GTOINT-calculation: 24.4 MB
-------------------------------------------------------------------------------
                                 ORCA SCF
-------------------------------------------------------------------------------

------------
SCF SETTINGS
------------
Hamiltonian:
 Density Functional     Method          .... DFT(GTOs)
 Exchange Functional    Exchange        .... WB88
 Correlation Functional Correlation     .... LYP
 LDA part of GGA corr.  LDAOpt          .... VWN-5
 Gradients option       PostSCFGGA      .... off
 Hybrid DFT is turned on
   Fraction HF Exchange ScalHFX         ....  0.190000
   Scaling of DF-GGA-X  ScalDFX         ....  0.350000
   Scaling of DF-GGA-C  ScalDFC         ....  0.810000
   Scaling of DF-LDA-C  ScalLDAC        ....  1.000000
   Perturbative correction              ....  0.000000
   Density functional embedding theory  .... OFF
 Long-range corrected/Screened/Range-Separated Hybrid DFT is turned on
   Amount of maximum screened exact exchange              ....  0.460000
   Range separation parameter mu (erf(mu*r12)/r12)        ....  0.330000
 RI-approximation to the Coulomb term is turned on
   Number of AuxJ basis functions       .... 567
   RIJ-COSX (HFX calculated with COS-X)).... on


General Settings:
 Integral files         IntName         .... opt
 Hartree-Fock type      HFTyp           .... RHF
 Total Charge           Charge          ....    1
 Multiplicity           Mult            ....    1
 Number of Electrons    NEL             ....   72
 Basis Dimension        Dim             ....  175
 Nuclear Repulsion      ENuc            ....    510.0189490794 Eh

Convergence Acceleration:
 DIIS                   CNVDIIS         .... on
   Start iteration      DIISMaxIt       ....    12
   Startup error        DIISStart       ....  0.200000
   # of expansion vecs  DIISMaxEq       ....     5
   Bias factor          DIISBfac        ....   1.050
   Max. coefficient     DIISMaxC        ....  10.000
 Trust-Rad. Augm. Hess. CNVTRAH         .... auto
   Auto Start mean grad. ratio tolernc. ....  1.125000
   Auto Start start iteration           ....    20
   Auto Start num. interpolation iter.  ....    10
   Max. Number of Micro iterations      ....    16
   Max. Number of Macro iterations      .... Maxiter - #DIIS iter
   Number of Davidson start vectors     ....     2
   Converg. threshold I  (grad. norm)   ....   1.000e-05
   Converg. threshold II (energy diff.) ....   1.000e-08
   Grad. Scal. Fac. for Micro threshold ....   0.100
   Minimum threshold for Micro iter.    ....   0.010
   NR start threshold (gradient norm)   ....   0.001
   Initial trust radius                 ....   0.400
   Minimum AH scaling param. (alpha)    ....   1.000
   Maximum AH scaling param. (alpha)    .... 1000.000
   Orbital update algorithm             .... Taylor
   White noise on init. David. guess    .... on
   Maximum white noise                  ....   0.010
   Quad. conv. algorithm                .... NR
 SOSCF                  CNVSOSCF        .... on
   Start iteration      SOSCFMaxIt      ....   150
   Startup grad/error   SOSCFStart      ....  0.003300
 Level Shifting         CNVShift        .... on
   Level shift para.    LevelShift      ....    0.2500
   Turn off err/grad.   ShiftErr        ....    0.0010
 Zerner damping         CNVZerner       .... off
 Static damping         CNVDamp         .... on
   Fraction old density DampFac         ....    0.7000
   Max. Damping (<1)    DampMax         ....    0.9800
   Min. Damping (>=0)   DampMin         ....    0.0000
   Turn off err/grad.   DampErr         ....    0.1000
 Fernandez-Rico         CNVRico         .... off

SCF Procedure:
 Maximum # iterations   MaxIter         ....   125
 SCF integral mode      SCFMode         .... Direct
   Integral package                     .... SHARK and LIBINT hybrid scheme
 Reset frequency        DirectResetFreq ....    20
 Integral Threshold     Thresh          ....  2.500e-11 Eh
 Primitive CutOff       TCut            ....  2.500e-12 Eh

Convergence Tolerance:
 Convergence Check Mode ConvCheckMode   .... Total+1el-Energy
 Convergence forced     ConvForced      .... 0
 Energy Change          TolE            ....  1.000e-08 Eh
 1-El. energy change                    ....  1.000e-05 Eh
 Orbital Gradient       TolG            ....  1.000e-05
 Orbital Rotation angle TolX            ....  1.000e-05
 DIIS Error             TolErr          ....  5.000e-07


Diagonalization of the overlap matrix:
Smallest eigenvalue                        ... 2.261e-04
Time for diagonalization                   ...    0.010 sec
Threshold for overlap eigenvalues          ... 1.000e-08
Number of eigenvalues below threshold      ... 0
Time for construction of square roots      ...    0.004 sec
Total time needed                          ...    0.014 sec

Time for model grid setup =    0.578 sec

------------------------------
INITIAL GUESS: MODEL POTENTIAL
------------------------------
Loading Hartree-Fock densities                     ... done
Calculating cut-offs                               ... done
Initializing the effective Hamiltonian             ... done
Setting up the integral package (SHARK)            ... done
Starting the Coulomb interaction                   ... done (   0.4 sec)
Reading the grid                                   ... done
Mapping shells                                     ... done
Starting the XC term evaluation                    ... done (   0.5 sec)
  promolecular density results
     # of electrons  =     72.995590577
     EX              =    -62.095779892
     EC              =     -2.443894406
     EX+EC           =    -64.539674298
Transforming the Hamiltonian                       ... done (   0.0 sec)
Diagonalizing the Hamiltonian                      ... done (   0.0 sec)
Back transforming the eigenvectors                 ... done (   0.0 sec)
Now organizing SCF variables                       ... done
                      ------------------
                      INITIAL GUESS DONE (   1.6 sec)
                      ------------------
-------------------
DFT GRID GENERATION
-------------------

General Integration Accuracy     IntAcc      ... 4.388
Radial Grid Type                 RadialGrid  ... OptM3 with GC (2021)
Angular Grid (max. ang.)         AngularGrid ... 4 (Lebedev-302)
Angular grid pruning method      GridPruning ... 4 (adaptive)
Weight generation scheme         WeightScheme... Becke
Basis function cutoff            BFCut       ... 1.0000e-11
Integration weight cutoff        WCut        ... 1.0000e-14
Angular grids for H and He will be reduced by one unit
Partially contracted basis set               ... off
Rotationally invariant grid construction     ... off

Total number of grid points                  ...    83010
Total number of batches                      ...     1305
Average number of points per batch           ...       63
Average number of grid points per atom       ...     4883
Time for grid setup =    2.073 sec

--------------------
COSX GRID GENERATION
--------------------

GRIDX 1
-------
General Integration Accuracy     IntAcc      ... 3.816
Radial Grid Type                 RadialGrid  ... OptM3 with GC (2021)
Angular Grid (max. ang.)         AngularGrid ... 1 (Lebedev-50)
Angular grid pruning method      GridPruning ... 4 (adaptive)
Weight generation scheme         WeightScheme... Becke
Basis function cutoff            BFCut       ... 1.0000e-11
Integration weight cutoff        WCut        ... 1.0000e-14
Angular grids for H and He will be reduced by one unit
Partially contracted basis set               ... on
Rotationally invariant grid construction     ... off

Total number of grid points                  ...    10602
Total number of batches                      ...      173
Average number of points per batch           ...       61
Average number of grid points per atom       ...      624
UseSFitting                                  ... on

GRIDX 2
-------
General Integration Accuracy     IntAcc      ... 4.020
Radial Grid Type                 RadialGrid  ... OptM3 with GC (2021)
Angular Grid (max. ang.)         AngularGrid ... 2 (Lebedev-110)
Angular grid pruning method      GridPruning ... 4 (adaptive)
Weight generation scheme         WeightScheme... Becke
Basis function cutoff            BFCut       ... 1.0000e-11
Integration weight cutoff        WCut        ... 1.0000e-14
Angular grids for H and He will be reduced by one unit
Partially contracted basis set               ... on
Rotationally invariant grid construction     ... off

Total number of grid points                  ...    23474
Total number of batches                      ...      375
Average number of points per batch           ...       62
Average number of grid points per atom       ...     1381
UseSFitting                                  ... on

GRIDX 3
-------
General Integration Accuracy     IntAcc      ... 4.338
Radial Grid Type                 RadialGrid  ... OptM3 with GC (2021)
Angular Grid (max. ang.)         AngularGrid ... 3 (Lebedev-194)
Angular grid pruning method      GridPruning ... 4 (adaptive)
Weight generation scheme         WeightScheme... Becke
Basis function cutoff            BFCut       ... 1.0000e-11
Integration weight cutoff        WCut        ... 1.0000e-14
Angular grids for H and He will be reduced by one unit
Partially contracted basis set               ... on
Rotationally invariant grid construction     ... off

Total number of grid points                  ...    51633
Total number of batches                      ...      817
Average number of points per batch           ...       63
Average number of grid points per atom       ...     3037
UseSFitting                                  ... on

Time for X-Grid setup             =    1.590 sec

--------------
SCF ITERATIONS
--------------
ITER       Energy         Delta-E        Max-DP      RMS-DP      [F,P]     Damp
               ***  Starting incremental Fock matrix formation  ***
  0   -491.2735881949   0.000000000000 0.20729189  0.00331814  0.2076924 0.7000
  1   -491.5016857634  -0.228097568418 0.13624958  0.00214832  0.0889859 0.7000
                               ***Turning on DIIS***
  2   -491.5031466278  -0.001460864461 0.40233886  0.00470760  0.0390584 0.0000
  3   -491.1455241709   0.357622456872 0.19991982  0.00244790  0.1889564 0.7000
  4   -491.4769133626  -0.331389191616 0.46647958  0.00572688  0.0565711 0.0000
  5   -491.4901157976  -0.013202435057 0.01164764  0.00038043  0.0768254 0.0000
  6   -491.4993936928  -0.009277895139 0.00458511  0.00017127  0.0628891 0.0000
  7   -491.5028971042  -0.003503411420 0.01215638  0.00047038  0.0579878 0.0000
  8   -491.5103874554  -0.007490351256 0.00712937  0.00029081  0.0452630 0.0000
  9   -491.5144023135  -0.004014858107 0.02700451  0.00110301  0.0389924 0.0000
 10   -491.5236677226  -0.009265409096 0.01122069  0.00043197  0.0091689 0.0000
 11   -491.5242510299  -0.000583307242 0.00612121  0.00016047  0.0108816 0.0000
                      *** Initiating the SOSCF procedure ***
                           *** Shutting down DIIS ***
                      *** Re-Reading the Fockian *** 
                      *** Removing any level shift *** 
ITER      Energy       Delta-E        Grad      Rot      Max-DP    RMS-DP
 12   -491.52461512  -0.0003640895  0.000910  0.000910  0.001764  0.000060
               *** Restarting incremental Fock matrix formation ***
 13   -491.52468061  -0.0000654925  0.000678  0.002901  0.001332  0.000065
 14   -491.52468913  -0.0000085231  0.000974  0.003268  0.001158  0.000057
 15   -491.52469723  -0.0000080950  0.000161  0.000718  0.000569  0.000023
 16   -491.52469811  -0.0000008791  0.000039  0.000135  0.000141  0.000005
 17   -491.52469813  -0.0000000243  0.000031  0.000067  0.000061  0.000002
 18   -491.52469817  -0.0000000321  0.000006  0.000030  0.000015  0.000001
 19   -491.52469817  -0.0000000020  0.000008  0.000006  0.000009  0.000000
                  ***Gradient check signals convergence***
              ***Rediagonalizing the Fockian in SOSCF/NRSCF***

               *****************************************************
               *                     SUCCESS                       *
               *           SCF CONVERGED AFTER  20 CYCLES          *
               *****************************************************

Old exchange energy                            =    -17.570318977 Eh
New exchange energy                            =    -17.570263049 Eh
Exchange energy change after final integration =      0.000055929 Eh
Total energy after final integration           =   -491.524642239 Eh
Final COS-X integration done in                =    24.375 sec

----------------
TOTAL SCF ENERGY
----------------

Total Energy       :         -491.52464224 Eh          -13375.06549 eV

Components:
Nuclear Repulsion  :          510.01894908 Eh           13878.32116 eV
Electronic Energy  :        -1001.54359132 Eh          -27253.38666 eV
One Electron Energy:        -1677.20734579 Eh          -45639.13213 eV
Two Electron Energy:          675.66375447 Eh           18385.74547 eV
Max COSX asymmetry :            0.00000387 Eh               0.00011 eV

Virial components:
Potential Energy   :         -978.55000359 Eh          -26627.69932 eV
Kinetic Energy     :          487.02536135 Eh           13252.63383 eV
Virial Ratio       :            2.00923829


DFT components:
N(Alpha)           :       36.000027862783 electrons
N(Beta)            :       36.000027862783 electrons
N(Total)           :       72.000055725566 electrons
E(XC)              :      -47.877895738089 Eh       
DFET-embed. en.    :        0.000000000000 Eh       

---------------
SCF CONVERGENCE
---------------

  Last Energy change         ...    4.6043e-12  Tolerance :   1.0000e-08
  Last MAX-Density change    ...    5.3291e-15  Tolerance :   1.0000e-07
  Last RMS-Density change    ...    5.9282e-17  Tolerance :   5.0000e-09
  Last Orbital Gradient      ...    9.6311e-07  Tolerance :   1.0000e-05
  Last Orbital Rotation      ...    2.9475e-06  Tolerance :   1.0000e-05

             **** THE GBW FILE WAS UPDATED (opt.gbw) ****
             **** DENSITY opt.scfp WAS UPDATED ****
             **** ENERGY FILE WAS UPDATED (opt.en.tmp) ****
             **** THE GBW FILE WAS UPDATED (opt.gbw) ****
             **** DENSITY opt.scfp WAS UPDATED ****
----------------
ORBITAL ENERGIES
----------------

  NO   OCC          E(Eh)            E(eV) 
   0   2.0000     -19.262084      -524.1479 
   1   2.0000     -19.261811      -524.1405 
   2   2.0000     -14.667165      -399.1138 
   3   2.0000     -14.452481      -393.2720 
   4   2.0000     -10.367860      -282.1238 
   5   2.0000     -10.338107      -281.3142 
   6   2.0000     -10.311060      -280.5782 
   7   2.0000     -10.310598      -280.5656 
   8   2.0000     -10.301506      -280.3182 
   9   2.0000     -10.294175      -280.1187 
  10   2.0000      -1.334177       -36.3048 
  11   2.0000      -1.157754       -31.5041 
  12   2.0000      -1.050316       -28.5806 
  13   2.0000      -0.963727       -26.2243 
  14   2.0000      -0.902651       -24.5624 
  15   2.0000      -0.841674       -22.9031 
  16   2.0000      -0.788347       -21.4520 
  17   2.0000      -0.727940       -19.8082 
  18   2.0000      -0.705270       -19.1914 
  19   2.0000      -0.656932       -17.8760 
  20   2.0000      -0.642704       -17.4889 
  21   2.0000      -0.627660       -17.0795 
  22   2.0000      -0.621717       -16.9178 
  23   2.0000      -0.609184       -16.5767 
  24   2.0000      -0.569045       -15.4845 
  25   2.0000      -0.538492       -14.6531 
  26   2.0000      -0.536002       -14.5853 
  27   2.0000      -0.504770       -13.7355 
  28   2.0000      -0.480583       -13.0773 
  29   2.0000      -0.459322       -12.4988 
  30   2.0000      -0.428090       -11.6489 
  31   2.0000      -0.400957       -10.9106 
  32   2.0000      -0.400689       -10.9033 
  33   2.0000      -0.390804       -10.6343 
  34   2.0000      -0.362371        -9.8606 
  35   2.0000      -0.295063        -8.0291 
  36   0.0000      -0.498310       -13.5597 
  37   0.0000      -0.060541        -1.6474 
  38   0.0000       0.012408         0.3376 
  39   0.0000       0.030917         0.8413 
  40   0.0000       0.069641         1.8950 
  41   0.0000       0.083753         2.2790 
  42   0.0000       0.119819         3.2604 
  43   0.0000       0.142484         3.8772 
  44   0.0000       0.155272         4.2252 
  45   0.0000       0.174710         4.7541 
  46   0.0000       0.182666         4.9706 
  47   0.0000       0.182819         4.9748 
  48   0.0000       0.199612         5.4317 
  49   0.0000       0.270913         7.3719 
  50   0.0000       0.285158         7.7596 
  51   0.0000       0.297371         8.0919 
  52   0.0000       0.319196         8.6858 
  53   0.0000       0.329693         8.9714 
  54   0.0000       0.335338         9.1250 
  55   0.0000       0.378670        10.3041 
  56   0.0000       0.412633        11.2283 
  57   0.0000       0.425196        11.5702 
  58   0.0000       0.427190        11.6244 
  59   0.0000       0.474950        12.9241 
  60   0.0000       0.483882        13.1671 
  61   0.0000       0.497158        13.5284 
  62   0.0000       0.504805        13.7364 
  63   0.0000       0.527269        14.3477 
  64   0.0000       0.533814        14.5258 
  65   0.0000       0.552581        15.0365 
  66   0.0000       0.559033        15.2121 
  67   0.0000       0.562622        15.3097 
  68   0.0000       0.587477        15.9861 
  69   0.0000       0.619687        16.8626 
  70   0.0000       0.629546        17.1308 
  71   0.0000       0.648922        17.6581 
  72   0.0000       0.672978        18.3127 
  73   0.0000       0.688792        18.7430 
  74   0.0000       0.716140        19.4872 
  75   0.0000       0.718963        19.5640 
  76   0.0000       0.727489        19.7960 
  77   0.0000       0.744077        20.2474 
  78   0.0000       0.752013        20.4633 
  79   0.0000       0.781367        21.2621 
  80   0.0000       0.782673        21.2976 
  81   0.0000       0.813150        22.1269 
  82   0.0000       0.821603        22.3570 
  83   0.0000       0.850799        23.1514 
  84   0.0000       0.857464        23.3328 
  85   0.0000       0.885047        24.0834 
  86   0.0000       0.925116        25.1737 
  87   0.0000       0.965230        26.2652 
  88   0.0000       0.997715        27.1492 
  89   0.0000       1.005836        27.3702 
  90   0.0000       1.035169        28.1684 
  91   0.0000       1.048517        28.5316 
  92   0.0000       1.049438        28.5567 
  93   0.0000       1.049438        28.5567 
  94   0.0000       1.049440        28.5567 
  95   0.0000       1.051408        28.6103 
  96   0.0000       1.120868        30.5004 
  97   0.0000       1.159837        31.5608 
  98   0.0000       1.215435        33.0737 
  99   0.0000       1.220736        33.2179 
 100   0.0000       1.242762        33.8173 
 101   0.0000       1.265695        34.4413 
 102   0.0000       1.289231        35.0818 
 103   0.0000       1.292535        35.1717 
 104   0.0000       1.292763        35.1779 
 105   0.0000       1.331416        36.2297 
 106   0.0000       1.351371        36.7727 
 107   0.0000       1.375104        37.4185 
 108   0.0000       1.375712        37.4350 
 109   0.0000       1.451061        39.4854 
 110   0.0000       1.464461        39.8500 
 111   0.0000       1.500201        40.8225 
 112   0.0000       1.533910        41.7398 
 113   0.0000       1.608900        43.7804 
 114   0.0000       1.688576        45.9485 
 115   0.0000       1.721725        46.8505 
 116   0.0000       1.722677        46.8764 
 117   0.0000       1.762414        47.9577 
 118   0.0000       1.771151        48.1955 
 119   0.0000       1.773340        48.2550 
 120   0.0000       1.790960        48.7345 
 121   0.0000       1.806813        49.1659 
 122   0.0000       1.822730        49.5990 
 123   0.0000       1.826879        49.7119 
 124   0.0000       1.835506        49.9467 
 125   0.0000       1.848977        50.3132 
 126   0.0000       1.896276        51.6003 
 127   0.0000       1.915991        52.1368 
 128   0.0000       1.941776        52.8384 
 129   0.0000       1.988803        54.1181 
 130   0.0000       2.016602        54.8745 
 131   0.0000       2.044217        55.6260 
 132   0.0000       2.065856        56.2148 
 133   0.0000       2.107458        57.3468 
 134   0.0000       2.157196        58.7003 
 135   0.0000       2.166333        58.9489 
 136   0.0000       2.177097        59.2418 
 137   0.0000       2.230923        60.7065 
 138   0.0000       2.241751        61.0011 
 139   0.0000       2.262976        61.5787 
 140   0.0000       2.324440        63.2512 
 141   0.0000       2.342967        63.7554 
 142   0.0000       2.363782        64.3218 
 143   0.0000       2.383698        64.8637 
 144   0.0000       2.396162        65.2029 
 145   0.0000       2.430948        66.1495 
 146   0.0000       2.455765        66.8248 
 147   0.0000       2.514881        68.4334 
 148   0.0000       2.586966        70.3949 
 149   0.0000       2.589065        70.4520 
 150   0.0000       2.638144        71.7875 
 151   0.0000       2.652502        72.1783 
 152   0.0000       2.678171        72.8768 
 153   0.0000       2.690786        73.2200 
 154   0.0000       2.726324        74.1871 
 155   0.0000       2.756263        75.0017 
 156   0.0000       2.758240        75.0555 
 157   0.0000       2.763660        75.2030 
 158   0.0000       2.780302        75.6559 
 159   0.0000       2.806783        76.3764 
 160   0.0000       2.837359        77.2085 
 161   0.0000       2.897847        78.8544 
 162   0.0000       2.975988        80.9808 
 163   0.0000       3.091551        84.1254 
 164   0.0000       3.097583        84.2895 
 165   0.0000       3.109234        84.6066 
 166   0.0000       3.162692        86.0612 
 167   0.0000       3.280363        89.2632 
 168   0.0000       3.320098        90.3445 
 169   0.0000       3.338704        90.8508 
 170   0.0000       3.446503        93.7841 
 171   0.0000       3.592787        97.7647 
 172   0.0000       3.638767        99.0159 
 173   0.0000       3.824407       104.0674 
 174   0.0000       3.836786       104.4043 

                    ********************************
                    * MULLIKEN POPULATION ANALYSIS *
                    ********************************

-----------------------
MULLIKEN ATOMIC CHARGES
-----------------------
   0 C :   -0.028353
   1 C :   -0.059845
   2 C :    0.054662
   3 C :   -0.010524
   4 C :   -0.040145
   5 C :    0.119636
   6 H :   -0.028486
   7 H :    0.003529
   8 H :   -0.005441
   9 H :    0.008439
  10 H :    1.000000
  11 N :   -0.008882
  12 H :    0.121490
  13 H :    0.146969
  14 N :    0.253504
  15 O :   -0.289008
  16 O :   -0.237544
Sum of atomic charges:    1.0000000

--------------------------------
MULLIKEN REDUCED ORBITAL CHARGES
--------------------------------
  0 C s       :     3.024347  s :     3.024347
      pz      :     0.996293  p :     2.939786
      px      :     1.018361
      py      :     0.925132
      dz2     :     0.010609  d :     0.064220
      dxz     :     0.006489
      dyz     :     0.016270
      dx2y2   :     0.014535
      dxy     :     0.016317
  1 C s       :     3.239530  s :     3.239530
      pz      :     0.955298  p :     2.788812
      px      :     0.941577
      py      :     0.891937
      dz2     :     0.003768  d :     0.031503
      dxz     :     0.004248
      dyz     :     0.007501
      dx2y2   :     0.006823
      dxy     :     0.009162
  2 C s       :     3.153744  s :     3.153744
      pz      :     0.931689  p :     2.754647
      px      :     0.904294
      py      :     0.918664
      dz2     :     0.006639  d :     0.036947
      dxz     :     0.004666
      dyz     :     0.008348
      dx2y2   :     0.007370
      dxy     :     0.009923
  3 C s       :     3.138153  s :     3.138153
      pz      :     0.990674  p :     2.839350
      px      :     0.979815
      py      :     0.868861
      dz2     :     0.005333  d :     0.033022
      dxz     :     0.005545
      dyz     :     0.006365
      dx2y2   :     0.008598
      dxy     :     0.007180
  4 C s       :     3.291139  s :     3.291139
      pz      :     0.873475  p :     2.713261
      px      :     0.850416
      py      :     0.989370
      dz2     :     0.004117  d :     0.035745
      dxz     :     0.005161
      dyz     :     0.008558
      dx2y2   :     0.009952
      dxy     :     0.007957
  5 C s       :     3.009076  s :     3.009076
      pz      :     1.058524  p :     2.827285
      px      :     0.993700
      py      :     0.775061
      dz2     :     0.006196  d :     0.044003
      dxz     :     0.006169
      dyz     :     0.010137
      dx2y2   :     0.007559
      dxy     :     0.013942
  6 H s       :     1.005859  s :     1.005859
      pz      :     0.009358  p :     0.022627
      px      :     0.009323
      py      :     0.003945
  7 H s       :     0.974299  s :     0.974299
      pz      :     0.005160  p :     0.022173
      px      :     0.008414
      py      :     0.008599
  8 H s       :     0.982881  s :     0.982881
      pz      :     0.005129  p :     0.022560
      px      :     0.003754
      py      :     0.013677
  9 H s       :     0.968325  s :     0.968325
      pz      :     0.009294  p :     0.023236
      px      :     0.009784
      py      :     0.004158
 10 H s       :     0.000000  s :     0.000000
      pz      :     0.000000  p :     0.000000
      px      :     0.000000
      py      :     0.000000
 11 N s       :     3.241792  s :     3.241792
      pz      :     1.373340  p :     3.751258
      px      :     1.283585
      py      :     1.094333
      dz2     :     0.001592  d :     0.015832
      dxz     :     0.002419
      dyz     :     0.003822
      dx2y2   :     0.003867
      dxy     :     0.004131
 12 H s       :     0.834465  s :     0.834465
      pz      :     0.017793  p :     0.044045
      px      :     0.017363
      py      :     0.008888
 13 H s       :     0.803229  s :     0.803229
      pz      :     0.014267  p :     0.049803
      px      :     0.020394
      py      :     0.015142
 14 N s       :     3.302064  s :     3.302064
      pz      :     1.115196  p :     3.326678
      px      :     1.133899
      py      :     1.077582
      dz2     :     0.021533  d :     0.117753
      dxz     :     0.012393
      dyz     :     0.028614
      dx2y2   :     0.024643
      dxy     :     0.030571
 15 O s       :     3.842416  s :     3.842416
      pz      :     1.572282  p :     4.425527
      px      :     1.695995
      py      :     1.157251
      dz2     :     0.002651  d :     0.021064
      dxz     :     0.000481
      dyz     :     0.006150
      dx2y2   :     0.007233
      dxy     :     0.004550
 16 O s       :     3.841580  s :     3.841580
      pz      :     1.292694  p :     4.372825
      px      :     1.367623
      py      :     1.712509
      dz2     :     0.005586  d :     0.023138
      dxz     :     0.006867
      dyz     :     0.003613
      dx2y2   :     0.003143
      dxy     :     0.003930


                     *******************************
                     * LOEWDIN POPULATION ANALYSIS *
                     *******************************

----------------------
LOEWDIN ATOMIC CHARGES
----------------------
   0 C :    0.055739
   1 C :   -0.075101
   2 C :    0.009690
   3 C :   -0.070268
   4 C :    0.005382
   5 C :   -0.084970
   6 H :    0.028548
   7 H :    0.036918
   8 H :    0.029468
   9 H :    0.041947
  10 H :    1.000000
  11 N :    0.014188
  12 H :    0.083677
  13 H :    0.069568
  14 N :    0.290972
  15 O :   -0.232967
  16 O :   -0.202792

-------------------------------
LOEWDIN REDUCED ORBITAL CHARGES
-------------------------------
  0 C s       :     2.835766  s :     2.835766
      pz      :     0.964260  p :     2.957648
      px      :     1.000882
      py      :     0.992506
      dz2     :     0.023116  d :     0.150848
      dxz     :     0.016226
      dyz     :     0.037609
      dx2y2   :     0.035441
      dxy     :     0.038456
  1 C s       :     2.856836  s :     2.856836
      pz      :     1.047852  p :     3.134476
      px      :     1.034376
      py      :     1.052248
      dz2     :     0.009072  d :     0.083789
      dxz     :     0.010129
      dyz     :     0.019708
      dx2y2   :     0.019911
      dxy     :     0.024970
  2 C s       :     2.859872  s :     2.859872
      pz      :     0.982435  p :     3.036906
      px      :     0.996461
      py      :     1.058011
      dz2     :     0.015092  d :     0.093532
      dxz     :     0.012061
      dyz     :     0.021266
      dx2y2   :     0.020099
      dxy     :     0.025014
  3 C s       :     2.855640  s :     2.855640
      pz      :     1.044671  p :     3.128739
      px      :     1.046694
      py      :     1.037375
      dz2     :     0.012224  d :     0.085888
      dxz     :     0.015651
      dyz     :     0.016170
      dx2y2   :     0.022349
      dxy     :     0.019495
  4 C s       :     2.861436  s :     2.861436
      pz      :     0.981410  p :     3.041331
      px      :     1.005246
      py      :     1.054675
      dz2     :     0.009714  d :     0.091851
      dxz     :     0.012036
      dyz     :     0.021703
      dx2y2   :     0.026370
      dxy     :     0.022029
  5 C s       :     2.857325  s :     2.857325
      pz      :     1.084894  p :     3.113877
      px      :     1.016964
      py      :     1.012019
      dz2     :     0.014316  d :     0.113768
      dxz     :     0.016378
      dyz     :     0.025865
      dx2y2   :     0.022141
      dxy     :     0.035068
  6 H s       :     0.903503  s :     0.903503
      pz      :     0.027718  p :     0.067949
      px      :     0.027660
      py      :     0.012571
  7 H s       :     0.897607  s :     0.897607
      pz      :     0.015969  p :     0.065475
      px      :     0.024746
      py      :     0.024761
  8 H s       :     0.903006  s :     0.903006
      pz      :     0.016385  p :     0.067526
      px      :     0.012617
      py      :     0.038524
  9 H s       :     0.886911  s :     0.886911
      pz      :     0.027874  p :     0.071141
      px      :     0.029543
      py      :     0.013724
 10 H s       :     0.000000  s :     0.000000
      pz      :     0.000000  p :     0.000000
      px      :     0.000000
      py      :     0.000000
 11 N s       :     3.012806  s :     3.012806
      pz      :     1.401788  p :     3.929895
      px      :     1.345701
      py      :     1.182406
      dz2     :     0.004142  d :     0.043111
      dxz     :     0.005719
      dyz     :     0.010358
      dx2y2   :     0.011051
      dxy     :     0.011840
 12 H s       :     0.795798  s :     0.795798
      pz      :     0.050852  p :     0.120525
      px      :     0.049198
      py      :     0.020475
 13 H s       :     0.782961  s :     0.782961
      pz      :     0.045170  p :     0.147471
      px      :     0.063524
      py      :     0.038777
 14 N s       :     3.048451  s :     3.048451
      pz      :     1.127308  p :     3.415552
      px      :     1.147493
      py      :     1.140750
      dz2     :     0.039606  d :     0.245025
      dxz     :     0.027901
      dyz     :     0.061446
      dx2y2   :     0.053523
      dxy     :     0.062549
 15 O s       :     3.604469  s :     3.604469
      pz      :     1.583951  p :     4.587980
      px      :     1.687064
      py      :     1.316966
      dz2     :     0.005357  d :     0.040518
      dxz     :     0.000801
      dyz     :     0.011059
      dx2y2   :     0.016618
      dxy     :     0.006683
 16 O s       :     3.604769  s :     3.604769
      pz      :     1.377009  p :     4.553879
      px      :     1.446029
      py      :     1.730841
      dz2     :     0.007960  d :     0.044143
      dxz     :     0.016108
      dyz     :     0.007193
      dx2y2   :     0.005549
      dxy     :     0.007334


                      *****************************
                      * MAYER POPULATION ANALYSIS *
                      *****************************

  NA   - Mulliken gross atomic population
  ZA   - Total nuclear charge
  QA   - Mulliken gross atomic charge
  VA   - Mayer's total valence
  BVA  - Mayer's bonded valence
  FA   - Mayer's free valence

  ATOM       NA         ZA         QA         VA         BVA        FA
  0 C      6.0284     6.0000    -0.0284     4.1548     4.1548     0.0000
  1 C      6.0598     6.0000    -0.0598     3.8220     3.8220    -0.0000
  2 C      5.9453     6.0000     0.0547     3.8250     3.8250     0.0000
  3 C      6.0105     6.0000    -0.0105     3.7862     3.7862    -0.0000
  4 C      6.0401     6.0000    -0.0401     3.8890     3.8890    -0.0000
  5 C      5.8804     6.0000     0.1196     3.7228     3.7228     0.0000
  6 H      1.0285     1.0000    -0.0285     0.9914     0.9914     0.0000
  7 H      0.9965     1.0000     0.0035     0.9798     0.9798     0.0000
  8 H      1.0054     1.0000    -0.0054     0.9834     0.9834    -0.0000
  9 H      0.9916     1.0000     0.0084     1.0203     1.0203    -0.0000
 10 H      0.0000     1.0000     1.0000     0.0000     0.0000    -0.0000
 11 N      7.0089     7.0000    -0.0089     3.3089     3.3089    -0.0000
 12 H      0.8785     1.0000     0.1215     0.9980     0.9980    -0.0000
 13 H      0.8530     1.0000     0.1470     1.0444     1.0444    -0.0000
 14 N      6.7465     7.0000     0.2535     3.9889     3.9889     0.0000
 15 O      8.2890     8.0000    -0.2890     1.9078     1.9078     0.0000
 16 O      8.2375     8.0000    -0.2375     1.9853     1.9853     0.0000

  Mayer bond orders larger than 0.100000
B(  0-C ,  1-C ) :   1.2665 B(  0-C ,  5-C ) :   1.2514 B(  0-C , 11-N ) :   1.4140 
B(  1-C ,  2-C ) :   1.4485 B(  1-C ,  6-H ) :   0.9880 B(  2-C ,  3-C ) :   1.3072 
B(  2-C ,  7-H ) :   0.9864 B(  3-C ,  4-C ) :   1.3938 B(  3-C ,  8-H ) :   0.9870 
B(  4-C ,  5-C ) :   1.3723 B(  4-C ,  9-H ) :   0.9807 B(  5-C , 14-N ) :   0.9017 
B( 11-N , 12-H ) :   0.9268 B( 11-N , 13-H ) :   0.8912 B( 14-N , 15-O ) :   1.4606 
B( 14-N , 16-O ) :   1.5854 B( 15-O , 16-O ) :   0.2419 

-------
TIMINGS
-------

Total SCF time: 0 days 0 hours 3 min 24 sec 

Total time                  ....     204.695 sec
Sum of individual times     ....     203.986 sec  ( 99.7%)

Fock matrix formation       ....     198.356 sec  ( 96.9%)
  Split-RI-J                ....      11.616 sec  (  5.9% of F)
  Chain of spheres X        ....     162.725 sec  ( 82.0% of F)
  XC integration            ....      24.015 sec  ( 12.1% of F)
    Basis function eval.    ....       7.725 sec  ( 32.2% of XC)
    Density eval.           ....       5.640 sec  ( 23.5% of XC)
    XC-Functional eval.     ....       5.159 sec  ( 21.5% of XC)
    XC-Potential eval.      ....       4.195 sec  ( 17.5% of XC)
Diagonalization             ....       0.102 sec  (  0.0%)
Density matrix formation    ....       0.020 sec  (  0.0%)
Population analysis         ....       0.033 sec  (  0.0%)
Initial guess               ....       0.975 sec  (  0.5%)
Orbital Transformation      ....       0.000 sec  (  0.0%)
Orbital Orthonormalization  ....       0.000 sec  (  0.0%)
DIIS solution               ....       0.203 sec  (  0.1%)
SOSCF solution              ....       0.056 sec  (  0.0%)
Grid generation             ....       4.241 sec  (  2.1%)

Maximum memory used throughout the entire SCF-calculation: 74.2 MB


-------------------------------------------------------------------------------
                          DFT DISPERSION CORRECTION                            
                                                                               
                                 DFTD4 V2.5                                    
-------------------------------------------------------------------------------
The CAM-B3LYP functional is recognized
Active option DFTDOPT                   ...         5   

Starting D4
-------------------------   ----------------
Dispersion correction           -0.014063127
-------------------------   ----------------


-------------------------   --------------------
FINAL SINGLE POINT ENERGY      -491.538705365949
-------------------------   --------------------

------------------------------------------------------------------------------
                         ORCA SCF GRADIENT CALCULATION
------------------------------------------------------------------------------

 ... reading COSX grid (gridx3)
Gradient of the Kohn-Sham DFT energy:
Kohn-Sham wavefunction type      ... RKS
Hartree-Fock exchange scaling    ...    0.190
Number of operators              ...    1
Number of atoms                  ...   17
Basis set dimensions             ...  175
Integral neglect threshold       ... 2.5e-11
Integral primitive cutoff        ... 2.5e-12
SHARK Integral package           ... ON

Nuc. rep. gradient       (SHARK) ... done (  0.0 sec)
HCore & Overlap gradient (SHARK) ... done (  0.3 sec)
RI-J gradient            (SHARK) ... done (  1.7 sec)
COSX-gradient                    ... done ( 27.7 sec)
Exchange-correlation gradient    ... done
Dispersion correction            ... Starting D4


------------------- 
Dispersion Gradient 
------------------- 
   1  :   -0.000094481    0.000083324   -0.000105404
   2  :   -0.000203195   -0.000060418   -0.000157972
   3  :   -0.000160357   -0.000238370   -0.000070039
   4  :   -0.000070035   -0.000308866    0.000028090
   5  :    0.000072824   -0.000223225    0.000126768
   6  :    0.000088519    0.000046753    0.000062954
   7  :   -0.000072332    0.000007090   -0.000064406
   8  :   -0.000052414   -0.000061528   -0.000027568
   9  :   -0.000004666   -0.000085728    0.000020585
  10  :    0.000061607   -0.000051403    0.000067913
  11  :   -0.000000143    0.000000026   -0.000000218
  12  :   -0.000104620    0.000232522   -0.000157028
  13  :   -0.000111088    0.000093560   -0.000122542
  14  :    0.000069605    0.000149103    0.000017288
  15  :    0.000225224    0.000155708    0.000149724
  16  :    0.000142109    0.000214687    0.000060869
  17  :    0.000213443    0.000046766    0.000170985

  |G| =    0.000907214

done

------------------
CARTESIAN GRADIENT
------------------

   1   C   :   -0.000903373    0.023157379   -0.007369850
   2   C   :   -0.012012526   -0.008390254   -0.007980346
   3   C   :   -0.009335311   -0.002519766   -0.007311628
   4   C   :   -0.009603659   -0.009595996   -0.005566569
   5   C   :    0.015035566    0.024669812    0.005922384
   6   C   :    0.007402072   -0.017714961    0.011470979
   7   H   :   -0.000713804   -0.000575733   -0.000422497
   8   H   :   -0.000078198   -0.000055856   -0.000038955
   9   H   :   -0.000120998   -0.000971425    0.000181360
  10   H   :    0.001001599   -0.000169981    0.000934238
  11   H   :    0.000014553   -0.000022492    0.000044073
  12   N   :   -0.001562568   -0.024311630    0.005565163
  13   H   :   -0.004159076    0.002660549   -0.004292366
  14   H   :    0.007137631    0.005842963    0.004546241
  15   N   :    0.015470397    0.008240655    0.011106963
  16   O   :   -0.006463874    0.006539913   -0.007512145
  17   O   :   -0.001279051   -0.006682919    0.000776234

Difference to translation invariance:
           :   -0.0001706208    0.0001002580    0.0000532779

Difference to rotation invariance:
           :    0.0005597634    0.0002952809   -0.0000572766

Norm of the cartesian gradient     ...    0.0632251088
RMS gradient                       ...    0.0088532861
MAX gradient                       ...    0.0246698118

-------
TIMINGS
-------

Total SCF gradient time            ...       37.334 sec

One electron gradient       ....       0.257 sec  (  0.7%)
RI-J Coulomb gradient       ....       1.686 sec  (  4.5%)
COSX gradient               ....      27.728 sec  ( 74.3%)
XC gradient                 ....       6.846 sec  ( 18.3%)

Maximum memory used throughout the entire SCFGRAD-calculation: 59.7 MB
------------------------------------------------------------------------------
                         ORCA GEOMETRY RELAXATION STEP
------------------------------------------------------------------------------

Reading the OPT-File                    .... done
Getting information on internals        .... done
Copying old internal coords+grads       .... done
Making the new internal coordinates     .... (new redundants).... done
Validating the new internal coordinates .... (new redundants).... done
Calculating the B-matrix                .... done
Calculating the G,G- and P matrices     .... done
Transforming gradient to internals      .... done
Projecting the internal gradient        .... done
Number of atoms                         ....  17
Number of internal coordinates          ....  83
Current Energy                          ....  -491.538705366 Eh
Current gradient norm                   ....     0.063225109 Eh/bohr
Maximum allowed component of the step   ....  0.300
Current trust radius                    ....  0.300
Evaluating the initial hessian          ....  (Almloef) done
Projecting the Hessian                  .... done
Forming the augmented Hessian           .... done
Diagonalizing the augmented Hessian     .... done
Last element of RFO vector              ....  0.995339501
Lowest eigenvalues of augmented Hessian:
 -0.004774789  0.000001643  0.013965547  0.019193205  0.020670293
Length of the computed step             ....  0.096884289
The final length of the internal step   ....  0.096884289
Converting the step to cartesian space:
 Initial RMS(Int)=    0.0106344322
Transforming coordinates:
 Iter   0:  RMS(Cart)=    0.0225197453 RMS(Int)=    1.6890333521
 Iter   1:  RMS(Cart)=    0.0001705477 RMS(Int)=    0.0001019473
 Iter   2:  RMS(Cart)=    0.0000027629 RMS(Int)=    0.0000015397
 Iter   3:  RMS(Cart)=    0.0000000590 RMS(Int)=    0.0000000473
done
Storing new coordinates                 .... done

                                .--------------------.
          ----------------------|Geometry convergence|-------------------------
          Item                value                   Tolerance       Converged
          ---------------------------------------------------------------------
          RMS gradient        0.0055424968            0.0001000000      NO
          MAX gradient        0.0253692195            0.0003000000      NO
          RMS step            0.0106344322            0.0020000000      NO
          MAX step            0.0428395357            0.0040000000      NO
          ........................................................
          Max(Bonds)      0.0227      Max(Angles)    1.42
          Max(Dihed)        0.20      Max(Improp)    0.00
          ---------------------------------------------------------------------

The optimization has not yet converged - more geometry cycles are needed


    ---------------------------------------------------------------------------
                         Redundant Internal Coordinates
                            (Angstroem and degrees)

        Definition                    Value    dE/dq     Step     New-Value
    ----------------------------------------------------------------------------
     1. B(C   1,C   0)                1.4380  0.017680 -0.0177    1.4203   
     2. B(C   2,C   1)                1.3784 -0.000666  0.0004    1.3788   
     3. B(C   3,C   2)                1.4099  0.009480 -0.0088    1.4012   
     4. B(C   4,C   3)                1.4064  0.025369 -0.0227    1.3837   
     5. B(C   5,C   4)                1.3828 -0.011916  0.0100    1.3927   
     6. B(C   5,C   0)                1.4435  0.015544 -0.0157    1.4279   
     7. B(H   6,C   1)                1.0926  0.000596 -0.0009    1.0918   
     8. B(H   7,C   2)                1.0920  0.000101 -0.0001    1.0918   
     9. B(H   8,C   3)                1.0919  0.000980 -0.0014    1.0904   
    10. B(H   9,C   4)                1.0905  0.001607 -0.0020    1.0884   
    11. B(H  10,H   9)               18.8566  0.000242 -0.0041   18.8526   
    12. B(N  11,C   0)                1.3311 -0.016909  0.0128    1.3439   
    13. B(H  12,N  11)                1.0159  0.006465 -0.0080    1.0080   
    14. B(H  13,N  11)                1.0260  0.010214 -0.0131    1.0129   
    15. B(N  14,C   5)                1.4748  0.011856 -0.0153    1.4595   
    16. B(O  15,N  14)                1.2305  0.008662 -0.0051    1.2254   
    17. B(O  16,H  10)               18.4951 -0.000186 -0.0022   18.4929   
    18. B(O  16,N  14)                1.2099  0.001985 -0.0012    1.2087   
    19. A(C   1,C   0,C   5)          117.26  0.007278   -0.96    116.30   
    20. A(C   5,C   0,N  11)          122.86 -0.006550    0.87    123.73   
    21. A(C   1,C   0,N  11)          119.87 -0.000728    0.09    119.97   
    22. A(C   0,C   1,C   2)          121.15 -0.003339    0.46    121.61   
    23. A(C   2,C   1,H   6)          120.71  0.000831   -0.09    120.62   
    24. A(C   0,C   1,H   6)          118.14  0.002507   -0.37    117.77   
    25. A(C   3,C   2,H   7)          119.97  0.002222   -0.29    119.68   
    26. A(C   1,C   2,C   3)          120.28 -0.004425    0.57    120.85   
    27. A(C   1,C   2,H   7)          119.75  0.002203   -0.28    119.47   
    28. A(C   2,C   3,C   4)          120.14  0.006277   -0.92    119.22   
    29. A(C   2,C   3,H   8)          120.30 -0.003346    0.49    120.80   
    30. A(C   4,C   3,H   8)          119.56 -0.002931    0.43    119.98   
    31. A(C   5,C   4,H   9)          118.27  0.000467   -0.01    118.25   
    32. A(C   3,C   4,C   5)          120.39 -0.001761    0.25    120.64   
    33. A(C   3,C   4,H   9)          121.34  0.001294   -0.23    121.11   
    34. A(C   0,C   5,C   4)          120.78 -0.004031    0.60    121.38   
    35. A(C   4,C   5,N  14)          117.62  0.004267   -0.61    117.01   
    36. A(C   0,C   5,N  14)          121.60 -0.000236    0.01    121.61   
    37. A(C   4,H   9,H  10)          162.50  0.000104    0.07    162.58   
    38. A(H   9,H  10,O  16)            7.04  0.000164   -0.04      6.99   
    39. A(H  12,N  11,H  13)          121.63  0.000179   -0.03    121.59   
    40. A(C   0,N  11,H  13)          117.64 -0.002185    0.34    117.98   
    41. A(C   0,N  11,H  12)          120.74  0.002006   -0.31    120.43   
    42. A(O  15,N  14,O  16)          124.74  0.011832   -1.42    123.33   
    43. A(C   5,N  14,O  16)          117.64 -0.004808    0.53    118.17   
    44. A(C   5,N  14,O  15)          117.62 -0.007024    0.89    118.51   
    45. A(H  10,O  16,N  14)          162.54  0.000189   -0.10    162.44   
    46. D(C   2,C   1,C   0,C   5)     -0.02  0.000006   -0.03     -0.05   
    47. D(C   2,C   1,C   0,N  11)    179.99  0.000017   -0.06    179.94   
    48. D(H   6,C   1,C   0,C   5)    179.99 -0.000008    0.01    180.00   
    49. D(H   6,C   1,C   0,N  11)      0.00  0.000002   -0.01     -0.01   
    50. D(C   3,C   2,C   1,H   6)   -179.98  0.000007   -0.02   -180.00   
    51. D(H   7,C   2,C   1,C   0)   -179.99 -0.000009    0.03   -179.96   
    52. D(C   3,C   2,C   1,C   0)      0.03 -0.000008    0.02      0.05   
    53. D(H   7,C   2,C   1,H   6)      0.00  0.000006   -0.02     -0.01   
    54. D(H   8,C   3,C   2,H   7)     -0.00  0.000003   -0.01     -0.01   
    55. D(H   8,C   3,C   2,C   1)    179.98  0.000002   -0.00    179.98   
    56. D(C   4,C   3,C   2,H   7)    179.98  0.000008   -0.01    179.98   
    57. D(C   4,C   3,C   2,C   1)     -0.03  0.000006   -0.00     -0.03   
    58. D(H   9,C   4,C   3,C   2)   -179.99  0.000014   -0.03   -180.02   
    59. D(C   5,C   4,C   3,H   8)   -179.99 -0.000004   -0.01   -180.00   
    60. D(C   5,C   4,C   3,C   2)      0.02 -0.000008   -0.01      0.01   
    61. D(H   9,C   4,C   3,H   8)     -0.00  0.000019   -0.02     -0.03   
[...]
     32       0.000240   0.000165   0.000244   0.000183  -0.000136   0.000159
     33      -0.021636  -0.020666   0.020670   0.036269   0.007083   0.002483
     34      -0.099219   0.068282   0.065859   0.007854   0.030064  -0.178504
     35       0.009359  -0.036757  -0.000399   0.029072  -0.002360   0.052291
     36      -0.078612   0.090893  -0.178987   0.085543  -0.198074   0.267376
     37      -0.282607   0.410153  -0.491693   0.158722  -0.566918   0.570194
     38       0.012376  -0.035966  -0.017468   0.026707  -0.009978   0.066392
     39       0.189900  -0.048952   0.085425  -0.182157   0.233840  -0.308265
     40      -0.396742   0.124868   0.023437   0.346093  -0.305925   0.281357
     41       0.271494  -0.079351   0.068759  -0.253543   0.289310  -0.348996
     42      -0.059649  -0.033027  -0.240753  -0.058357   0.080256  -0.015687
     43      -0.095858  -0.026476  -0.291912   0.007508   0.041623   0.024242
     44      -0.024852  -0.021167  -0.126330  -0.052818   0.057863  -0.020391
     45       0.005961   0.002490   0.035418  -0.001005  -0.006416  -0.000231
     46       0.093830   0.037557   0.263940  -0.018736  -0.047924  -0.012970
     47      -0.021288  -0.008433  -0.043795   0.004421   0.007927   0.003467
     48       0.061463   0.034489   0.129483   0.041477  -0.059310   0.010000
     49      -0.017945  -0.008064  -0.039639  -0.014123   0.019418  -0.005649
     50       0.058394   0.032171   0.123446   0.039957  -0.056870   0.010249
                 42         43         44         45         46         47    
      0       0.247069  -0.018383   0.013820  -0.001568   0.001167   0.000429
      1      -0.052786  -0.158718  -0.296626  -0.002522   0.002108   0.000373
      2       0.226970   0.028151   0.094530  -0.000643   0.000415   0.000264
      3      -0.111991   0.048077   0.048161   0.049708  -0.032076  -0.005997
      4      -0.046356   0.242222   0.290530  -0.019979   0.017390   0.004878
      5      -0.083344  -0.025985  -0.039343   0.048282  -0.032406  -0.006513
      6       0.138979   0.011956   0.045446  -0.030460  -0.042485  -0.024281
      7      -0.045435  -0.190885  -0.218870  -0.027377  -0.046291  -0.021405
      8       0.132112   0.063288   0.099851  -0.018578  -0.023664  -0.014930
      9      -0.267719   0.099980   0.023669   0.000558   0.001238   0.003725
     10      -0.101230   0.121188   0.113901   0.009819   0.030739  -0.075601
     11      -0.201867   0.052227  -0.011259  -0.002243  -0.007456   0.024160
     12       0.164052  -0.106762  -0.053756   0.001412   0.002346  -0.010110
     13       0.131031  -0.193994  -0.243878  -0.000603  -0.002094   0.007641
     14       0.104496  -0.037860   0.021437   0.001376   0.002590  -0.010789
     15      -0.157300   0.017353  -0.074685   0.000111   0.000290  -0.000033
     16       0.076823   0.097316   0.277188   0.000406  -0.000237  -0.000068
     17      -0.156623  -0.011998  -0.141358  -0.000016   0.000316  -0.000009
     18      -0.069384  -0.140634  -0.174874  -0.569509   0.364395   0.069212
     19       0.091735  -0.221735  -0.279757   0.242798  -0.158850  -0.031916
     20      -0.085283  -0.059175  -0.072546  -0.557093   0.357411   0.068370
     21       0.024430  -0.164868  -0.156574   0.349971   0.491907   0.250631
     22       0.199099   0.090771   0.115258   0.343223   0.489830   0.244328
     23      -0.034465  -0.166943  -0.166677   0.205531   0.286816   0.147598
     24       0.281992  -0.147496  -0.022123   0.003051   0.009067  -0.028600
     25       0.038375   0.074651   0.121478  -0.119795  -0.357521   0.851313
     26       0.231317  -0.147482  -0.052797   0.035823   0.106871  -0.260476
     27       0.055121   0.014474   0.128392  -0.019805  -0.036636   0.144361
     28      -0.234986   0.187388   0.228544   0.007814   0.014736  -0.058447
     29       0.112854  -0.039621   0.046983  -0.019149  -0.035504   0.139993
     30      -0.000070   0.000123  -0.000266  -0.000001   0.000001  -0.000001
     31       0.000014  -0.000036  -0.000104  -0.000002   0.000001  -0.000003
     32      -0.000186   0.000264  -0.000498  -0.000001   0.000004  -0.000004
     33      -0.047617  -0.010680  -0.002885   0.000214  -0.000136  -0.000056
     34       0.073051   0.091584   0.086855   0.000309  -0.000319  -0.000030
     35      -0.061650  -0.035096  -0.026968   0.000094  -0.000030  -0.000036
     36      -0.093263  -0.155112  -0.020763   0.001430   0.000389  -0.000591
     37      -0.064770  -0.328254   0.037265   0.003701  -0.002783  -0.000004
     38      -0.057686  -0.038392  -0.026579   0.000191   0.001138  -0.000517
     39       0.231991   0.221153  -0.007079  -0.002866   0.000155   0.000596
     40      -0.369975  -0.298220   0.104414  -0.001121  -0.001539   0.000381
     41       0.304480   0.277775  -0.033828  -0.002116   0.000573   0.000394
     42      -0.057261  -0.150601   0.181908  -0.000086   0.000114  -0.000171
     43       0.015542   0.275194  -0.336017  -0.000290   0.000114   0.000212
     44      -0.054142  -0.208116   0.252176   0.000007   0.000066  -0.000208
     45       0.000010   0.003559  -0.012966  -0.000008   0.000001   0.000008
     46      -0.005342  -0.154213   0.162417   0.000106  -0.000071  -0.000053
     47       0.001559   0.046583  -0.057003  -0.000037   0.000021   0.000023
     48       0.054840   0.121897  -0.129802   0.000039  -0.000039  -0.000027
     49      -0.022275  -0.073469   0.093488   0.000069   0.000053  -0.000269
     50       0.053814   0.126367  -0.138801   0.000015  -0.000048   0.000051
                 48         49         50    
      0      -0.000248   0.000208  -0.000261
      1       0.000121  -0.000184  -0.001452
      2      -0.000251   0.000275   0.000171
      3      -0.001184   0.000856   0.000330
      4       0.000711   0.002174   0.000376
      5      -0.001214   0.000128   0.000184
      6      -0.002278   0.000232   0.000121
      7      -0.001066  -0.001112  -0.000161
      8      -0.001664   0.000506   0.000150
      9      -0.002655  -0.000704  -0.000184
     10      -0.020721   0.000266  -0.000087
     11       0.003465  -0.000680  -0.000134
     12       0.060175   0.000293  -0.000055
     13      -0.022055   0.000570   0.000290
     14       0.057716   0.000093  -0.000127
     15      -0.000019  -0.001499   0.000027
     16       0.003160  -0.000463  -0.000731
     17      -0.000896  -0.001170   0.000220
     18       0.011608  -0.001920  -0.000985
     19      -0.005242  -0.000759   0.001478
     20       0.011435  -0.001415  -0.001286
     21       0.016724   0.001225   0.000059
     22       0.015524   0.001056   0.000181
     23       0.010064   0.000763  -0.000000
     24      -0.004223  -0.000078  -0.000124
     25       0.202630  -0.001445   0.000038
     26      -0.059776   0.000340  -0.000120
     27      -0.675415   0.000243   0.000776
     28       0.258446   0.000432   0.000348
     29      -0.650800   0.000097   0.000573
     30       0.000003   0.000004  -0.000008
     31      -0.000002   0.000015   0.000012
     32       0.000013   0.000004  -0.000015
     33      -0.000033  -0.010376  -0.066153
     34      -0.000046  -0.053221  -0.010879
     35      -0.000016   0.006699  -0.054035
     36       0.000389  -0.377736   0.584314
     37      -0.000349   0.147234  -0.203791
     38       0.000440  -0.370538   0.566553
     39       0.000441   0.527474   0.337410
     40       0.000751   0.579345   0.377200
     41       0.000161   0.285383   0.180310
     42       0.000820   0.001215   0.000300
     43      -0.000700   0.003083   0.001339
     44       0.000905   0.000183  -0.000116
     45      -0.000134  -0.000905  -0.000507
     46      -0.000065  -0.002135  -0.000993
     47      -0.000097  -0.000181  -0.000157
     48       0.000046  -0.000015   0.000123
     49       0.000911  -0.000643  -0.000385
     50      -0.000214   0.000170   0.000215


-----------
IR SPECTRUM
-----------

 Mode   freq       eps      Int      T**2         TX        TY        TZ
       cm**-1   L/(mol*cm) km/mol    a.u.
----------------------------------------------------------------------------
  7:      7.89   0.098195  496.24  3.885121  (-0.372319  1.665510  0.986192)
  8:      9.06   0.110084  556.32  3.791165  (-1.721395 -0.899972  0.134224)
  9:     68.24   0.000065    0.33  0.000300  ( 0.014730 -0.002976 -0.008583)
 10:    137.79   0.000121    0.61  0.000274  (-0.010521  0.004002  0.012124)
 11:    248.00   0.001696    8.57  0.002134  ( 0.029750 -0.010324 -0.033801)
 12:    306.21   0.002879   14.55  0.002934  ( 0.027431  0.008328 -0.045963)
 13:    308.07   0.030646  154.87  0.031043  (-0.115082  0.045397  0.125451)
 14:    395.52   0.000713    3.60  0.000563  ( 0.018051 -0.002287  0.015218)
 15:    414.46   0.000424    2.14  0.000319  (-0.008761  0.011593 -0.010388)
 16:    449.61   0.000190    0.96  0.000132  ( 0.007344 -0.002783 -0.008387)
 17:    557.35   0.002874   14.52  0.001609  (-0.023694  0.010094  0.030755)
 18:    558.20   0.000567    2.87  0.000317  ( 0.015281  0.008862  0.002228)
 19:    576.73   0.000282    1.42  0.000153  ( 0.005529 -0.008492  0.007059)
 20:    618.57   0.003219   16.27  0.001624  ( 0.025289 -0.009026 -0.030046)
 21:    696.78   0.001657    8.37  0.000742  ( 0.017453  0.018201  0.010299)
 22:    733.89   0.002831   14.31  0.001204  (-0.022265  0.007146  0.025632)
 23:    781.14   0.009125   46.11  0.003646  (-0.038540  0.012556  0.044750)
 24:    803.92   0.000651    3.29  0.000253  (-0.010095  0.003411  0.011801)
 25:    858.32   0.000625    3.16  0.000227  ( 0.011209 -0.000624  0.010054)
 26:    889.48   0.000613    3.10  0.000215  ( 0.009484 -0.002923 -0.010795)
 27:    908.71   0.006108   30.87  0.002098  (-0.029611 -0.030512 -0.017025)
 28:   1015.67   0.000137    0.69  0.000042  (-0.004064  0.001550  0.004800)
 29:   1034.01   0.001745    8.82  0.000527  ( 0.008236 -0.017713  0.012047)
 30:   1039.93   0.000030    0.15  0.000009  ( 0.002007 -0.000639 -0.002121)
 31:   1083.62   0.001161    5.87  0.000334  ( 0.002712  0.017875 -0.002747)
 32:   1127.75   0.009874   49.90  0.002732  ( 0.038197  0.024153  0.026268)
 33:   1183.15   0.003659   18.49  0.000965  ( 0.020169 -0.011603  0.020585)
 34:   1185.39   0.006422   32.45  0.001691  (-0.027926  0.012388 -0.027519)
 35:   1306.82   0.002343   11.84  0.000559  (-0.017869 -0.008439 -0.012998)
 36:   1341.62   0.022882  115.64  0.005322  (-0.056181 -0.012318 -0.044881)
 37:   1412.02   0.010271   51.91  0.002270  (-0.036640 -0.007821 -0.029433)
 38:   1457.52   0.045247  228.66  0.009688  (-0.061710 -0.068778 -0.033897)
 39:   1509.05   0.012844   64.91  0.002656  (-0.039133 -0.001565 -0.033500)
 40:   1535.51   0.011770   59.48  0.002392  ( 0.036442  0.019235  0.026342)
 41:   1604.59   0.046678  235.89  0.009078  (-0.017775  0.084948 -0.039319)
 42:   1658.90   0.011709   59.17  0.002203  ( 0.029739 -0.019075  0.030893)
 43:   1699.23   0.010242   51.76  0.001881  (-0.033074 -0.012062 -0.025328)
 44:   1744.24   0.073513  371.50  0.013152  ( 0.028563 -0.098013  0.052249)
 45:   3199.23   0.000706    3.57  0.000069  ( 0.001214 -0.007563  0.003185)
 46:   3215.23   0.001358    6.86  0.000132  (-0.008669  0.000293 -0.007523)
 47:   3232.09   0.000585    2.96  0.000056  (-0.001054 -0.007357  0.001112)
 48:   3261.31   0.000797    4.03  0.000076  (-0.006727 -0.002052 -0.005178)
 49:   3589.38   0.023696  119.75  0.002060  ( 0.012066  0.043701 -0.002186)
 50:   3745.59   0.019424   98.16  0.001618  ( 0.030830  0.003176  0.025645)

* The epsilon (eps) is given for a Dirac delta lineshape.
** The dipole moment derivative (T) already includes vibrational overlap.

The first frequency considered to be a vibration is 7
The total number of vibrations considered is 44


--------------------------
THERMOCHEMISTRY AT 298.15K
--------------------------

Temperature         ... 298.15 K
Pressure            ... 1.00 atm
Total Mass          ... 139.13 AMU

Throughout the following assumptions are being made:
  (1) The electronic state is orbitally nondegenerate
  (2) There are no thermally accessible electronically excited states
  (3) Hindered rotations indicated by low frequency modes are not
      treated as such but are treated as vibrations and this may
      cause some error
  (4) All equations used are the standard statistical mechanics
      equations for an ideal gas
  (5) All vibrations are strictly harmonic

freq.       7.89  E(vib)   ...       0.58 
freq.       9.06  E(vib)   ...       0.58 
freq.      68.24  E(vib)   ...       0.50 
freq.     137.79  E(vib)   ...       0.42 
freq.     248.00  E(vib)   ...       0.31 
freq.     306.21  E(vib)   ...       0.26 
freq.     308.07  E(vib)   ...       0.26 
freq.     395.52  E(vib)   ...       0.20 
freq.     414.46  E(vib)   ...       0.19 
freq.     449.61  E(vib)   ...       0.17 
freq.     557.35  E(vib)   ...       0.12 
freq.     558.20  E(vib)   ...       0.12 
freq.     576.73  E(vib)   ...       0.11 
freq.     618.57  E(vib)   ...       0.09 
freq.     696.78  E(vib)   ...       0.07 
freq.     733.89  E(vib)   ...       0.06 
freq.     781.14  E(vib)   ...       0.05 
freq.     803.92  E(vib)   ...       0.05 
freq.     858.32  E(vib)   ...       0.04 
freq.     889.48  E(vib)   ...       0.04 
freq.     908.71  E(vib)   ...       0.03 
freq.    1015.67  E(vib)   ...       0.02 
freq.    1034.01  E(vib)   ...       0.02 
freq.    1039.93  E(vib)   ...       0.02 
freq.    1083.62  E(vib)   ...       0.02 
freq.    1127.75  E(vib)   ...       0.01 
freq.    1183.15  E(vib)   ...       0.01 
freq.    1185.39  E(vib)   ...       0.01 
freq.    1306.82  E(vib)   ...       0.01 
freq.    1341.62  E(vib)   ...       0.01 
freq.    1412.02  E(vib)   ...       0.00 
freq.    1457.52  E(vib)   ...       0.00 
freq.    1509.05  E(vib)   ...       0.00 
freq.    1535.51  E(vib)   ...       0.00 
freq.    1604.59  E(vib)   ...       0.00 
freq.    1658.90  E(vib)   ...       0.00 
freq.    1699.23  E(vib)   ...       0.00 
freq.    1744.24  E(vib)   ...       0.00 
freq.    3199.23  E(vib)   ...       0.00 
freq.    3215.23  E(vib)   ...       0.00 
freq.    3232.09  E(vib)   ...       0.00 
freq.    3261.31  E(vib)   ...       0.00 
freq.    3589.38  E(vib)   ...       0.00 
freq.    3745.59  E(vib)   ...       0.00 

------------
INNER ENERGY
------------

The inner energy is: U= E(el) + E(ZPE) + E(vib) + E(rot) + E(trans)
    E(el)   - is the total energy from the electronic structure calculation
              = E(kin-el) + E(nuc-el) + E(el-el) + E(nuc-nuc)
    E(ZPE)  - the the zero temperature vibrational energy from the frequency calculation
    E(vib)  - the the finite temperature correction to E(ZPE) due to population
              of excited vibrational states
    E(rot)  - is the rotational thermal energy
    E(trans)- is the translational thermal energy

Summary of contributions to the inner energy U:
Electronic energy                ...   -491.54209726 Eh
Zero point energy                ...      0.12190425 Eh      76.50 kcal/mol
Thermal vibrational correction   ...      0.00697209 Eh       4.38 kcal/mol
Thermal rotational correction    ...      0.00141627 Eh       0.89 kcal/mol
Thermal translational correction ...      0.00141627 Eh       0.89 kcal/mol
-----------------------------------------------------------------------
Total thermal energy                   -491.41038838 Eh


Summary of corrections to the electronic energy:
(perhaps to be used in another calculation)
Total thermal correction                  0.00980463 Eh       6.15 kcal/mol
Non-thermal (ZPE) correction              0.12190425 Eh      76.50 kcal/mol
-----------------------------------------------------------------------
Total correction                          0.13170888 Eh      82.65 kcal/mol


--------
ENTHALPY
--------

The enthalpy is H = U + kB*T
                kB is Boltzmann's constant
Total free energy                 ...   -491.41038838 Eh 
Thermal Enthalpy correction       ...      0.00094421 Eh       0.59 kcal/mol
-----------------------------------------------------------------------
Total Enthalpy                    ...   -491.40944417 Eh


Note: Only C1 symmetry has been detected, increase convergence thresholds 
      if your molecule has a higher symmetry. Symmetry factor of 1.0 is   
      used for the rotational entropy correction. 
 

Note: Rotational entropy computed according to Herzberg 
Infrared and Raman Spectra, Chapter V,1, Van Nostrand Reinhold, 1945 
Point Group:  C1, Symmetry Number:   1  
Rotational constants in cm-1:     0.051454     0.024885     0.017129 

Vibrational entropy computed according to the QRRHO of S. Grimme
Chem.Eur.J. 2012 18 9955


-------
ENTROPY
-------

The entropy contributions are T*S = T*(S(el)+S(vib)+S(rot)+S(trans))
     S(el)   - electronic entropy
     S(vib)  - vibrational entropy
     S(rot)  - rotational entropy
     S(trans)- translational entropy
The entropies will be listed as multiplied by the temperature to get
units of energy

Electronic entropy                ...      0.00000000 Eh      0.00 kcal/mol
Vibrational entropy               ...      0.01330820 Eh      8.35 kcal/mol
Rotational entropy                ...      0.01457519 Eh      9.15 kcal/mol
Translational entropy             ...      0.01933899 Eh     12.14 kcal/mol
-----------------------------------------------------------------------
Final entropy term                ...      0.04722238 Eh     29.63 kcal/mol

In case the symmetry of your molecule has not been determined correctly
or in case you have a reason to use a different symmetry number we print 
out the resulting rotational entropy values for sn=1,12 :
 --------------------------------------------------------
|  sn= 1 | S(rot)=       0.01457519 Eh      9.15 kcal/mol|
|  sn= 2 | S(rot)=       0.01392073 Eh      8.74 kcal/mol|
|  sn= 3 | S(rot)=       0.01353790 Eh      8.50 kcal/mol|
|  sn= 4 | S(rot)=       0.01326628 Eh      8.32 kcal/mol|
|  sn= 5 | S(rot)=       0.01305559 Eh      8.19 kcal/mol|
|  sn= 6 | S(rot)=       0.01288344 Eh      8.08 kcal/mol|
|  sn= 7 | S(rot)=       0.01273790 Eh      7.99 kcal/mol|
|  sn= 8 | S(rot)=       0.01261182 Eh      7.91 kcal/mol|
|  sn= 9 | S(rot)=       0.01250061 Eh      7.84 kcal/mol|
|  sn=10 | S(rot)=       0.01240113 Eh      7.78 kcal/mol|
|  sn=11 | S(rot)=       0.01231114 Eh      7.73 kcal/mol|
|  sn=12 | S(rot)=       0.01222899 Eh      7.67 kcal/mol|
 --------------------------------------------------------


-------------------
GIBBS FREE ENERGY
-------------------

The Gibbs free energy is G = H - T*S

Total enthalpy                    ...   -491.40944417 Eh 
Total entropy correction          ...     -0.04722238 Eh    -29.63 kcal/mol
-----------------------------------------------------------------------
Final Gibbs free energy         ...   -491.45666654 Eh

For completeness - the Gibbs free energy minus the electronic energy
G-E(el)                           ...      0.08543072 Eh     53.61 kcal/mol


Timings for individual modules:

Sum of individual times         ...     3413.783 sec (=  56.896 min)
GTO integral calculation        ...        6.294 sec (=   0.105 min)   0.2 %
SCF iterations                  ...     2123.672 sec (=  35.395 min)  62.2 %
SCF Gradient evaluation         ...      630.506 sec (=  10.508 min)  18.5 %
Geometry relaxation             ...        5.690 sec (=   0.095 min)   0.2 %
Analytical frequency calculation...      647.621 sec (=  10.794 min)  19.0 %
                             ****ORCA TERMINATED NORMALLY****
TOTAL RUN TIME: 0 days 0 hours 57 minutes 0 seconds 64 msec
