
                                 *****************
                                 * O   R   C   A *
                                 *****************

                                            #,                                       
                                            ###                                      
                                            ####                                     
                                            #####                                    
                                            ######                                   
                                           ########,                                 
                                     ,,################,,,,,                         
                               ,,#################################,,                 
                          ,,##########################################,,             
                       ,#########################################, ''#####,          
                    ,#############################################,,   '####,        
                  ,##################################################,,,,####,       
                ,###########''''           ''''###############################       
              ,#####''   ,,,,##########,,,,          '''####'''          '####       
            ,##' ,,,,###########################,,,                        '##       
           ' ,,###''''                  '''############,,,                           
         ,,##''                                '''############,,,,        ,,,,,,###''
      ,#''                                            '''#######################'''  
     '                                                          ''''####''''         
             ,#######,   #######,   ,#######,      ##                                
            ,#'     '#,  ##    ##  ,#'     '#,    #''#        ######   ,####,        
            ##       ##  ##   ,#'  ##            #'  '#       #        #'  '#        
            ##       ##  #######   ##           ,######,      #####,   #    #        
            '#,     ,#'  ##    ##  '#,     ,#' ,#      #,         ##   #,  ,#        
             '#######'   ##     ##  '#######'  #'      '#     #####' # '####'        



                  #######################################################
                  #                        -***-                        #
                  #          Department of theory and spectroscopy      #
                  #    Directorship and core code : Frank Neese         #
                  #        Max Planck Institute fuer Kohlenforschung    #
                  #                Kaiser Wilhelm Platz 1               #
                  #                 D-45470 Muelheim/Ruhr               #
                  #                      Germany                        #
                  #                                                     #
                  #                  All rights reserved                #
                  #                        -***-                        #
                  #######################################################



                         Program Version 5.0.4 -  RELEASE  -

 With contributions from (in alphabetic order):
   Daniel Aravena         : Magnetic Suceptibility
   Michael Atanasov       : Ab Initio Ligand Field Theory (pilot matlab implementation)
   Alexander A. Auer      : GIAO ZORA, VPT2 properties, NMR spectrum
   Ute Becker             : Parallelization
   Giovanni Bistoni       : ED, misc. LED, open-shell LED, HFLD
   Martin Brehm           : Molecular dynamics
   Dmytro Bykov           : SCF Hessian
   Vijay G. Chilkuri      : MRCI spin determinant printing, contributions to CSF-ICE
   Dipayan Datta          : RHF DLPNO-CCSD density
   Achintya Kumar Dutta   : EOM-CC, STEOM-CC
   Dmitry Ganyushin       : Spin-Orbit,Spin-Spin,Magnetic field MRCI
   Miquel Garcia          : C-PCM and meta-GGA Hessian, CC/C-PCM, Gaussian charge scheme
   Yang Guo               : DLPNO-NEVPT2, F12-NEVPT2, CIM, IAO-localization
   Andreas Hansen         : Spin unrestricted coupled pair/coupled cluster methods
   Benjamin Helmich-Paris : MC-RPA, TRAH-SCF, COSX integrals
   Lee Huntington         : MR-EOM, pCC
   Robert Izsak           : Overlap fitted RIJCOSX, COSX-SCS-MP3, EOM
   Marcus Kettner         : VPT2
   Christian Kollmar      : KDIIS, OOCD, Brueckner-CCSD(T), CCSD density, CASPT2, CASPT2-K
   Simone Kossmann        : Meta GGA functionals, TD-DFT gradient, OOMP2, MP2 Hessian
   Martin Krupicka        : Initial AUTO-CI
   Lucas Lang             : DCDCAS
   Marvin Lechner         : AUTO-CI (C++ implementation), FIC-MRCC
   Dagmar Lenk            : GEPOL surface, SMD
   Dimitrios Liakos       : Extrapolation schemes; Compound Job, initial MDCI parallelization
   Dimitrios Manganas     : Further ROCIS development; embedding schemes
   Dimitrios Pantazis     : SARC Basis sets
   Anastasios Papadopoulos: AUTO-CI, single reference methods and gradients
   Taras Petrenko         : DFT Hessian,TD-DFT gradient, ASA, ECA, R-Raman, ABS, FL, XAS/XES, NRVS
   Peter Pinski           : DLPNO-MP2, DLPNO-MP2 Gradient
   Christoph Reimann      : Effective Core Potentials
   Marius Retegan         : Local ZFS, SOC
   Christoph Riplinger    : Optimizer, TS searches, QM/MM, DLPNO-CCSD(T), (RO)-DLPNO pert. Triples
   Tobias Risthaus        : Range-separated hybrids, TD-DFT gradient, RPA, STAB
   Michael Roemelt        : Original ROCIS implementation
   Masaaki Saitow         : Open-shell DLPNO-CCSD energy and density
   Barbara Sandhoefer     : DKH picture change effects
   Avijit Sen             : IP-ROCIS
   Kantharuban Sivalingam : CASSCF convergence, NEVPT2, FIC-MRCI
   Bernardo de Souza      : ESD, SOC TD-DFT
   Georgi Stoychev        : AutoAux, RI-MP2 NMR, DLPNO-MP2 response
   Willem Van den Heuvel  : Paramagnetic NMR
   Boris Wezisla          : Elementary symmetry handling
   Frank Wennmohs         : Technical directorship


 We gratefully acknowledge several colleagues who have allowed us to
 interface, adapt or use parts of their codes:
   Stefan Grimme, W. Hujo, H. Kruse, P. Pracht,  : VdW corrections, initial TS optimization,
                  C. Bannwarth, S. Ehlert          DFT functionals, gCP, sTDA/sTD-DF
   Ed Valeev, F. Pavosevic, A. Kumar             : LibInt (2-el integral package), F12 methods
   Garnet Chan, S. Sharma, J. Yang, R. Olivares  : DMRG
   Ulf Ekstrom                                   : XCFun DFT Library
   Mihaly Kallay                                 : mrcc  (arbitrary order and MRCC methods)
   Jiri Pittner, Ondrej Demel                    : Mk-CCSD
   Frank Weinhold                                : gennbo (NPA and NBO analysis)
   Christopher J. Cramer and Donald G. Truhlar   : smd solvation model
   Lars Goerigk                                  : TD-DFT with DH, B97 family of functionals
   V. Asgeirsson, H. Jonsson                     : NEB implementation
   FAccTs GmbH                                   : IRC, NEB, NEB-TS, DLPNO-Multilevel, CI-OPT
                                                   MM, QMMM, 2- and 3-layer-ONIOM, Crystal-QMMM,
                                                   LR-CPCM, SF, NACMEs, symmetry and pop. for TD-DFT,
                                                   nearIR, NL-DFT gradient (VV10), updates on ESD,
                                                   ML-optimized integration grids
   S Lehtola, MJT Oliveira, MAL Marques          : LibXC Library
   Liviu Ungur et al                             : ANISO software


 Your calculation uses the libint2 library for the computation of 2-el integrals
 For citations please refer to: http://libint.valeyev.net

 Your ORCA version has been built with support for libXC version: 5.1.0
 For citations please refer to: https://tddft.org/programs/libxc/

 This ORCA versions uses:
   CBLAS   interface :  Fast vector & matrix operations
   LAPACKE interface :  Fast linear algebra routines
   Shared memory     :  Shared parallel matrices


================================================================================

----- Orbital basis set information -----
Your calculation utilizes the basis: def2-QZVPP
   F. Weigend and R. Ahlrichs, Phys. Chem. Chem. Phys. 7, 3297 (2005).

----- AuxJ basis set information -----
Your calculation utilizes the auxiliary basis: def2/J
   F. Weigend, Phys. Chem. Chem. Phys. 8, 1057 (2006).

================================================================================
                                        WARNINGS
                       Please study these warnings very carefully!
================================================================================


INFO   : the flag for use of the SHARK integral package has been found!


WARNING: TRAH does not support fractional occupations!
  ===> : Turning TRAH off
================================================================================
                                       INPUT FILE
================================================================================
NAME = toluol_fod.inp
|  1> !B3LYP DEF2-QZVPP
|  2> 
|  3> %scf
|  4> smearTemp 5000
|  5> convergence tight
|  6> end
|  7> 
|  8> * xyz 0 1
|  9>   C   -6.19125178160671      1.04578685059177     -0.00000001686577
| 10>   C   -7.37580530487043      0.28825949786031     -0.00000001284834
| 11>   C   -7.33908756893839     -1.10768545106982     -0.00000002576604
| 12>   C   -6.11117938173447     -1.77931819998824      0.00000000290657
| 13>   C   -4.92566072561635     -1.04047352586861      0.00000000533049
| 14>   C   -4.96819058552413      0.35823228576941     -0.00000003398085
| 15>   C   -6.24553993017456      2.55508248967342      0.00000000413099
| 16>   H   -5.23843039862032      2.99755933811265     -0.00000003012539
| 17>   H   -6.78052773252599      2.93791704488256      0.88605739423795
| 18>   H   -6.78052780177066      2.93791706461754     -0.88605733399821
| 19>   H   -8.34213499717683      0.80297272229397      0.00000000580428
| 20>   H   -8.27370961744022     -1.67571619441028     -0.00000001783878
| 21>   H   -6.08022998864363     -2.87249607540980      0.00000001903164
| 22>   H   -3.95993407210113     -1.55389094986220      0.00000004701981
| 23>   H   -4.03307011325617      0.92683310280730     -0.00000000703837
| 24> **                         ****END OF INPUT****
================================================================================

                       ****************************
                       * Single Point Calculation *
                       ****************************

---------------------------------
CARTESIAN COORDINATES (ANGSTROEM)
---------------------------------
  C     -6.191252    1.045787   -0.000000
  C     -7.375805    0.288259   -0.000000
  C     -7.339088   -1.107685   -0.000000
  C     -6.111179   -1.779318    0.000000
  C     -4.925661   -1.040474    0.000000
  C     -4.968191    0.358232   -0.000000
  C     -6.245540    2.555082    0.000000
  H     -5.238430    2.997559   -0.000000
  H     -6.780528    2.937917    0.886057
  H     -6.780528    2.937917   -0.886057
  H     -8.342135    0.802973    0.000000
  H     -8.273710   -1.675716   -0.000000
  H     -6.080230   -2.872496    0.000000
  H     -3.959934   -1.553891    0.000000
  H     -4.033070    0.926833   -0.000000

----------------------------
CARTESIAN COORDINATES (A.U.)
----------------------------
  NO LB      ZA    FRAG     MASS         X           Y           Z
   0 C     6.0000    0    12.011  -11.699770    1.976251   -0.000000
   1 C     6.0000    0    12.011  -13.938252    0.544732   -0.000000
   2 C     6.0000    0    12.011  -13.868866   -2.093222   -0.000000
   3 C     6.0000    0    12.011  -11.548455   -3.362424    0.000000
   4 C     6.0000    0    12.011   -9.308150   -1.966210    0.000000
   5 C     6.0000    0    12.011   -9.388520    0.676961   -0.000000
   6 C     6.0000    0    12.011  -11.802360    4.828406    0.000000
   7 H     1.0000    0     1.008   -9.899199    5.664566   -0.000000
   8 H     1.0000    0     1.008  -12.813340    5.551859    1.674406
   9 H     1.0000    0     1.008  -12.813341    5.551859   -1.674406
  10 H     1.0000    0     1.008  -15.764351    1.517399    0.000000
  11 H     1.0000    0     1.008  -15.635045   -3.166645   -0.000000
  12 H     1.0000    0     1.008  -11.489970   -5.428231    0.000000
  13 H     1.0000    0     1.008   -7.483191   -2.936428    0.000000
  14 H     1.0000    0     1.008   -7.621398    1.751461   -0.000000

--------------------------------
INTERNAL COORDINATES (ANGSTROEM)
--------------------------------
 C      0   0   0     0.000000000000     0.00000000     0.00000000
 C      1   0   0     1.406063561726     0.00000000     0.00000000
 C      2   1   0     1.396427761317   121.09238803     0.00000000
 C      3   2   1     1.399588891647   120.18418459     0.00000000
 C      4   3   2     1.396905843813   119.39034129     0.00000000
 C      5   4   3     1.399352256043   120.19055357     0.00000000
 C      1   2   3     1.510271673980   120.53910459   180.00000085
 H      7   1   2     1.100025167872   111.65844665   180.00000171
 H      7   1   2     1.103572355530   111.35260172    59.55028730
 H      7   1   2     1.103572354212   111.35260161   300.44971583
 H      2   1   3     1.094861990225   119.35900951   179.99999915
 H      3   2   1     1.093698906887   119.78306606   180.00000000
 H      4   3   2     1.093615897948   120.29916346   179.99999852
 H      5   4   3     1.093720906159   120.07098490   179.99999915
 H      6   5   4     1.094420936747   119.56009722   179.99999852

---------------------------
INTERNAL COORDINATES (A.U.)
---------------------------
 C      0   0   0     0.000000000000     0.00000000     0.00000000
 C      1   0   0     2.657075058547     0.00000000     0.00000000
 C      2   1   0     2.638866034693   121.09238803     0.00000000
 C      3   2   1     2.644839705292   120.18418459     0.00000000
 C      4   3   2     2.639769479681   119.39034129     0.00000000
 C      5   4   3     2.644392528807   120.19055357     0.00000000
 C      1   2   3     2.853999851641   120.53910459   180.00000085
 H      7   1   2     2.078746307699   111.65844665   180.00000171
 H      7   1   2     2.085449520918   111.35260172    59.55028730
 H      7   1   2     2.085449518427   111.35260161   300.44971583
 H      2   1   3     2.068989315966   119.35900951   179.99999915
 H      3   2   1     2.066791406985   119.78306606   180.00000000
 H      4   3   2     2.066634542823   120.29916346   179.99999852
 H      5   4   3     2.066832979585   120.07098490   179.99999915
 H      6   5   4     2.068155845682   119.56009722   179.99999852

---------------------
BASIS SET INFORMATION
---------------------
There are 2 groups of distinct atoms

 Group   1 Type C   : 15s8p3d2f1g contracted to 7s4p3d2f1g pattern {8211111/5111/111/11/1}
 Group   2 Type H   : 7s3p2d1f contracted to 4s3p2d1f pattern {4111/111/11/1}

Atom   0C    basis set group =>   1
Atom   1C    basis set group =>   1
Atom   2C    basis set group =>   1
Atom   3C    basis set group =>   1
Atom   4C    basis set group =>   1
Atom   5C    basis set group =>   1
Atom   6C    basis set group =>   1
Atom   7H    basis set group =>   2
Atom   8H    basis set group =>   2
Atom   9H    basis set group =>   2
Atom  10H    basis set group =>   2
Atom  11H    basis set group =>   2
Atom  12H    basis set group =>   2
Atom  13H    basis set group =>   2
Atom  14H    basis set group =>   2
---------------------------------
AUXILIARY/J BASIS SET INFORMATION
---------------------------------
There are 2 groups of distinct atoms

 Group   1 Type C   : 12s5p4d2f1g contracted to 6s4p3d1f1g pattern {711111/2111/211/2/1}
 Group   2 Type H   : 5s2p1d contracted to 3s1p1d pattern {311/2/1}

Atom   0C    basis set group =>   1
Atom   1C    basis set group =>   1
Atom   2C    basis set group =>   1
Atom   3C    basis set group =>   1
Atom   4C    basis set group =>   1
Atom   5C    basis set group =>   1
Atom   6C    basis set group =>   1
Atom   7H    basis set group =>   2
Atom   8H    basis set group =>   2
Atom   9H    basis set group =>   2
Atom  10H    basis set group =>   2
Atom  11H    basis set group =>   2
Atom  12H    basis set group =>   2
Atom  13H    basis set group =>   2
Atom  14H    basis set group =>   2
------------------------------------------------------------------------------
                           ORCA GTO INTEGRAL CALCULATION
                           -- RI-GTO INTEGRALS CHOSEN --
------------------------------------------------------------------------------
------------------------------------------------------------------------------
                   ___                                                        
                  /   \      - P O W E R E D   B Y -                         
                 /     \                                                     
                 |  |  |   _    _      __       _____    __    __             
                 |  |  |  | |  | |    /  \     |  _  \  |  |  /  |          
                  \  \/   | |  | |   /    \    | | | |  |  | /  /          
                 / \  \   | |__| |  /  /\  \   | |_| |  |  |/  /          
                |  |  |   |  __  | /  /__\  \  |    /   |      \           
                |  |  |   | |  | | |   __   |  |    \   |  |\   \          
                \     /   | |  | | |  |  |  |  | |\  \  |  | \   \       
                 \___/    |_|  |_| |__|  |__|  |_| \__\ |__|  \__/        
                                                                              
                      - O R C A' S   B I G   F R I E N D -                    
                                      &                                       
                       - I N T E G R A L  F E E D E R -                       
                                                                              
 v1 FN, 2020, v2 2021                                                         
------------------------------------------------------------------------------


Reading SHARK input file toluol_fod.SHARKINP.tmp ... ok
----------------------
SHARK INTEGRAL PACKAGE
----------------------

Number of atoms                             ...     15
Number of basis functions                   ...    639
Number of shells                            ...    199
Maximum angular momentum                    ...      4
Integral batch strategy                     ... SHARK/LIBINT Hybrid
RI-J (if used) integral strategy            ... SPLIT-RIJ (Revised 2003 algorithm where possible)
Printlevel                                  ...      1
Contraction scheme used                     ... SEGMENTED contraction
Coulomb Range Separation                    ... NOT USED
Exchange Range Separation                   ... NOT USED
Finite Nucleus Model                        ... NOT USED
Auxiliary Coulomb fitting basis             ... AVAILABLE
   # of basis functions in Aux-J            ...    431
   # of shells in Aux-J                     ...    145
   Maximum angular momentum in Aux-J        ...      4
Auxiliary J/K fitting basis                 ... NOT available
Auxiliary Correlation fitting basis         ... NOT available
Auxiliary 'external' fitting basis          ... NOT available
Integral threshold                          ...     2.500000e-11
Primitive cut-off                           ...     2.500000e-12
Primitive pair pre-selection threshold      ...     2.500000e-12

Calculating pre-screening integrals         ... done (  1.5 sec) Dimension = 199
Organizing shell pair data                  ... done (  1.5 sec)
Shell pair information
Total number of shell pairs                 ...     19900
Shell pairs after pre-screening             ...     17252
Total number of primitive shell pairs       ...     47599
Primitive shell pairs kept                  ...     32350
          la=0 lb=0:   2734 shell pairs
          la=1 lb=0:   3708 shell pairs
          la=1 lb=1:   1264 shell pairs
          la=2 lb=0:   2527 shell pairs
          la=2 lb=1:   1716 shell pairs
          la=2 lb=2:    599 shell pairs
          la=3 lb=0:   1502 shell pairs
          la=3 lb=1:   1015 shell pairs
          la=3 lb=2:    698 shell pairs
          la=3 lb=3:    217 shell pairs
          la=4 lb=0:    524 shell pairs
          la=4 lb=1:    338 shell pairs
          la=4 lb=2:    239 shell pairs
          la=4 lb=3:    143 shell pairs
          la=4 lb=4:     28 shell pairs

Calculating one electron integrals          ... done (  0.4 sec)
Calculating RI/J V-Matrix + Cholesky decomp.... done (  0.0 sec)
Calculating Nuclear repulsion               ... done (  0.0 sec) ENN=    268.040360244222 Eh

SHARK setup successfully completed in   5.3 seconds

Maximum memory used throughout the entire GTOINT-calculation: 555.6 MB
-------------------------------------------------------------------------------
                                 ORCA SCF
-------------------------------------------------------------------------------

------------
SCF SETTINGS
------------
Hamiltonian:
 Density Functional     Method          .... DFT(GTOs)
 Exchange Functional    Exchange        .... B88
   X-Alpha parameter    XAlpha          ....  0.666667
   Becke's b parameter  XBeta           ....  0.004200
 Correlation Functional Correlation     .... LYP
 LDA part of GGA corr.  LDAOpt          .... VWN-5
 Gradients option       PostSCFGGA      .... off
 Hybrid DFT is turned on
   Fraction HF Exchange ScalHFX         ....  0.200000
   Scaling of DF-GGA-X  ScalDFX         ....  0.720000
   Scaling of DF-GGA-C  ScalDFC         ....  0.810000
   Scaling of DF-LDA-C  ScalLDAC        ....  1.000000
   Perturbative correction              ....  0.000000
   Density functional embedding theory  .... OFF
   NL short-range parameter             ....  4.800000
 RI-approximation to the Coulomb term is turned on
   Number of AuxJ basis functions       .... 431
   RIJ-COSX (HFX calculated with COS-X)).... on


General Settings:
 Integral files         IntName         .... toluol_fod
 Hartree-Fock type      HFTyp           .... RHF
 Total Charge           Charge          ....    0
 Multiplicity           Mult            ....    1
 Number of Electrons    NEL             ....   50
 Basis Dimension        Dim             ....  639
 Nuclear Repulsion      ENuc            ....    268.0403602442 Eh

Convergence Acceleration:
 DIIS                   CNVDIIS         .... on
   Start iteration      DIISMaxIt       ....    12
   Startup error        DIISStart       ....  0.200000
   # of expansion vecs  DIISMaxEq       ....     5
   Bias factor          DIISBfac        ....   1.050
   Max. coefficient     DIISMaxC        ....  10.000
 Trust-Rad. Augm. Hess. CNVTRAH         .... off
 SOSCF                  CNVSOSCF        .... on
   Start iteration      SOSCFMaxIt      ....   150
   Startup grad/error   SOSCFStart      ....  0.003300
 Level Shifting         CNVShift        .... on
   Level shift para.    LevelShift      ....    0.2500
   Turn off err/grad.   ShiftErr        ....    0.0010
 Zerner damping         CNVZerner       .... off
 Static damping         CNVDamp         .... on
   Fraction old density DampFac         ....    0.7000
   Max. Damping (<1)    DampMax         ....    0.9800
   Min. Damping (>=0)   DampMin         ....    0.0000
   Turn off err/grad.   DampErr         ....    0.1000
 Fernandez-Rico         CNVRico         .... off

SCF Procedure:
 Maximum # iterations   MaxIter         ....   125
 SCF integral mode      SCFMode         .... Direct
   Integral package                     .... SHARK and LIBINT hybrid scheme
 Reset frequency        DirectResetFreq ....    20
 Integral Threshold     Thresh          ....  2.500e-11 Eh
 Primitive CutOff       TCut            ....  2.500e-12 Eh

Convergence Tolerance:
 Convergence Check Mode ConvCheckMode   .... Total+1el-Energy
 Convergence forced     ConvForced      .... 0
 Energy Change          TolE            ....  1.000e-08 Eh
 1-El. energy change                    ....  1.000e-05 Eh
 Orbital Gradient       TolG            ....  1.000e-05
 Orbital Rotation angle TolX            ....  1.000e-05
 DIIS Error             TolErr          ....  5.000e-07


Diagonalization of the overlap matrix:
Smallest eigenvalue                        ... 6.900e-06
Time for diagonalization                   ...    0.210 sec
Threshold for overlap eigenvalues          ... 1.000e-08
Number of eigenvalues below threshold      ... 0
Time for construction of square roots      ...    0.113 sec
Total time needed                          ...    0.326 sec

Time for model grid setup =    1.099 sec

------------------------------
INITIAL GUESS: MODEL POTENTIAL
------------------------------
Loading Hartree-Fock densities                     ... done
Calculating cut-offs                               ... done
Initializing the effective Hamiltonian             ... done
Setting up the integral package (SHARK)            ... done
Starting the Coulomb interaction                   ... done (   3.1 sec)
Reading the grid                                   ... done
Mapping shells                                     ... done
Starting the XC term evaluation                    ... done (   4.1 sec)
  promolecular density results
     # of electrons  =     49.996646362
     EX              =    -38.330213214
     EC              =     -1.632952127
     EX+EC           =    -39.963165341
Transforming the Hamiltonian                       ... done (   0.1 sec)
Diagonalizing the Hamiltonian                      ... done (   0.2 sec)
Back transforming the eigenvectors                 ... done (   0.0 sec)
Now organizing SCF variables                       ... done
                      ------------------
                      INITIAL GUESS DONE (   8.6 sec)
                      ------------------
-------------------
DFT GRID GENERATION
-------------------

General Integration Accuracy     IntAcc      ... 4.388
Radial Grid Type                 RadialGrid  ... OptM3 with GC (2021)
Angular Grid (max. ang.)         AngularGrid ... 4 (Lebedev-302)
Angular grid pruning method      GridPruning ... 4 (adaptive)
Weight generation scheme         WeightScheme... Becke
Basis function cutoff            BFCut       ... 1.0000e-11
Integration weight cutoff        WCut        ... 1.0000e-14
Angular grids for H and He will be reduced by one unit
Partially contracted basis set               ... off
Rotationally invariant grid construction     ... off

Total number of grid points                  ...    69702
Total number of batches                      ...     1095
Average number of points per batch           ...       63
Average number of grid points per atom       ...     4647
Time for grid setup =    4.202 sec

--------------------
COSX GRID GENERATION
--------------------

GRIDX 1
-------
General Integration Accuracy     IntAcc      ... 3.816
Radial Grid Type                 RadialGrid  ... OptM3 with GC (2021)
Angular Grid (max. ang.)         AngularGrid ... 1 (Lebedev-50)
Angular grid pruning method      GridPruning ... 4 (adaptive)
Weight generation scheme         WeightScheme... Becke
Basis function cutoff            BFCut       ... 1.0000e-11
Integration weight cutoff        WCut        ... 1.0000e-14
Angular grids for H and He will be reduced by one unit
Partially contracted basis set               ... on
Rotationally invariant grid construction     ... off

Total number of grid points                  ...     8954
Total number of batches                      ...      149
Average number of points per batch           ...       60
Average number of grid points per atom       ...      597
UseSFitting                                  ... on

GRIDX 2
-------
General Integration Accuracy     IntAcc      ... 4.020
Radial Grid Type                 RadialGrid  ... OptM3 with GC (2021)
Angular Grid (max. ang.)         AngularGrid ... 2 (Lebedev-110)
Angular grid pruning method      GridPruning ... 4 (adaptive)
Weight generation scheme         WeightScheme... Becke
Basis function cutoff            BFCut       ... 1.0000e-11
Integration weight cutoff        WCut        ... 1.0000e-14
Angular grids for H and He will be reduced by one unit
Partially contracted basis set               ... on
Rotationally invariant grid construction     ... off

Total number of grid points                  ...    20811
Total number of batches                      ...      332
Average number of points per batch           ...       62
Average number of grid points per atom       ...     1387
UseSFitting                                  ... on

GRIDX 3
-------
General Integration Accuracy     IntAcc      ... 4.338
Radial Grid Type                 RadialGrid  ... OptM3 with GC (2021)
Angular Grid (max. ang.)         AngularGrid ... 3 (Lebedev-194)
Angular grid pruning method      GridPruning ... 4 (adaptive)
Weight generation scheme         WeightScheme... Becke
Basis function cutoff            BFCut       ... 1.0000e-11
Integration weight cutoff        WCut        ... 1.0000e-14
Angular grids for H and He will be reduced by one unit
Partially contracted basis set               ... on
Rotationally invariant grid construction     ... off

Total number of grid points                  ...    45080
Total number of batches                      ...      713
Average number of points per batch           ...       63
Average number of grid points per atom       ...     3005
UseSFitting                                  ... on

Time for X-Grid setup             =   11.474 sec


Warning: Fractional occupation numbers cannot be used with CNVRico or SOSCF

--------------
SCF ITERATIONS
--------------
ITER       Energy         Delta-E        Max-DP      RMS-DP      [F,P]     Damp
               ***  Starting incremental Fock matrix formation  ***
  0   -271.2990432233   0.000000000000 0.02223111  0.00026541  0.2058558 0.7000
  1   -271.3924564321  -0.093413208772 0.02412773  0.00022283  0.1067706 0.7000
                               ***Turning on DIIS***
  2   -271.4327804697  -0.040324037604 0.03274245  0.00037389  0.0409996 0.0000
  3   -271.4879920507  -0.055211581035 0.01294273  0.00015184  0.0552011 0.0000
  4   -271.5038263087  -0.015834257983 0.01072177  0.00009444  0.0089018 0.0000
  5   -271.5044327937  -0.000606484987 0.00342233  0.00003093  0.0015891 0.0000
  6   -271.5044676340  -0.000034840320 0.00674775  0.00003474  0.0008172 0.0000
               *** Restarting incremental Fock matrix formation ***
                                   *** Resetting DIIS ***
  7   -271.5045309964  -0.000063362366 0.00083015  0.00001002  0.0004706 0.0000
  8   -271.5045294151   0.000001581291 0.00025578  0.00000190  0.0007361 0.0000
  9   -271.5045318968  -0.000002481655 0.00003765  0.00000040  0.0001210 0.0000
 10   -271.5045319456  -0.000000048838 0.00002256  0.00000023  0.0000377 0.0000
 11   -271.5045319463  -0.000000000687 0.00001636  0.00000016  0.0000101 0.0000
 12   -271.5045319431   0.000000003168 0.00004774  0.00000035  0.0000033 0.0000
                 **** Energy Check signals convergence ****
Fermi smearing:E(HOMO(Eh)) = -0.244067 MUE = -0.131037 gap=   6.231 eV

N_FOD =  0.004967

               *****************************************************
               *                     SUCCESS                       *
               *           SCF CONVERGED AFTER  13 CYCLES          *
               *****************************************************

Fermi smearing:E(HOMO(Eh)) = -0.244067 MUE = -0.131037 gap=   6.231 eV

N_FOD =  0.004967
Old exchange energy                            =     -7.813983107 Eh
New exchange energy                            =     -7.813979766 Eh
Exchange energy change after final integration =      0.000003341 Eh
Total energy after final integration           =   -271.504528609 Eh
Final COS-X integration done in                =   359.101 sec

----------------
TOTAL SCF ENERGY
----------------

Total Energy       :         -271.50452861 Eh           -7388.01382 eV

Components:
Nuclear Repulsion  :          268.04036024 Eh            7293.74901 eV
Electronic Energy  :         -539.54488885 Eh          -14681.76283 eV
One Electron Energy:         -895.33835695 Eh          -24363.39530 eV
Two Electron Energy:          355.79346810 Eh            9681.63247 eV
Max COSX asymmetry :            0.00000093 Eh               0.00003 eV

Virial components:
Potential Energy   :         -541.50020184 Eh          -14734.96960 eV
Kinetic Energy     :          269.99567323 Eh            7346.95578 eV
Virial Ratio       :            2.00558844


DFT components:
N(Alpha)           :       25.000005371626 electrons
N(Beta)            :       25.000005371626 electrons
N(Total)           :       50.000010743251 electrons
E(X)               :      -31.026736310626 Eh       
E(C)               :       -1.937891346520 Eh       
E(XC)              :      -32.964627657146 Eh       
DFET-embed. en.    :        0.000000000000 Eh       

---------------
SCF CONVERGENCE
---------------

  Last Energy change         ...   -6.8609e-09  Tolerance :   1.0000e-08
  Last MAX-Density change    ...    0.0000e+00  Tolerance :   1.0000e-07
  Last RMS-Density change    ...    0.0000e+00  Tolerance :   5.0000e-09
  Last DIIS Error            ...    3.0211e-07  Tolerance :   5.0000e-07

             **** THE GBW FILE WAS UPDATED (toluol_fod.gbw) ****
             **** DENSITY toluol_fod.scfp WAS UPDATED ****
             **** ENERGY FILE WAS UPDATED (toluol_fod.en.tmp) ****
             **** THE GBW FILE WAS UPDATED (toluol_fod.gbw) ****
             **** DENSITY toluol_fod.scfp WAS UPDATED ****
----------------
ORBITAL ENERGIES
----------------

  NO   OCC          E(Eh)            E(eV) 
   0   2.0000     -10.186602      -277.1915 
   1   2.0000     -10.177053      -276.9317 
   2   2.0000     -10.176733      -276.9230 
   3   2.0000     -10.174778      -276.8698 
   4   2.0000     -10.174525      -276.8629 
   5   2.0000     -10.174328      -276.8575 
   6   2.0000     -10.172055      -276.7957 
   7   2.0000      -0.852887       -23.2082 
   8   2.0000      -0.768768       -20.9192 
   9   2.0000      -0.741177       -20.1685 
  10   2.0000      -0.682363       -18.5680 
  11   2.0000      -0.601845       -16.3770 
  12   2.0000      -0.581293       -15.8178 
  13   2.0000      -0.508044       -13.8246 
  14   2.0000      -0.458553       -12.4779 
  15   2.0000      -0.451722       -12.2920 
  16   2.0000      -0.418740       -11.3945 
  17   2.0000      -0.417203       -11.3527 
  18   2.0000      -0.407203       -11.0806 
  19   2.0000      -0.383845       -10.4450 
  20   2.0000      -0.355047        -9.6613 
  21   2.0000      -0.342076        -9.3084 
  22   2.0000      -0.338019        -9.1980 
  23   1.9991      -0.253270        -6.8918 
  24   1.9984      -0.244067        -6.6414 
  25   0.0013      -0.015077        -0.4103 
  26   0.0010      -0.009948        -0.2707 
  27   0.0001       0.023427         0.6375 
  28   0.0001       0.036607         0.9961 
  29   0.0000       0.046602         1.2681 
  30   0.0000       0.067080         1.8253 
  31   0.0000       0.076265         2.0753 
  32   0.0000       0.085101         2.3157 
  33   0.0000       0.090889         2.4732 
  34   0.0000       0.095998         2.6122 
  35   0.0000       0.118767         3.2318 
  36   0.0000       0.119985         3.2650 
  37   0.0000       0.137231         3.7342 
  38   0.0000       0.140269         3.8169 
  39   0.0000       0.148157         4.0316 
  40   0.0000       0.152142         4.1400 
  41   0.0000       0.171221         4.6591 
  42   0.0000       0.172838         4.7032 
  43   0.0000       0.179575         4.8865 
  44   0.0000       0.197747         5.3810 
  45   0.0000       0.197915         5.3855 
  46   0.0000       0.219330         5.9683 
  47   0.0000       0.237460         6.4616 
  48   0.0000       0.248366         6.7584 
  49   0.0000       0.253778         6.9057 
  50   0.0000       0.263243         7.1632 
  51   0.0000       0.269005         7.3200 
  52   0.0000       0.281929         7.6717 
  53   0.0000       0.285545         7.7701 
  54   0.0000       0.292517         7.9598 
  55   0.0000       0.293458         7.9854 
  56   0.0000       0.299061         8.1379 
  57   0.0000       0.305761         8.3202 
  58   0.0000       0.314270         8.5517 
  59   0.0000       0.331044         9.0082 
  60   0.0000       0.332085         9.0365 
  61   0.0000       0.342144         9.3102 
  62   0.0000       0.345444         9.4000 
  63   0.0000       0.353029         9.6064 
  64   0.0000       0.366454         9.9717 
  65   0.0000       0.369388        10.0516 
  66   0.0000       0.394498        10.7348 
  67   0.0000       0.411263        11.1910 
  68   0.0000       0.426484        11.6052 
  69   0.0000       0.430480        11.7140 
  70   0.0000       0.449054        12.2194 
  71   0.0000       0.461960        12.5706 
  72   0.0000       0.484878        13.1942 
  73   0.0000       0.487627        13.2690 
  74   0.0000       0.497287        13.5319 
  75   0.0000       0.514161        13.9910 
  76   0.0000       0.516745        14.0614 
  77   0.0000       0.530613        14.4387 
  78   0.0000       0.533947        14.5294 
  79   0.0000       0.537390        14.6231 
  80   0.0000       0.566294        15.4096 
  81   0.0000       0.575566        15.6619 
  82   0.0000       0.586206        15.9515 
  83   0.0000       0.595929        16.2161 
  84   0.0000       0.621080        16.9005 
  85   0.0000       0.630764        17.1640 
  86   0.0000       0.635333        17.2883 
  87   0.0000       0.643949        17.5227 
  88   0.0000       0.662189        18.0191 
  89   0.0000       0.666749        18.1432 
  90   0.0000       0.677491        18.4355 
  91   0.0000       0.692371        18.8404 
  92   0.0000       0.707424        19.2500 
  93   0.0000       0.710978        19.3467 
  94   0.0000       0.725009        19.7285 
  95   0.0000       0.738076        20.0841 
  96   0.0000       0.740120        20.1397 
  97   0.0000       0.760905        20.7053 
  98   0.0000       0.761606        20.7243 
  99   0.0000       0.763724        20.7820 
 100   0.0000       0.765531        20.8312 
 101   0.0000       0.767461        20.8837 
 102   0.0000       0.809062        22.0157 
 103   0.0000       0.817132        22.2353 
 104   0.0000       0.822677        22.3862 
 105   0.0000       0.824513        22.4361 
 106   0.0000       0.826822        22.4990 
 107   0.0000       0.830414        22.5967 
 108   0.0000       0.851596        23.1731 
 109   0.0000       0.867668        23.6104 
 110   0.0000       0.883176        24.0325 
 111   0.0000       0.893752        24.3202 
 112   0.0000       0.896576        24.3971 
 113   0.0000       0.904861        24.6225 
 114   0.0000       0.913314        24.8525 
 115   0.0000       0.916516        24.9397 
 116   0.0000       0.927160        25.2293 
 117   0.0000       0.928972        25.2786 
 118   0.0000       0.947863        25.7927 
 119   0.0000       0.977704        26.6047 
 120   0.0000       0.986865        26.8540 
 121   0.0000       0.988836        26.9076 
 122   0.0000       1.010354        27.4931 
 123   0.0000       1.013803        27.5870 
 124   0.0000       1.023078        27.8394 
 125   0.0000       1.024007        27.8646 
 126   0.0000       1.032178        28.0870 
 127   0.0000       1.054013        28.6811 
 128   0.0000       1.059164        28.8213 
 129   0.0000       1.059950        28.8427 
 130   0.0000       1.082692        29.4616 
 131   0.0000       1.085626        29.5414 
 132   0.0000       1.113046        30.2875 
 133   0.0000       1.117603        30.4115 
 134   0.0000       1.125894        30.6371 
 135   0.0000       1.130216        30.7547 
 136   0.0000       1.145480        31.1701 
 137   0.0000       1.165486        31.7145 
 138   0.0000       1.186590        32.2888 
 139   0.0000       1.222751        33.2727 
 140   0.0000       1.230028        33.4708 
 141   0.0000       1.250196        34.0196 
 142   0.0000       1.254110        34.1261 
 143   0.0000       1.254640        34.1405 
 144   0.0000       1.275681        34.7130 
 145   0.0000       1.299466        35.3603 
 146   0.0000       1.307936        35.5907 
 147   0.0000       1.329572        36.1795 
 148   0.0000       1.351062        36.7643 
 149   0.0000       1.361735        37.0547 
 150   0.0000       1.400743        38.1161 
 151   0.0000       1.416669        38.5495 
 152   0.0000       1.434020        39.0217 
 153   0.0000       1.443699        39.2850 
 154   0.0000       1.472165        40.0596 
 155   0.0000       1.509882        41.0860 
 156   0.0000       1.535837        41.7922 
 157   0.0000       1.545430        42.0533 
 158   0.0000       1.570647        42.7395 
 159   0.0000       1.593022        43.3483 
 160   0.0000       1.601758        43.5861 
 161   0.0000       1.633046        44.4374 
 162   0.0000       1.633053        44.4376 
 163   0.0000       1.651688        44.9447 
 164   0.0000       1.669112        45.4189 
 165   0.0000       1.698428        46.2166 
 166   0.0000       1.702673        46.3321 
 167   0.0000       1.728801        47.0431 
 168   0.0000       1.739755        47.3411 
 169   0.0000       1.754640        47.7462 
 170   0.0000       1.763111        47.9767 
 171   0.0000       1.789909        48.7059 
 172   0.0000       1.790500        48.7220 
 173   0.0000       1.800448        48.9927 
 174   0.0000       1.803847        49.0852 
 175   0.0000       1.823649        49.6240 
 176   0.0000       1.828654        49.7602 
 177   0.0000       1.858519        50.5729 
 178   0.0000       1.862418        50.6790 
 179   0.0000       1.892696        51.5029 
 180   0.0000       1.893914        51.5360 
 181   0.0000       1.910719        51.9933 
 182   0.0000       1.913159        52.0597 
 183   0.0000       1.931787        52.5666 
 184   0.0000       1.936100        52.6840 
 185   0.0000       1.953003        53.1439 
 186   0.0000       1.960602        53.3507 
 187   0.0000       1.961383        53.3720 
 188   0.0000       1.979548        53.8662 
 189   0.0000       1.994874        54.2833 
 190   0.0000       2.001951        54.4759 
 191   0.0000       2.013255        54.7835 
 192   0.0000       2.026477        55.1433 
 193   0.0000       2.043204        55.5984 
 194   0.0000       2.060009        56.0557 
 195   0.0000       2.063524        56.1514 
 196   0.0000       2.068683        56.2917 
 197   0.0000       2.082561        56.6694 
 198   0.0000       2.082999        56.6813 
 199   0.0000       2.111835        57.4659 
 200   0.0000       2.119675        57.6793 
 201   0.0000       2.125136        57.8279 
 202   0.0000       2.128465        57.9185 
 203   0.0000       2.130331        57.9693 
 204   0.0000       2.150975        58.5310 
 205   0.0000       2.162886        58.8551 
 206   0.0000       2.184067        59.4315 
 207   0.0000       2.191239        59.6266 
 208   0.0000       2.193515        59.6886 
 209   0.0000       2.208483        60.0959 
 210   0.0000       2.217663        60.3457 
 211   0.0000       2.250936        61.2511 
 212   0.0000       2.259332        61.4796 
 213   0.0000       2.267219        61.6942 
 214   0.0000       2.276564        61.9485 
 215   0.0000       2.283020        62.1241 
 216   0.0000       2.286749        62.2256 
 217   0.0000       2.298338        62.5409 
 218   0.0000       2.310586        62.8742 
 219   0.0000       2.330855        63.4258 
 220   0.0000       2.336483        63.5789 
 221   0.0000       2.367439        64.4213 
 222   0.0000       2.385922        64.9242 
 223   0.0000       2.393463        65.1294 
 224   0.0000       2.395774        65.1923 
 225   0.0000       2.427232        66.0483 
 226   0.0000       2.429773        66.1175 
 227   0.0000       2.448215        66.6193 
 228   0.0000       2.453665        66.7676 
 229   0.0000       2.461114        66.9703 
 230   0.0000       2.465663        67.0941 
 231   0.0000       2.496207        67.9252 
 232   0.0000       2.496295        67.9276 
 233   0.0000       2.509099        68.2761 
 234   0.0000       2.513182        68.3872 
 235   0.0000       2.540622        69.1338 
 236   0.0000       2.546313        69.2887 
 237   0.0000       2.553768        69.4916 
 238   0.0000       2.566673        69.8427 
 239   0.0000       2.576984        70.1233 
 240   0.0000       2.585663        70.3595 
 241   0.0000       2.595529        70.6279 
 242   0.0000       2.608921        70.9924 
 243   0.0000       2.610343        71.0310 
 244   0.0000       2.615368        71.1678 
 245   0.0000       2.632648        71.6380 
 246   0.0000       2.644987        71.9738 
 247   0.0000       2.646314        72.0099 
 248   0.0000       2.650615        72.1269 
 249   0.0000       2.680553        72.9416 
 250   0.0000       2.698160        73.4207 
 251   0.0000       2.705560        73.6220 
 252   0.0000       2.723219        74.1026 
 253   0.0000       2.730557        74.3022 
 254   0.0000       2.745405        74.7063 
 255   0.0000       2.754445        74.9523 
 256   0.0000       2.757541        75.0365 
 257   0.0000       2.784002        75.7565 
 258   0.0000       2.794632        76.0458 
 259   0.0000       2.804655        76.3185 
 260   0.0000       2.817922        76.6796 
 261   0.0000       2.823063        76.8194 
 262   0.0000       2.838317        77.2345 
 263   0.0000       2.843246        77.3687 
 264   0.0000       2.860694        77.8434 
 265   0.0000       2.884622        78.4946 
 266   0.0000       2.887779        78.5805 
 267   0.0000       2.932049        79.7851 
 268   0.0000       2.945617        80.1543 
 269   0.0000       2.946053        80.1662 
 270   0.0000       2.964610        80.6711 
 271   0.0000       3.000578        81.6499 
 272   0.0000       3.006283        81.8051 
 273   0.0000       3.041276        82.7573 
 274   0.0000       3.045010        82.8589 
 275   0.0000       3.081304        83.8465 
 276   0.0000       3.099995        84.3551 
 277   0.0000       3.101715        84.4020 
 278   0.0000       3.127817        85.1122 
 279   0.0000       3.151458        85.7555 
 280   0.0000       3.155252        85.8588 
 281   0.0000       3.180134        86.5359 
 282   0.0000       3.189777        86.7982 
 283   0.0000       3.205564        87.2278 
 284   0.0000       3.235598        88.0451 
 285   0.0000       3.262657        88.7814 
 286   0.0000       3.287701        89.4629 
 287   0.0000       3.305057        89.9352 
 288   0.0000       3.306430        89.9725 
 289   0.0000       3.342137        90.9442 
 290   0.0000       3.359617        91.4198 
 291   0.0000       3.365504        91.5800 
 292   0.0000       3.366001        91.5935 
 293   0.0000       3.412742        92.8654 
 294   0.0000       3.427503        93.2671 
 295   0.0000       3.433580        93.4325 
 296   0.0000       3.445749        93.7636 
 297   0.0000       3.452981        93.9604 
 298   0.0000       3.456890        94.0668 
 299   0.0000       3.488705        94.9325 
 300   0.0000       3.488834        94.9360 
 301   0.0000       3.506199        95.4085 
 302   0.0000       3.525091        95.9226 
 303   0.0000       3.563416        96.9655 
 304   0.0000       3.571096        97.1745 
 305   0.0000       3.594806        97.8196 
 306   0.0000       3.606378        98.1345 
 307   0.0000       3.639377        99.0325 
 308   0.0000       3.680311       100.1464 
 309   0.0000       3.687319       100.3370 
 310   0.0000       3.772512       102.6553 
 311   0.0000       3.788436       103.0886 
 312   0.0000       3.797702       103.3407 
 313   0.0000       3.804277       103.5196 
 314   0.0000       3.841754       104.5395 
 315   0.0000       3.856263       104.9342 
 316   0.0000       3.868141       105.2575 
 317   0.0000       3.884129       105.6925 
 318   0.0000       3.920834       106.6913 
 319   0.0000       3.959122       107.7332 
 320   0.0000       4.054496       110.3284 
 321   0.0000       4.075972       110.9128 
 322   0.0000       4.078284       110.9757 
 323   0.0000       4.120355       112.1205 
 324   0.0000       4.127777       112.3225 
 325   0.0000       4.141857       112.7057 
 326   0.0000       4.162979       113.2804 
 327   0.0000       4.202785       114.3636 
 328   0.0000       4.268106       116.1411 
 329   0.0000       4.325772       117.7102 
 330   0.0000       4.345965       118.2597 
 331   0.0000       4.402071       119.7865 
 332   0.0000       4.484716       122.0353 
 333   0.0000       4.513223       122.8110 
 334   0.0000       4.564903       124.2173 
 335   0.0000       4.569509       124.3426 
 336   0.0000       4.679170       127.3267 
 337   0.0000       4.705390       128.0402 
 338   0.0000       4.749755       129.2474 
 339   0.0000       4.765997       129.6894 
 340   0.0000       4.789369       130.3253 
 341   0.0000       4.851096       132.0050 
 342   0.0000       4.874100       132.6310 
 343   0.0000       4.898184       133.2864 
 344   0.0000       4.933974       134.2603 
 345   0.0000       4.998803       136.0243 
 346   0.0000       5.027751       136.8121 
 347   0.0000       5.037574       137.0793 
 348   0.0000       5.062612       137.7607 
 349   0.0000       5.085640       138.3873 
 350   0.0000       5.105259       138.9212 
 351   0.0000       5.105646       138.9317 
 352   0.0000       5.136472       139.7705 
 353   0.0000       5.157083       140.3314 
 354   0.0000       5.187111       141.1485 
 355   0.0000       5.212077       141.8278 
 356   0.0000       5.228479       142.2741 
 357   0.0000       5.243321       142.6780 
 358   0.0000       5.243647       142.6869 
 359   0.0000       5.255639       143.0132 
 360   0.0000       5.293902       144.0544 
 361   0.0000       5.359138       145.8296 
 362   0.0000       5.364909       145.9866 
 363   0.0000       5.380930       146.4226 
 364   0.0000       5.386401       146.5714 
 365   0.0000       5.392539       146.7385 
 366   0.0000       5.402212       147.0017 
 367   0.0000       5.454450       148.4231 
 368   0.0000       5.457406       148.5036 
 369   0.0000       5.482919       149.1978 
 370   0.0000       5.503436       149.7561 
 371   0.0000       5.507038       149.8541 
 372   0.0000       5.520201       150.2123 
 373   0.0000       5.545115       150.8903 
 374   0.0000       5.553695       151.1237 
 375   0.0000       5.573055       151.6505 
 376   0.0000       5.616762       152.8399 
 377   0.0000       5.636019       153.3639 
 378   0.0000       5.671704       154.3349 
 379   0.0000       5.685687       154.7154 
 380   0.0000       5.719150       155.6260 
 381   0.0000       5.740700       156.2124 
 382   0.0000       5.762836       156.8147 
 383   0.0000       5.785282       157.4255 
 384   0.0000       5.801365       157.8632 
 385   0.0000       5.818778       158.3370 
 386   0.0000       5.821192       158.4027 
 387   0.0000       5.822757       158.4453 
 388   0.0000       5.852972       159.2675 
 389   0.0000       5.858313       159.4128 
 390   0.0000       5.890011       160.2753 
 391   0.0000       5.891606       160.3188 
 392   0.0000       5.902444       160.6137 
 393   0.0000       5.919676       161.0826 
 394   0.0000       5.928408       161.3202 
 395   0.0000       5.941082       161.6651 
 396   0.0000       5.948770       161.8743 
 397   0.0000       5.972667       162.5245 
 398   0.0000       5.978383       162.6801 
 399   0.0000       5.990771       163.0172 
 400   0.0000       6.002385       163.3332 
 401   0.0000       6.011725       163.5874 
 402   0.0000       6.026987       164.0027 
 403   0.0000       6.034973       164.2200 
 404   0.0000       6.041431       164.3957 
 405   0.0000       6.058345       164.8559 
 406   0.0000       6.062201       164.9609 
 407   0.0000       6.092572       165.7873 
 408   0.0000       6.095314       165.8619 
 409   0.0000       6.107372       166.1900 
 410   0.0000       6.121182       166.5658 
 411   0.0000       6.123756       166.6359 
 412   0.0000       6.131082       166.8352 
 413   0.0000       6.150851       167.3732 
 414   0.0000       6.157706       167.5597 
 415   0.0000       6.161233       167.6557 
 416   0.0000       6.187540       168.3715 
 417   0.0000       6.208792       168.9498 
 418   0.0000       6.217344       169.1825 
 419   0.0000       6.223450       169.3487 
 420   0.0000       6.236536       169.7048 
 421   0.0000       6.248388       170.0273 
 422   0.0000       6.268993       170.5880 
 423   0.0000       6.276503       170.7923 
 424   0.0000       6.281468       170.9274 
 425   0.0000       6.294873       171.2922 
 426   0.0000       6.299498       171.4181 
 427   0.0000       6.306625       171.6120 
 428   0.0000       6.324646       172.1024 
 429   0.0000       6.339812       172.5151 
 430   0.0000       6.349364       172.7750 
 431   0.0000       6.359928       173.0624 
 432   0.0000       6.394574       174.0052 
 433   0.0000       6.417782       174.6367 
 434   0.0000       6.423308       174.7871 
 435   0.0000       6.427146       174.8915 
 436   0.0000       6.443296       175.3310 
 437   0.0000       6.456037       175.6777 
 438   0.0000       6.462536       175.8545 
 439   0.0000       6.469901       176.0550 
 440   0.0000       6.508116       177.0949 
 441   0.0000       6.510676       177.1645 
 442   0.0000       6.523532       177.5143 
 443   0.0000       6.574521       178.9018 
 444   0.0000       6.575619       178.9317 
 445   0.0000       6.593664       179.4227 
 446   0.0000       6.597054       179.5150 
 447   0.0000       6.613142       179.9527 
 448   0.0000       6.621538       180.1812 
 449   0.0000       6.629818       180.4065 
 450   0.0000       6.643662       180.7832 
 451   0.0000       6.658932       181.1987 
 452   0.0000       6.672071       181.5563 
 453   0.0000       6.687252       181.9694 
 454   0.0000       6.691346       182.0808 
 455   0.0000       6.720608       182.8770 
 456   0.0000       6.723667       182.9603 
 457   0.0000       6.729370       183.1155 
 458   0.0000       6.733323       183.2230 
 459   0.0000       6.757351       183.8769 
 460   0.0000       6.763506       184.0443 
 461   0.0000       6.826302       185.7531 
 462   0.0000       6.834044       185.9638 
 463   0.0000       6.839840       186.1215 
 464   0.0000       6.903932       187.8656 
 465   0.0000       6.914590       188.1555 
 466   0.0000       6.940354       188.8566 
 467   0.0000       6.950346       189.1285 
 468   0.0000       6.960992       189.4182 
 469   0.0000       6.998493       190.4387 
 470   0.0000       7.021094       191.0537 
 471   0.0000       7.030823       191.3184 
 472   0.0000       7.032228       191.3566 
 473   0.0000       7.057186       192.0358 
 474   0.0000       7.076348       192.5572 
 475   0.0000       7.104966       193.3360 
 476   0.0000       7.142578       194.3594 
 477   0.0000       7.170178       195.1105 
 478   0.0000       7.179064       195.3522 
 479   0.0000       7.186674       195.5593 
 480   0.0000       7.247795       197.2225 
 481   0.0000       7.307010       198.8339 
 482   0.0000       7.316707       199.0977 
 483   0.0000       7.338733       199.6971 
 484   0.0000       7.354962       200.1387 
 485   0.0000       7.384864       200.9524 
 486   0.0000       7.392464       201.1592 
 487   0.0000       7.393431       201.1855 
 488   0.0000       7.418991       201.8810 
 489   0.0000       7.431156       202.2120 
 490   0.0000       7.457609       202.9319 
 491   0.0000       7.457730       202.9351 
 492   0.0000       7.468658       203.2325 
 493   0.0000       7.483729       203.6426 
 494   0.0000       7.511076       204.3868 
 495   0.0000       7.521532       204.6713 
 496   0.0000       7.528562       204.8626 
 497   0.0000       7.536062       205.0667 
 498   0.0000       7.568166       205.9403 
 499   0.0000       7.607430       207.0087 
 500   0.0000       7.625241       207.4934 
 501   0.0000       7.627144       207.5451 
 502   0.0000       7.641606       207.9387 
 503   0.0000       7.657726       208.3773 
 504   0.0000       7.674732       208.8401 
 505   0.0000       7.707828       209.7407 
 506   0.0000       7.723970       210.1799 
 507   0.0000       7.737194       210.5397 
 508   0.0000       7.741626       210.6603 
 509   0.0000       7.753655       210.9877 
 510   0.0000       7.776102       211.5985 
 511   0.0000       7.816453       212.6965 
 512   0.0000       7.844939       213.4717 
 513   0.0000       7.879713       214.4179 
 514   0.0000       7.899847       214.9658 
 515   0.0000       7.900582       214.9858 
 516   0.0000       7.920528       215.5285 
 517   0.0000       7.935528       215.9367 
 518   0.0000       7.937783       215.9981 
 519   0.0000       7.965734       216.7586 
 520   0.0000       7.981044       217.1752 
 521   0.0000       7.982936       217.2267 
 522   0.0000       8.043846       218.8842 
 523   0.0000       8.068143       219.5453 
 524   0.0000       8.084780       219.9980 
 525   0.0000       8.106939       220.6010 
 526   0.0000       8.122351       221.0204 
 527   0.0000       8.132082       221.2852 
 528   0.0000       8.150660       221.7907 
 529   0.0000       8.156119       221.9393 
 530   0.0000       8.196829       223.0470 
 531   0.0000       8.215847       223.5646 
 532   0.0000       8.237447       224.1523 
 533   0.0000       8.245569       224.3733 
 534   0.0000       8.258222       224.7176 
 535   0.0000       8.264991       224.9018 
 536   0.0000       8.279536       225.2976 
 537   0.0000       8.292110       225.6398 
 538   0.0000       8.308322       226.0809 
 539   0.0000       8.320817       226.4210 
 540   0.0000       8.331511       226.7119 
 541   0.0000       8.351064       227.2440 
 542   0.0000       8.359279       227.4675 
 543   0.0000       8.364215       227.6019 
 544   0.0000       8.374236       227.8745 
 545   0.0000       8.374537       227.8827 
 546   0.0000       8.393648       228.4028 
 547   0.0000       8.395349       228.4491 
 548   0.0000       8.399774       228.5695 
 549   0.0000       8.407544       228.7809 
 550   0.0000       8.421963       229.1733 
 551   0.0000       8.478300       230.7063 
 552   0.0000       8.484796       230.8830 
 553   0.0000       8.507559       231.5025 
 554   0.0000       8.514186       231.6828 
 555   0.0000       8.514973       231.7042 
 556   0.0000       8.546121       232.5518 
 557   0.0000       8.570236       233.2080 
 558   0.0000       8.604947       234.1525 
 559   0.0000       8.616138       234.4570 
 560   0.0000       8.642083       235.1630 
 561   0.0000       8.656605       235.5582 
 562   0.0000       8.663749       235.7526 
 563   0.0000       8.673548       236.0193 
 564   0.0000       8.720798       237.3050 
 565   0.0000       8.755176       238.2404 
 566   0.0000       8.778355       238.8712 
 567   0.0000       8.812056       239.7882 
 568   0.0000       8.819520       239.9913 
 569   0.0000       8.832459       240.3434 
 570   0.0000       8.868237       241.3170 
 571   0.0000       8.897594       242.1158 
 572   0.0000       8.925931       242.8869 
 573   0.0000       8.928979       242.9699 
 574   0.0000       8.956972       243.7316 
 575   0.0000       8.964401       243.9337 
 576   0.0000       9.032352       245.7828 
 577   0.0000       9.053058       246.3462 
 578   0.0000       9.070442       246.8193 
 579   0.0000       9.134094       248.5513 
 580   0.0000       9.345149       254.2944 
 581   0.0000       9.429862       256.5996 
 582   0.0000       9.457773       257.3591 
 583   0.0000       9.467830       257.6328 
 584   0.0000       9.532610       259.3955 
 585   0.0000       9.627060       261.9656 
 586   0.0000       9.634306       262.1628 
 587   0.0000       9.664798       262.9925 
 588   0.0000       9.664851       262.9940 
 589   0.0000       9.706854       264.1369 
 590   0.0000       9.726529       264.6723 
 591   0.0000       9.774809       265.9861 
 592   0.0000       9.776674       266.0368 
 593   0.0000       9.802233       266.7323 
 594   0.0000       9.823159       267.3018 
 595   0.0000       9.855318       268.1768 
 596   0.0000       9.875133       268.7160 
 597   0.0000       9.891235       269.1542 
 598   0.0000       9.953526       270.8492 
 599   0.0000       9.981832       271.6195 
 600   0.0000      10.006505       272.2908 
 601   0.0000      10.046736       273.3856 
 602   0.0000      10.073136       274.1040 
 603   0.0000      10.106104       275.0011 
 604   0.0000      10.202920       277.6356 
 605   0.0000      10.205947       277.7179 
 606   0.0000      10.240783       278.6659 
 607   0.0000      10.260159       279.1931 
 608   0.0000      10.303437       280.3708 
 609   0.0000      10.374782       282.3122 
 610   0.0000      10.431860       283.8653 
 611   0.0000      10.514471       286.1133 
 612   0.0000      10.658934       290.0443 
 613   0.0000      10.668470       290.3038 
 614   0.0000      10.742512       292.3186 
 615   0.0000      10.900013       296.6044 
 616   0.0000      11.604258       315.7679 
 617   0.0000      11.855997       322.6181 
 618   0.0000      12.070610       328.4580 
 619   0.0000      12.211596       332.2944 
 620   0.0000      12.574493       342.1693 
 621   0.0000      12.678014       344.9863 
 622   0.0000      12.842458       349.4610 
 623   0.0000      13.108832       356.7095 
 624   0.0000      13.215854       359.6217 
 625   0.0000      27.912924       759.5493 
 626   0.0000      28.404682       772.9307 
 627   0.0000      28.497065       775.4446 
 628   0.0000      28.816363       784.1331 
 629   0.0000      28.972265       788.3754 
 630   0.0000      29.065656       790.9167 
 631   0.0000      29.290414       797.0327 
 632   0.0000     146.989364      3999.7839 
 633   0.0000     147.458245      4012.5429 
 634   0.0000     147.539367      4014.7503 
 635   0.0000     147.824682      4022.5141 
 636   0.0000     147.975949      4026.6303 
 637   0.0000     148.119682      4030.5414 
 638   0.0000     148.319848      4035.9882 

                    ********************************
                    * MULLIKEN POPULATION ANALYSIS *
                    ********************************

------------------------------------------
FOD BASED MULLIKEN REDUCED ORBITAL CHARGES
------------------------------------------
  0 C s       :     0.000073  s :     0.000073
      pz      :     0.000689  p :     0.000682
      px      :     0.000007
      py      :    -0.000015
      dz2     :    -0.000005  d :     0.000051
      dxz     :     0.000048
      dyz     :     0.000011
      dx2y2   :    -0.000004
      dxy     :     0.000001
      f0      :     0.000001  f :     0.000003
      f+1     :    -0.000000
      f-1     :    -0.000000
      f+2     :     0.000001
      f-2     :     0.000003
      f+3     :    -0.000000
      f-3     :    -0.000001
      g0      :    -0.000000  g :     0.000000
      g+1     :     0.000000
      g-1     :     0.000000
      g+2     :     0.000000
      g-2     :     0.000000
      g+3     :     0.000000
      g-3     :     0.000000
      g+4     :     0.000000
      g-4     :     0.000000
  1 C s       :    -0.000043  s :    -0.000043
      pz      :     0.000742  p :     0.000762
      px      :     0.000001
      py      :     0.000018
      dz2     :     0.000000  d :     0.000057
      dxz     :     0.000016
      dyz     :     0.000036
      dx2y2   :    -0.000000
      dxy     :     0.000004
      f0      :     0.000001  f :     0.000005
      f+1     :     0.000000
      f-1     :    -0.000000
      f+2     :     0.000002
      f-2     :     0.000001
      f+3     :    -0.000000
      f-3     :     0.000000
      g0      :    -0.000000  g :     0.000000
      g+1     :     0.000000
      g-1     :     0.000000
      g+2     :    -0.000000
      g-2     :     0.000000
      g+3     :     0.000000
      g-3     :     0.000000
      g+4     :    -0.000000
      g-4     :    -0.000000
  2 C s       :    -0.000012  s :    -0.000012
      pz      :     0.000585  p :     0.000572
      px      :    -0.000019
      py      :     0.000006
      dz2     :    -0.000000  d :     0.000062
      dxz     :     0.000018
      dyz     :     0.000044
      dx2y2   :     0.000000
      dxy     :    -0.000000
      f0      :     0.000001  f :     0.000005
      f+1     :     0.000000
      f-1     :    -0.000000
      f+2     :     0.000003
      f-2     :     0.000001
      f+3     :     0.000000
      f-3     :    -0.000000
      g0      :    -0.000000  g :     0.000000
      g+1     :     0.000000
      g-1     :     0.000000
      g+2     :     0.000000
      g-2     :     0.000000
      g+3     :     0.000000
      g-3     :     0.000000
      g+4     :    -0.000000
      g-4     :    -0.000000
  3 C s       :    -0.000040  s :    -0.000040
      pz      :     0.000726  p :     0.000715
      px      :     0.000008
      py      :    -0.000019
      dz2     :     0.000000  d :     0.000055
      dxz     :     0.000047
      dyz     :     0.000005
      dx2y2   :     0.000003
      dxy     :    -0.000001
      f0      :     0.000001  f :     0.000004
      f+1     :    -0.000000
      f-1     :     0.000000
      f+2     :     0.000000
      f-2     :     0.000003
      f+3     :     0.000000
      f-3     :     0.000000
      g0      :    -0.000000  g :     0.000000
      g+1     :     0.000000
      g-1     :     0.000000
      g+2     :     0.000000
      g-2     :     0.000000
      g+3     :     0.000000
      g-3     :     0.000000
      g+4     :    -0.000000
      g-4     :    -0.000000
  4 C s       :    -0.000015  s :    -0.000015
      pz      :     0.000672  p :     0.000652
      px      :    -0.000020
      py      :    -0.000000
      dz2     :    -0.000000  d :     0.000054
      dxz     :     0.000017
      dyz     :     0.000038
      dx2y2   :     0.000001
      dxy     :    -0.000001
      f0      :     0.000001  f :     0.000004
      f+1     :     0.000000
      f-1     :    -0.000000
      f+2     :     0.000002
      f-2     :     0.000001
      f+3     :     0.000000
      f-3     :    -0.000000
      g0      :    -0.000000  g :     0.000000
      g+1     :     0.000000
      g-1     :     0.000000
      g+2     :     0.000000
      g-2     :     0.000000
      g+3     :     0.000000
      g-3     :     0.000000
      g+4     :    -0.000000
      g-4     :    -0.000000
  5 C s       :    -0.000054  s :    -0.000054
      pz      :     0.000634  p :     0.000626
      px      :    -0.000004
      py      :    -0.000005
      dz2     :     0.000001  d :     0.000061
      dxz     :     0.000018
      dyz     :     0.000038
      dx2y2   :    -0.000001
      dxy     :     0.000006
      f0      :     0.000001  f :     0.000004
      f+1     :     0.000000
      f-1     :    -0.000000
      f+2     :     0.000002
      f-2     :     0.000001
      f+3     :     0.000000
      f-3     :     0.000000
      g0      :     0.000000  g :     0.000000
      g+1     :     0.000000
      g-1     :     0.000000
      g+2     :    -0.000000
      g-2     :     0.000000
      g+3     :     0.000000
      g-3     :     0.000000
      g+4     :     0.000000
      g-4     :    -0.000000
  6 C s       :    -0.000100  s :    -0.000100
      pz      :     0.000011  p :     0.000011
      px      :    -0.000005
      py      :     0.000005
      dz2     :     0.000002  d :     0.000061
      dxz     :     0.000019
      dyz     :     0.000038
      dx2y2   :     0.000002
      dxy     :     0.000000
      f0      :     0.000001  f :     0.000003
      f+1     :    -0.000000
      f-1     :     0.000000
      f+2     :     0.000002
      f-2     :     0.000000
      f+3     :     0.000000
      f-3     :    -0.000000
      g0      :     0.000000  g :     0.000000
      g+1     :     0.000000
      g-1     :     0.000000
      g+2     :    -0.000000
      g-2     :     0.000000
      g+3     :     0.000000
      g-3     :     0.000000
      g+4     :    -0.000000
      g-4     :    -0.000000
  7 H s       :     0.000053  s :     0.000053
      pz      :     0.000003  p :     0.000001
      px      :    -0.000001
      py      :    -0.000000
      dz2     :    -0.000000  d :     0.000000
      dxz     :     0.000000
      dyz     :     0.000000
      dx2y2   :    -0.000000
      dxy     :     0.000000
      f0      :     0.000000  f :     0.000000
      f+1     :    -0.000000
      f-1     :     0.000000
      f+2     :     0.000000
      f-2     :     0.000000
      f+3     :    -0.000000
      f-3     :     0.000000
  8 H s       :     0.000115  s :     0.000115
      pz      :     0.000003  p :     0.000012
      px      :     0.000004
      py      :     0.000004
      dz2     :    -0.000000  d :     0.000000
      dxz     :    -0.000000
      dyz     :     0.000000
      dx2y2   :     0.000000
      dxy     :     0.000000
      f0      :     0.000000  f :     0.000000
      f+1     :     0.000000
      f-1     :     0.000000
      f+2     :     0.000000
      f-2     :     0.000000
      f+3     :     0.000000
      f-3     :     0.000000
  9 H s       :     0.000115  s :     0.000115
      pz      :     0.000003  p :     0.000012
      px      :     0.000004
      py      :     0.000004
      dz2     :    -0.000000  d :     0.000000
      dxz     :    -0.000000
      dyz     :     0.000000
      dx2y2   :     0.000000
      dxy     :     0.000000
      f0      :     0.000000  f :     0.000000
      f+1     :     0.000000
      f-1     :     0.000000
      f+2     :     0.000000
      f-2     :     0.000000
      f+3     :     0.000000
      f-3     :     0.000000
 10 H s       :     0.000034  s :     0.000034
      pz      :     0.000027  p :     0.000029
      px      :     0.000001
      py      :     0.000001
      dz2     :    -0.000000  d :     0.000003
      dxz     :     0.000002
      dyz     :     0.000001
      dx2y2   :    -0.000000
      dxy     :     0.000000
      f0      :     0.000000  f :     0.000000
      f+1     :     0.000000
      f-1     :     0.000000
      f+2     :     0.000000
      f-2     :     0.000000
      f+3     :    -0.000000
      f-3     :     0.000000
 11 H s       :     0.000066  s :     0.000066
      pz      :     0.000022  p :     0.000024
      px      :     0.000002
      py      :     0.000001
      dz2     :     0.000000  d :     0.000002
      dxz     :     0.000002
      dyz     :     0.000001
      dx2y2   :     0.000000
      dxy     :     0.000000
      f0      :     0.000000  f :     0.000000
      f+1     :     0.000000
      f-1     :     0.000000
      f+2     :     0.000000
      f-2     :     0.000000
      f+3     :    -0.000000
      f-3     :     0.000000
 12 H s       :     0.000058  s :     0.000058
      pz      :     0.000025  p :     0.000025
      px      :     0.000000
      py      :     0.000000
      dz2     :    -0.000000  d :     0.000003
      dxz     :     0.000000
      dyz     :     0.000003
      dx2y2   :    -0.000000
      dxy     :     0.000000
      f0      :     0.000000  f :     0.000000
      f+1     :    -0.000000
      f-1     :     0.000000
      f+2     :     0.000000
      f-2     :     0.000000
      f+3     :     0.000000
      f-3     :    -0.000000
 13 H s       :     0.000066  s :     0.000066
      pz      :     0.000025  p :     0.000027
      px      :     0.000002
      py      :     0.000000
      dz2     :     0.000000  d :     0.000003
      dxz     :     0.000002
      dyz     :     0.000001
      dx2y2   :     0.000000
      dxy     :     0.000000
      f0      :     0.000000  f :     0.000000
      f+1     :     0.000000
      f-1     :     0.000000
      f+2     :     0.000000
      f-2     :     0.000000
      f+3     :     0.000000
      f-3     :     0.000000
 14 H s       :     0.000031  s :     0.000031
      pz      :     0.000022  p :     0.000025
      px      :     0.000002
      py      :     0.000001
      dz2     :     0.000000  d :     0.000002
      dxz     :     0.000002
      dyz     :     0.000001
      dx2y2   :     0.000000
      dxy     :     0.000000
      f0      :     0.000000  f :     0.000000
      f+1     :     0.000000
      f-1     :     0.000000
      f+2     :     0.000000
      f-2     :     0.000000
      f+3     :     0.000000
      f-3     :     0.000000


                     *******************************
                     * LOEWDIN POPULATION ANALYSIS *
                     *******************************

----------------------
LOEWDIN ATOMIC CHARGES
----------------------
   0 C :   -0.107771
   1 C :    0.072168
   2 C :    0.057224
   3 C :    0.053486
   4 C :    0.057661
   5 C :    0.067958
   6 C :    0.225287
   7 H :   -0.049960
   8 H :   -0.047399
   9 H :   -0.047399
  10 H :   -0.052513
  11 H :   -0.057396
  12 H :   -0.058879
  13 H :   -0.057493
  14 H :   -0.054972

-------------------------------
LOEWDIN REDUCED ORBITAL CHARGES
-------------------------------
  0 C s       :     2.585081  s :     2.585081
      pz      :     0.754959  p :     2.706613
      px      :     1.013710
      py      :     0.937945
      dz2     :     0.046246  d :     0.649815
      dxz     :     0.095499
      dyz     :     0.095846
      dx2y2   :     0.209767
      dxy     :     0.202457
      f0      :     0.010132  f :     0.152651
      f+1     :     0.008112
      f-1     :     0.008225
      f+2     :     0.017443
      f-2     :     0.021629
      f+3     :     0.068053
      f-3     :     0.019057
      g0      :     0.000367  g :     0.013611
      g+1     :     0.001427
      g-1     :     0.001400
      g+2     :     0.001332
      g-2     :     0.001349
      g+3     :     0.000105
      g-3     :     0.001236
      g+4     :     0.003352
      g-4     :     0.003042
  1 C s       :     2.590114  s :     2.590114
      pz      :     0.780496  p :     2.717641
      px      :     0.949963
      py      :     0.987182
      dz2     :     0.039572  d :     0.497768
      dxz     :     0.035644
      dyz     :     0.076906
      dx2y2   :     0.159553
      dxy     :     0.186093
      f0      :     0.005948  f :     0.111105
      f+1     :     0.006900
      f-1     :     0.007596
      f+2     :     0.015996
      f-2     :     0.010019
      f+3     :     0.046903
      f-3     :     0.017744
      g0      :     0.000365  g :     0.011203
      g+1     :     0.000800
      g-1     :     0.001297
      g+2     :     0.001227
      g-2     :     0.001261
      g+3     :     0.000047
      g-3     :     0.000800
      g+4     :     0.002190
      g-4     :     0.003216
  2 C s       :     2.595838  s :     2.595838
      pz      :     0.771672  p :     2.720888
      px      :     0.961988
      py      :     0.987228
      dz2     :     0.037772  d :     0.504420
      dxz     :     0.041645
      dyz     :     0.079564
      dx2y2   :     0.154510
      dxy     :     0.190930
      f0      :     0.006057  f :     0.110410
      f+1     :     0.006895
      f-1     :     0.007233
      f+2     :     0.018082
      f-2     :     0.008438
      f+3     :     0.046534
      f-3     :     0.017171
      g0      :     0.000359  g :     0.011219
      g+1     :     0.000868
      g-1     :     0.001307
      g+2     :     0.001239
      g-2     :     0.001228
      g+3     :     0.000033
      g-3     :     0.000808
      g+4     :     0.002454
      g-4     :     0.002923
  3 C s       :     2.595776  s :     2.595776
      pz      :     0.780110  p :     2.728643
      px      :     1.001133
      py      :     0.947400
      dz2     :     0.038004  d :     0.500571
      dxz     :     0.095556
      dyz     :     0.020507
      dx2y2   :     0.204677
      dxy     :     0.141828
      f0      :     0.006118  f :     0.110343
      f+1     :     0.007473
      f-1     :     0.006726
      f+2     :     0.005012
      f-2     :     0.020779
      f+3     :     0.047172
      f-3     :     0.017061
      g0      :     0.000359  g :     0.011181
      g+1     :     0.001463
      g-1     :     0.000641
      g+2     :     0.001228
      g-2     :     0.001249
      g+3     :     0.000045
      g-3     :     0.000808
      g+4     :     0.003358
      g-4     :     0.002030
  4 C s       :     2.595862  s :     2.595862
      pz      :     0.772098  p :     2.721350
      px      :     0.960342
      py      :     0.988910
      dz2     :     0.037829  d :     0.503702
      dxz     :     0.037498
      dyz     :     0.083197
      dx2y2   :     0.161673
      dxy     :     0.183504
      f0      :     0.006064  f :     0.110223
      f+1     :     0.006863
      f-1     :     0.007272
      f+2     :     0.016334
      f-2     :     0.010078
      f+3     :     0.046362
      f-3     :     0.017250
      g0      :     0.000359  g :     0.011202
      g+1     :     0.000833
      g-1     :     0.001332
      g+2     :     0.001240
      g-2     :     0.001226
      g+3     :     0.000036
      g-3     :     0.000805
      g+4     :     0.002171
      g-4     :     0.003200
  5 C s       :     2.590492  s :     2.590492
      pz      :     0.781310  p :     2.718742
      px      :     0.952534
      py      :     0.984898
      dz2     :     0.039794  d :     0.500318
      dxz     :     0.039240
      dyz     :     0.074207
      dx2y2   :     0.154832
      dxy     :     0.192245
      f0      :     0.005982  f :     0.111282
      f+1     :     0.006983
      f-1     :     0.007477
      f+2     :     0.017421
      f-2     :     0.008603
      f+3     :     0.047011
      f-3     :     0.017805
      g0      :     0.000365  g :     0.011209
      g+1     :     0.000851
      g-1     :     0.001247
      g+2     :     0.001217
      g-2     :     0.001266
      g+3     :     0.000039
      g-3     :     0.000804
      g+4     :     0.002498
      g-4     :     0.002921
  6 C s       :     2.552292  s :     2.552292
      pz      :     0.939996  p :     2.772064
      px      :     0.936397
      py      :     0.895671
      dz2     :     0.059477  d :     0.372893
      dxz     :     0.052373
      dyz     :     0.086999
      dx2y2   :     0.079753
      dxy     :     0.094290
      f0      :     0.005709  f :     0.073517
      f+1     :     0.009880
      f-1     :     0.009883
      f+2     :     0.009720
      f-2     :     0.007798
      f+3     :     0.017723
      f-3     :     0.012804
      g0      :     0.000150  g :     0.003948
      g+1     :     0.000048
      g-1     :     0.000653
      g+2     :     0.000204
      g-2     :     0.000626
      g+3     :     0.000050
      g-3     :     0.000521
      g+4     :     0.000417
      g-4     :     0.001281
  7 H s       :     0.787921  s :     0.787921
      pz      :     0.053993  p :     0.187927
      px      :     0.081913
      py      :     0.052020
      dz2     :     0.004368  d :     0.065180
      dxz     :     0.022170
      dyz     :     0.002424
      dx2y2   :     0.018491
      dxy     :     0.017727
      f0      :     0.001147  f :     0.008933
      f+1     :     0.000847
      f-1     :     0.000380
      f+2     :     0.001218
      f-2     :     0.000779
      f+3     :     0.002816
      f-3     :     0.001747
  8 H s       :     0.783913  s :     0.783913
      pz      :     0.075361  p :     0.190148
      px      :     0.061672
      py      :     0.053115
      dz2     :     0.021165  d :     0.064563
      dxz     :     0.013789
      dyz     :     0.013489
      dx2y2   :     0.009797
      dxy     :     0.006323
      f0      :     0.002381  f :     0.008775
      f+1     :     0.001386
      f-1     :     0.001102
      f+2     :     0.001782
      f-2     :     0.001374
      f+3     :     0.000518
      f-3     :     0.000232
  9 H s       :     0.783913  s :     0.783913
      pz      :     0.075361  p :     0.190148
      px      :     0.061672
      py      :     0.053115
      dz2     :     0.021165  d :     0.064563
      dxz     :     0.013789
      dyz     :     0.013489
      dx2y2   :     0.009797
      dxy     :     0.006323
      f0      :     0.002381  f :     0.008775
      f+1     :     0.001386
      f-1     :     0.001102
      f+2     :     0.001782
      f-2     :     0.001374
      f+3     :     0.000518
      f-3     :     0.000232
 10 H s       :     0.794032  s :     0.794032
      pz      :     0.053757  p :     0.186224
      px      :     0.079713
      py      :     0.052754
      dz2     :     0.004658  d :     0.063120
      dxz     :     0.015526
      dyz     :     0.004826
      dx2y2   :     0.021037
      dxy     :     0.017074
      f0      :     0.000997  f :     0.009137
      f+1     :     0.000789
      f-1     :     0.000387
      f+2     :     0.000556
      f-2     :     0.001176
      f+3     :     0.003309
      f-3     :     0.001924
 11 H s       :     0.799333  s :     0.799333
      pz      :     0.052966  p :     0.186481
      px      :     0.078118
      py      :     0.055397
      dz2     :     0.004674  d :     0.062478
      dxz     :     0.014291
      dyz     :     0.005532
      dx2y2   :     0.021721
      dxy     :     0.016260
      f0      :     0.000986  f :     0.009104
      f+1     :     0.000760
      f-1     :     0.000429
      f+2     :     0.000374
      f-2     :     0.001301
      f+3     :     0.003318
      f-3     :     0.001935
 12 H s       :     0.800031  s :     0.800031
      pz      :     0.054149  p :     0.187216
      px      :     0.042270
      py      :     0.090797
      dz2     :     0.004658  d :     0.062509
      dxz     :     0.000311
      dyz     :     0.019764
      dx2y2   :     0.014214
      dxy     :     0.023562
      f0      :     0.001003  f :     0.009123
      f+1     :     0.000235
      f-1     :     0.000954
      f+2     :     0.001659
      f-2     :     0.000041
      f+3     :     0.003298
      f-3     :     0.001933
 13 H s       :     0.799321  s :     0.799321
      pz      :     0.053110  p :     0.186580
      px      :     0.080457
      py      :     0.053014
      dz2     :     0.004673  d :     0.062485
      dxz     :     0.015303
      dyz     :     0.004534
      dx2y2   :     0.020764
      dxy     :     0.017211
      f0      :     0.000988  f :     0.009107
      f+1     :     0.000795
      f-1     :     0.000394
      f+2     :     0.000541
      f-2     :     0.001137
      f+3     :     0.003308
      f-3     :     0.001943
 14 H s       :     0.795188  s :     0.795188
      pz      :     0.054546  p :     0.187405
      px      :     0.077418
      py      :     0.055441
      dz2     :     0.004680  d :     0.063235
      dxz     :     0.014636
      dyz     :     0.005608
      dx2y2   :     0.022157
      dxy     :     0.016154
      f0      :     0.001001  f :     0.009144
      f+1     :     0.000756
      f-1     :     0.000424
      f+2     :     0.000390
      f-2     :     0.001328
      f+3     :     0.003320
      f-3     :     0.001924


                      *****************************
                      * MAYER POPULATION ANALYSIS *
                      *****************************

  NA   - Mulliken gross atomic population
  ZA   - Total nuclear charge
  QA   - Mulliken gross atomic charge
  VA   - Mayer's total valence
  BVA  - Mayer's bonded valence
  FA   - Mayer's free valence

  ATOM       NA         ZA         QA         VA         BVA        FA
  0 C      5.8777     6.0000     0.1223     3.5712     3.5696     0.0016
  1 C      6.0941     6.0000    -0.0941     3.6874     3.6859     0.0016
  2 C      6.0889     6.0000    -0.0889     3.8276     3.8263     0.0013
  3 C      6.0481     6.0000    -0.0481     3.7818     3.7803     0.0015
  4 C      6.0861     6.0000    -0.0861     3.8277     3.8263     0.0014
  5 C      6.1021     6.0000    -0.1021     3.7019     3.7006     0.0013
  6 C      6.1235     6.0000    -0.1235     3.8429     3.8430    -0.0000
  7 H      0.9560     1.0000     0.0440     1.0106     1.0105     0.0001
  8 H      0.9457     1.0000     0.0543     0.9983     0.9981     0.0003
  9 H      0.9457     1.0000     0.0543     0.9984     0.9981     0.0003
 10 H      0.9471     1.0000     0.0529     1.0028     1.0027     0.0001
 11 H      0.9429     1.0000     0.0571     1.0006     1.0004     0.0002
 12 H      0.9453     1.0000     0.0547     1.0001     0.9999     0.0002
 13 H      0.9444     1.0000     0.0556     1.0007     1.0005     0.0002
 14 H      0.9523     1.0000     0.0477     1.0079     1.0077     0.0001

  Mayer bond orders larger than 0.100000
B(  0-C ,  1-C ) :   1.2346 B(  0-C ,  5-C ) :   1.2559 B(  0-C ,  6-C ) :   0.9389 
B(  1-C ,  2-C ) :   1.3452 B(  1-C , 10-H ) :   0.9677 B(  2-C ,  3-C ) :   1.3214 
B(  2-C , 11-H ) :   0.9688 B(  3-C ,  4-C ) :   1.3318 B(  3-C , 12-H ) :   0.9666 
B(  4-C ,  5-C ) :   1.3340 B(  4-C , 13-H ) :   0.9690 B(  5-C , 14-H ) :   0.9688 
B(  6-C ,  7-H ) :   0.9687 B(  6-C ,  8-H ) :   0.9606 B(  6-C ,  9-H ) :   0.9606 


-------
TIMINGS
-------

Total SCF time: 0 days 0 hours 34 min 10 sec 

Total time                  ....    2050.188 sec
Sum of individual times     ....    2030.247 sec  ( 99.0%)

Fock matrix formation       ....    1994.404 sec  ( 97.3%)
  Split-RI-J                ....     117.662 sec  (  5.9% of F)
  Chain of spheres X        ....    1671.322 sec  ( 83.8% of F)
  XC integration            ....     199.621 sec  ( 10.0% of F)
    Basis function eval.    ....      37.901 sec  ( 19.0% of XC)
    Density eval.           ....      73.147 sec  ( 36.6% of XC)
    XC-Functional eval.     ....       2.489 sec  (  1.2% of XC)
    XC-Potential eval.      ....      80.627 sec  ( 40.4% of XC)
Diagonalization             ....       4.754 sec  (  0.2%)
Density matrix formation    ....       3.877 sec  (  0.2%)
Population analysis         ....       0.424 sec  (  0.0%)
Initial guess               ....       7.533 sec  (  0.4%)
Orbital Transformation      ....       0.000 sec  (  0.0%)
Orbital Orthonormalization  ....       0.000 sec  (  0.0%)
DIIS solution               ....       2.480 sec  (  0.1%)
Grid generation             ....      16.775 sec  (  0.8%)

Maximum memory used throughout the entire SCF-calculation: 663.8 MB

-------------------------   --------------------
FINAL SINGLE POINT ENERGY      -271.504528609370
-------------------------   --------------------


                            ***************************************
                            *     ORCA property calculations      *
                            ***************************************

                                    ---------------------
                                    Active property flags
                                    ---------------------
   (+) Dipole Moment


------------------------------------------------------------------------------
                       ORCA ELECTRIC PROPERTIES CALCULATION
------------------------------------------------------------------------------

Dipole Moment Calculation                       ... on
Quadrupole Moment Calculation                   ... off
Polarizability Calculation                      ... off
GBWName                                         ... toluol_fod.gbw
Electron density                                ... toluol_fod.scfp
The origin for moment calculation is the CENTER OF MASS  = (-11.654069,  0.171850 -0.000000)

-------------
DIPOLE MOMENT
-------------
                                X             Y             Z
Electronic contribution:      0.12197      -3.38343       0.00000
Nuclear contribution   :     -0.14262       3.54029       0.00000
                        -----------------------------------------
Total Dipole Moment    :     -0.02065       0.15685       0.00000
                        -----------------------------------------
Magnitude (a.u.)       :      0.15820
Magnitude (Debye)      :      0.40212



--------------------
Rotational spectrum 
--------------------
 
Rotational constants in cm-1:     0.183668     0.083310     0.057937 
Rotational constants in MHz :  5506.217857  2497.567370  1736.898663 

 Dipole components along the rotational axes: 
x,y,z [a.u.] :     0.157441     0.015533     0.000001 
x,y,z [Debye]:     0.400182     0.039482     0.000002 

 

Timings for individual modules:

Sum of individual times         ...     2055.770 sec (=  34.263 min)
GTO integral calculation        ...        5.394 sec (=   0.090 min)   0.3 %
SCF iterations                  ...     2050.376 sec (=  34.173 min)  99.7 %
                             ****ORCA TERMINATED NORMALLY****
TOTAL RUN TIME: 0 days 0 hours 34 minutes 20 seconds 693 msec
