
                                 *****************
                                 * O   R   C   A *
                                 *****************

                                            #,                                       
                                            ###                                      
                                            ####                                     
                                            #####                                    
                                            ######                                   
                                           ########,                                 
                                     ,,################,,,,,                         
                               ,,#################################,,                 
                          ,,##########################################,,             
                       ,#########################################, ''#####,          
                    ,#############################################,,   '####,        
                  ,##################################################,,,,####,       
                ,###########''''           ''''###############################       
              ,#####''   ,,,,##########,,,,          '''####'''          '####       
            ,##' ,,,,###########################,,,                        '##       
           ' ,,###''''                  '''############,,,                           
         ,,##''                                '''############,,,,        ,,,,,,###''
      ,#''                                            '''#######################'''  
     '                                                          ''''####''''         
             ,#######,   #######,   ,#######,      ##                                
            ,#'     '#,  ##    ##  ,#'     '#,    #''#        ######   ,####,        
            ##       ##  ##   ,#'  ##            #'  '#       #        #'  '#        
            ##       ##  #######   ##           ,######,      #####,   #    #        
            '#,     ,#'  ##    ##  '#,     ,#' ,#      #,         ##   #,  ,#        
             '#######'   ##     ##  '#######'  #'      '#     #####' # '####'        



                  #######################################################
                  #                        -***-                        #
                  #          Department of theory and spectroscopy      #
                  #    Directorship and core code : Frank Neese         #
                  #        Max Planck Institute fuer Kohlenforschung    #
                  #                Kaiser Wilhelm Platz 1               #
                  #                 D-45470 Muelheim/Ruhr               #
                  #                      Germany                        #
                  #                                                     #
                  #                  All rights reserved                #
                  #                        -***-                        #
                  #######################################################



                         Program Version 5.0.4 -  RELEASE  -

 With contributions from (in alphabetic order):
   Daniel Aravena         : Magnetic Suceptibility
   Michael Atanasov       : Ab Initio Ligand Field Theory (pilot matlab implementation)
   Alexander A. Auer      : GIAO ZORA, VPT2 properties, NMR spectrum
   Ute Becker             : Parallelization
   Giovanni Bistoni       : ED, misc. LED, open-shell LED, HFLD
   Martin Brehm           : Molecular dynamics
   Dmytro Bykov           : SCF Hessian
   Vijay G. Chilkuri      : MRCI spin determinant printing, contributions to CSF-ICE
   Dipayan Datta          : RHF DLPNO-CCSD density
   Achintya Kumar Dutta   : EOM-CC, STEOM-CC
   Dmitry Ganyushin       : Spin-Orbit,Spin-Spin,Magnetic field MRCI
   Miquel Garcia          : C-PCM and meta-GGA Hessian, CC/C-PCM, Gaussian charge scheme
   Yang Guo               : DLPNO-NEVPT2, F12-NEVPT2, CIM, IAO-localization
   Andreas Hansen         : Spin unrestricted coupled pair/coupled cluster methods
   Benjamin Helmich-Paris : MC-RPA, TRAH-SCF, COSX integrals
   Lee Huntington         : MR-EOM, pCC
   Robert Izsak           : Overlap fitted RIJCOSX, COSX-SCS-MP3, EOM
   Marcus Kettner         : VPT2
   Christian Kollmar      : KDIIS, OOCD, Brueckner-CCSD(T), CCSD density, CASPT2, CASPT2-K
   Simone Kossmann        : Meta GGA functionals, TD-DFT gradient, OOMP2, MP2 Hessian
   Martin Krupicka        : Initial AUTO-CI
   Lucas Lang             : DCDCAS
   Marvin Lechner         : AUTO-CI (C++ implementation), FIC-MRCC
   Dagmar Lenk            : GEPOL surface, SMD
   Dimitrios Liakos       : Extrapolation schemes; Compound Job, initial MDCI parallelization
   Dimitrios Manganas     : Further ROCIS development; embedding schemes
   Dimitrios Pantazis     : SARC Basis sets
   Anastasios Papadopoulos: AUTO-CI, single reference methods and gradients
   Taras Petrenko         : DFT Hessian,TD-DFT gradient, ASA, ECA, R-Raman, ABS, FL, XAS/XES, NRVS
   Peter Pinski           : DLPNO-MP2, DLPNO-MP2 Gradient
   Christoph Reimann      : Effective Core Potentials
   Marius Retegan         : Local ZFS, SOC
   Christoph Riplinger    : Optimizer, TS searches, QM/MM, DLPNO-CCSD(T), (RO)-DLPNO pert. Triples
   Tobias Risthaus        : Range-separated hybrids, TD-DFT gradient, RPA, STAB
   Michael Roemelt        : Original ROCIS implementation
   Masaaki Saitow         : Open-shell DLPNO-CCSD energy and density
   Barbara Sandhoefer     : DKH picture change effects
   Avijit Sen             : IP-ROCIS
   Kantharuban Sivalingam : CASSCF convergence, NEVPT2, FIC-MRCI
   Bernardo de Souza      : ESD, SOC TD-DFT
   Georgi Stoychev        : AutoAux, RI-MP2 NMR, DLPNO-MP2 response
   Willem Van den Heuvel  : Paramagnetic NMR
   Boris Wezisla          : Elementary symmetry handling
   Frank Wennmohs         : Technical directorship


 We gratefully acknowledge several colleagues who have allowed us to
 interface, adapt or use parts of their codes:
   Stefan Grimme, W. Hujo, H. Kruse, P. Pracht,  : VdW corrections, initial TS optimization,
                  C. Bannwarth, S. Ehlert          DFT functionals, gCP, sTDA/sTD-DF
   Ed Valeev, F. Pavosevic, A. Kumar             : LibInt (2-el integral package), F12 methods
   Garnet Chan, S. Sharma, J. Yang, R. Olivares  : DMRG
   Ulf Ekstrom                                   : XCFun DFT Library
   Mihaly Kallay                                 : mrcc  (arbitrary order and MRCC methods)
   Jiri Pittner, Ondrej Demel                    : Mk-CCSD
   Frank Weinhold                                : gennbo (NPA and NBO analysis)
   Christopher J. Cramer and Donald G. Truhlar   : smd solvation model
   Lars Goerigk                                  : TD-DFT with DH, B97 family of functionals
   V. Asgeirsson, H. Jonsson                     : NEB implementation
   FAccTs GmbH                                   : IRC, NEB, NEB-TS, DLPNO-Multilevel, CI-OPT
                                                   MM, QMMM, 2- and 3-layer-ONIOM, Crystal-QMMM,
                                                   LR-CPCM, SF, NACMEs, symmetry and pop. for TD-DFT,
                                                   nearIR, NL-DFT gradient (VV10), updates on ESD,
                                                   ML-optimized integration grids
   S Lehtola, MJT Oliveira, MAL Marques          : LibXC Library
   Liviu Ungur et al                             : ANISO software


 Your calculation uses the libint2 library for the computation of 2-el integrals
 For citations please refer to: http://libint.valeyev.net

 Your ORCA version has been built with support for libXC version: 5.1.0
 For citations please refer to: https://tddft.org/programs/libxc/

 This ORCA versions uses:
   CBLAS   interface :  Fast vector & matrix operations
   LAPACKE interface :  Fast linear algebra routines
   Shared memory     :  Shared parallel matrices


Your calculation utilizes the atom-pairwise dispersion correction
based on tight binding partial charges (D4)
Cite in your paper:
E.Caldeweyher, C.Bannwarth, S.Grimme, J.Chem.Phys., (2017), 147, 034112.
E.Caldeweyher, S.Ehlert, A.Hansen, H.Neugebauer, S.Grimme, J.Chem.Phys., (2018), in progress.
   

================================================================================

----- Orbital basis set information -----
Your calculation utilizes the basis: def2-SVP
   F. Weigend and R. Ahlrichs, Phys. Chem. Chem. Phys. 7, 3297 (2005).

----- AuxJ basis set information -----
Your calculation utilizes the auxiliary basis: def2/J
   F. Weigend, Phys. Chem. Chem. Phys. 8, 1057 (2006).

================================================================================
                                        WARNINGS
                       Please study these warnings very carefully!
================================================================================


WARNING: Geometry Optimization
  ===> : Switching off AutoStart
         For restart on a previous wavefunction, please use MOREAD

INFO   : the flag for use of the SHARK integral package has been found!

================================================================================
                                       INPUT FILE
================================================================================
NAME = opt.inp
|  1> !B3LYP DEF2-SVP OPT FREQ D4 SOSCF
|  2> 
|  3> %geom
|  4> maxIter 1000
|  5> end
|  6> 
|  7> * xyz 1 1
|  8>   C   -2.93642400657119      1.52448633955374     -1.00835440393537
|  9>   C   -3.26384386194752      0.31863600012106     -1.71819537577311
| 10>   C   -2.63638325151483     -0.86939210886684     -1.38248891297789
| 11>   C   -1.66671656090727     -0.91053893447515     -0.36639617054953
| 12>   C   -1.34964483282395      0.27810152526376      0.31294382416921
| 13>   C   -1.95054920011320      1.48419434134220      0.02985270703003
| 14>   H   -4.01625866577039      0.35214940864157     -2.49844514156617
| 15>   H   -2.89185387917361     -1.78247849234647     -1.91219677120532
| 16>   H   -1.15985798484683     -1.83671074977457     -0.08578933794533
| 17>   H   6.76525987153493     -0.60891901520206     11.72725311255678
| 18>   H   -1.65898538780680      2.36595275833438      0.60980748629110
| 19>   N   -3.54417686911341      2.68166912170208     -1.31629474941422
| 20>   H   -4.24893048800469      2.73489371322973     -2.04593704812300
| 21>   H   -3.31708880906205      3.54301620662048     -0.82494661298862
| 22>   N   -0.32505828066532      0.22547765887326      1.40243474355625
| 23>   O   -0.05296274064059      1.26628522627674      1.96071063537401
| 24>   O   0.15696494742687     -0.86648299929396      1.63725201550113
| 25> 
| 26> **                         ****END OF INPUT****
================================================================================

                       *****************************
                       * Geometry Optimization Run *
                       *****************************

Geometry optimization settings:
Update method            Update   .... BFGS
Choice of coordinates    CoordSys .... Z-matrix Internals
Initial Hessian          InHess   .... Almoef's Model

Convergence Tolerances:
Energy Change            TolE     ....  5.0000e-06 Eh
Max. Gradient            TolMAXG  ....  3.0000e-04 Eh/bohr
RMS Gradient             TolRMSG  ....  1.0000e-04 Eh/bohr
Max. Displacement        TolMAXD  ....  4.0000e-03 bohr
RMS Displacement         TolRMSD  ....  2.0000e-03 bohr
Strict Convergence                ....  False
------------------------------------------------------------------------------
                        ORCA OPTIMIZATION COORDINATE SETUP
------------------------------------------------------------------------------

The optimization will be done in new redundant internal coordinates
Making redundant internal coordinates   ...  (new redundants) done
Evaluating the initial hessian          ...  (Almloef) done
Evaluating the coordinates              ...  done
Calculating the B-matrix                .... done
Calculating the G-matrix                .... done
Diagonalizing the G-matrix              .... done
Small eigenvalue found = 1.128e-02
Small eigenvalue found = 2.995e-02
The first mode is                       ....   50
The number of degrees of freedom        ....   45

    -----------------------------------------------------------------
                    Redundant Internal Coordinates


    -----------------------------------------------------------------
         Definition                    Initial Value    Approx d2E/dq
    -----------------------------------------------------------------
      1. B(C   1,C   0)                  1.4371         0.525595   
      2. B(C   2,C   1)                  1.3849         0.636724   
      3. B(C   3,C   2)                  1.4051         0.591016   
      4. B(C   4,C   3)                  1.4053         0.590620   
      5. B(C   5,C   4)                  1.3769         0.655571   
      6. B(C   5,C   0)                  1.4323         0.534899   
      7. B(H   6,C   1)                  1.0845         0.367512   
      8. B(H   7,C   2)                  1.0861         0.365315   
      9. B(H   8,C   3)                  1.0924         0.356878   
     10. B(H  10,C   5)                  1.0949         0.353647   
     11. B(N  11,C   0)                  1.3429         0.665412   
     12. B(H  12,N  11)                  1.0158         0.423556   
     13. B(H  13,N  11)                  1.0173         0.421249   
     14. B(N  14,C   4)                  1.4965         0.378397   
     15. B(N  14,H   9)                 12.5527         0.000000   
     16. B(O  15,N  14)                  1.2120         0.963764   
     17. B(O  15,H   9)                 12.0578         0.000000   
     18. B(O  16,H   9)                 12.0642         0.000000   
     19. B(O  16,N  14)                  1.2165         0.948039   
     20. A(C   1,C   0,C   5)          119.4239         0.410478   
     21. A(C   5,C   0,N  11)          120.1315         0.425317   
     22. A(C   1,C   0,N  11)          120.4441         0.423984   
     23. A(C   0,C   1,H   6)          119.1790         0.344399   
     24. A(C   2,C   1,H   6)          121.0165         0.355731   
     25. A(C   0,C   1,C   2)          119.7935         0.423411   
     26. A(C   3,C   2,H   7)          119.3663         0.350916   
     27. A(C   1,C   2,H   7)          119.7634         0.355369   
     28. A(C   1,C   2,C   3)          120.8698         0.432410   
     29. A(C   2,C   3,C   4)          118.7180         0.426617   
     30. A(C   2,C   3,H   8)          122.0561         0.349534   
     31. A(C   4,C   3,H   8)          119.2244         0.349495   
     32. A(C   3,C   4,C   5)          122.8904         0.434632   
     33. A(C   5,C   4,N  14)          118.6380         0.398928   
     34. A(C   3,C   4,N  14)          118.4677         0.391695   
     35. A(C   4,C   5,H  10)          118.7048         0.355171   
     36. A(C   0,C   5,H  10)          122.9958         0.343193   
     37. A(C   0,C   5,C   4)          118.2985         0.426966   
     38. A(N  14,H   9,O  16)            5.1888         0.089000   
     39. A(N  14,H   9,O  15)            5.1542         0.089000   
     40. A(O  15,H   9,O  16)           10.3099         0.089000   
     41. A(H  12,N  11,H  13)          117.2212         0.300932   
     42. A(C   0,N  11,H  13)          121.1874         0.361358   
     43. A(C   0,N  11,H  12)          121.5913         0.361695   
     44. A(H   9,N  14,O  16)           63.7526         0.089020   
     45. A(H   9,N  14,O  15)           63.3468         0.089020   
     46. A(C   4,N  14,H   9)          171.0662         0.089016   
     47. A(O  15,N  14,O  16)          126.3674         0.494986   
     48. A(C   4,N  14,O  16)          116.3196         0.420339   
     49. A(C   4,N  14,O  15)          117.3126         0.421575   
     50. A(H   9,O  15,N  14)          111.4990         0.089030   
     51. A(H   9,O  16,N  14)          111.0585         0.089030   
     52. D(C   2,C   1,C   0,C   5)      0.7339         0.018849   
     53. D(H   6,C   1,C   0,N  11)     -0.6883         0.018849   
     54. D(C   2,C   1,C   0,N  11)   -179.4968         0.018849   
     55. D(H   6,C   1,C   0,C   5)    179.5424         0.018849   
     56. D(H   7,C   2,C   1,H   6)      0.5683         0.028149   
     57. D(C   3,C   2,C   1,C   0)     -0.8917         0.028149   
     58. D(H   7,C   2,C   1,C   0)    179.3545         0.028149   
     59. D(C   3,C   2,C   1,H   6)   -179.6778         0.028149   
     60. D(H   8,C   3,C   2,H   7)     -0.2511         0.024042   
     61. D(H   8,C   3,C   2,C   1)    179.9941         0.024042   
     62. D(C   4,C   3,C   2,C   1)      0.4394         0.024042   
     63. D(C   4,C   3,C   2,H   7)   -179.8059         0.024042   
     64. D(N  14,C   4,C   3,C   2)    179.4580         0.024008   
     65. D(C   5,C   4,C   3,H   8)   -179.3773         0.024008   
     66. D(C   5,C   4,C   3,C   2)      0.1903         0.024008   
     67. D(N  14,C   4,C   3,H   8)     -0.1096         0.024008   
     68. D(H  10,C   5,C   4,N  14)      0.0645         0.029960   
     69. D(C   0,C   5,C   4,N  14)   -179.5991         0.029960   
     70. D(C   0,C   5,C   4,C   3)     -0.3326         0.029960   
     71. D(H  10,C   5,C   0,N  11)      0.4536         0.019539   
     72. D(C   4,C   5,C   0,N  11)   -179.8981         0.019539   
     73. D(H  10,C   5,C   4,C   3)    179.3310         0.029960   
     74. D(C   4,C   5,C   0,C   1)     -0.1281         0.019539   
     75. D(H  10,C   5,C   0,C   1)   -179.7764         0.019539   
     76. D(H  13,N  11,C   0,C   5)      0.1377         0.036286   
     77. D(H  13,N  11,C   0,C   1)   -179.6300         0.036286   
     78. D(H  12,N  11,C   0,C   5)   -179.7619         0.036286   
     79. D(H  12,N  11,C   0,C   1)      0.4705         0.036286   
     80. D(O  16,N  14,C   4,C   3)     -0.8889         0.012264   
     81. D(O  15,N  14,C   4,C   5)     -1.7879         0.012264   
     82. D(O  15,N  14,C   4,C   3)    178.9128         0.012264   
     83. D(O  16,N  14,H   9,O  15)    170.8328         0.001500   
     84. D(O  15,N  14,H   9,O  16)   -170.8328         0.001500   
     85. D(C   4,N  14,H   9,O  16)     92.6731         0.001500   
     86. D(C   4,N  14,H   9,O  15)    -96.4941         0.001500   
     87. D(H   9,N  14,C   4,C   5)     90.1595         0.012264   
     88. D(H   9,N  14,C   4,C   3)    -89.1399         0.012264   
     89. D(O  16,N  14,C   4,C   5)    178.4105         0.012264   
     90. D(H   9,O  15,N  14,O  16)    -10.2214         0.099270   
     91. D(H   9,O  15,N  14,C   4)    169.9995         0.099270   
     92. D(N  14,O  15,H   9,O  16)      4.6177         0.001500   
     93. D(H   9,O  16,N  14,O  15)     10.1850         0.095543   
     94. D(H   9,O  16,N  14,C   4)   -170.0339         0.095543   
     95. D(N  14,O  16,H   9,O  15)     -4.5868         0.001500   
    -----------------------------------------------------------------

Number of atoms                         .... 17
Number of degrees of freedom            .... 95

         *************************************************************
         *                GEOMETRY OPTIMIZATION CYCLE   1            *
         *************************************************************
---------------------------------
CARTESIAN COORDINATES (ANGSTROEM)
---------------------------------
  C     -2.936424    1.524486   -1.008354
  C     -3.263844    0.318636   -1.718195
  C     -2.636383   -0.869392   -1.382489
  C     -1.666717   -0.910539   -0.366396
  C     -1.349645    0.278102    0.312944
  C     -1.950549    1.484194    0.029853
  H     -4.016259    0.352149   -2.498445
  H     -2.891854   -1.782478   -1.912197
  H     -1.159858   -1.836711   -0.085789
  H      6.765260   -0.608919   11.727253
  H     -1.658985    2.365953    0.609807
  N     -3.544177    2.681669   -1.316295
  H     -4.248930    2.734894   -2.045937
  H     -3.317089    3.543016   -0.824947
  N     -0.325058    0.225478    1.402435
  O     -0.052963    1.266285    1.960711
  O      0.156965   -0.866483    1.637252

----------------------------
CARTESIAN COORDINATES (A.U.)
----------------------------
  NO LB      ZA    FRAG     MASS         X           Y           Z
   0 C     6.0000    0    12.011   -5.549037    2.880862   -1.905514
   1 C     6.0000    0    12.011   -6.167771    0.602135   -3.246919
   2 C     6.0000    0    12.011   -4.982042   -1.642913   -2.612525
   3 C     6.0000    0    12.011   -3.149638   -1.720669   -0.692388
   4 C     6.0000    0    12.011   -2.550459    0.525536    0.591378
   5 C     6.0000    0    12.011   -3.686004    2.804721    0.056413
   6 H     1.0000    0     1.008   -7.589629    0.665466   -4.721377
   7 H     1.0000    0     1.008   -5.464812   -3.368396   -3.613528
   8 H     1.0000    0     1.008   -2.191814   -3.470880   -0.162118
   9 H     1.0000    0     1.008   12.784488   -1.150690   22.161297
  10 H     1.0000    0     1.008   -3.135028    4.471003    1.152369
  11 N     7.0000    0    14.007   -6.697524    5.067620   -2.487437
  12 H     1.0000    0     1.008   -8.029315    5.168200   -3.866261
  13 H     1.0000    0     1.008   -6.268389    6.695330   -1.558923
  14 N     7.0000    0    14.007   -0.614271    0.426091    2.650218
  15 O     8.0000    0    15.999   -0.100085    2.392932    3.705206
  16 O     8.0000    0    15.999    0.296621   -1.637416    3.093958

--------------------------------
INTERNAL COORDINATES (ANGSTROEM)
--------------------------------
 C      0   0   0     0.000000000000     0.00000000     0.00000000
 C      1   0   0     1.437064023662     0.00000000     0.00000000
 C      2   1   0     1.384852495594   119.79350312     0.00000000
 C      3   2   1     1.405130247823   120.86984806   359.10831710
 C      4   3   2     1.405312581493   118.71804842     0.43936547
 C      5   4   3     1.376911950789   122.89039993     0.19026692
 H      2   1   3     1.084454186484   119.17900534   178.80852651
 H      3   2   1     1.086085816296   119.76336113   179.35451406
 H      4   3   2     1.092446814305   122.05606706   179.99412979
 H      5   4   3    14.032994702878   118.04781085   170.40309100
 H      6   5   4     1.094922329926   118.70476362   179.33103231
 N      1   2   3     1.342856205855   120.44411543   180.50318557
 H     12   1   2     1.015819080619   121.59133503     0.47051269
 H     12   1   2     1.017305646738   121.18737337   180.37004279
 N      5   4   3     1.496508382070   118.46766632   179.45796793
 O     15   5   4     1.212018294685   117.31258883   178.91276334
 O     15   5   4     1.216496454006   116.31963183   359.11113748

---------------------------
INTERNAL COORDINATES (A.U.)
---------------------------
 C      0   0   0     0.000000000000     0.00000000     0.00000000
 C      1   0   0     2.715657441632     0.00000000     0.00000000
 C      2   1   0     2.616991952550   119.79350312     0.00000000
 C      3   2   1     2.655311350874   120.86984806   359.10831710
 C      4   3   2     2.655655911576   118.71804842     0.43936547
 C      5   4   3     2.601986497515   122.89039993     0.19026692
 H      2   1   3     2.049321417239   119.17900534   178.80852651
 H      3   2   1     2.052404750736   119.76336113   179.35451406
 H      4   3   2     2.064425294911   122.05606706   179.99412979
 H      5   4   3    26.518516827207   118.04781085   170.40309100
 H      6   5   4     2.069103341475   118.70476362   179.33103231
 N      1   2   3     2.537630466302   120.44411543   180.50318557
 H     12   1   2     1.919619863981   121.59133503     0.47051269
 H     12   1   2     1.922429066826   121.18737337   180.37004279
 N      5   4   3     2.827990999229   118.46766632   179.45796793
 O     15   5   4     2.290382646257   117.31258883   178.91276334
 O     15   5   4     2.298845140958   116.31963183   359.11113748

---------------------
BASIS SET INFORMATION
---------------------
There are 4 groups of distinct atoms

 Group   1 Type C   : 7s4p1d contracted to 3s2p1d pattern {511/31/1}
 Group   2 Type H   : 4s1p contracted to 2s1p pattern {31/1}
 Group   3 Type N   : 7s4p1d contracted to 3s2p1d pattern {511/31/1}
 Group   4 Type O   : 7s4p1d contracted to 3s2p1d pattern {511/31/1}

Atom   0C    basis set group =>   1
Atom   1C    basis set group =>   1
Atom   2C    basis set group =>   1
Atom   3C    basis set group =>   1
Atom   4C    basis set group =>   1
Atom   5C    basis set group =>   1
Atom   6H    basis set group =>   2
Atom   7H    basis set group =>   2
Atom   8H    basis set group =>   2
Atom   9H    basis set group =>   2
Atom  10H    basis set group =>   2
Atom  11N    basis set group =>   3
Atom  12H    basis set group =>   2
Atom  13H    basis set group =>   2
Atom  14N    basis set group =>   3
Atom  15O    basis set group =>   4
Atom  16O    basis set group =>   4
---------------------------------
AUXILIARY/J BASIS SET INFORMATION
---------------------------------
There are 4 groups of distinct atoms

 Group   1 Type C   : 12s5p4d2f1g contracted to 6s4p3d1f1g pattern {711111/2111/211/2/1}
 Group   2 Type H   : 5s2p1d contracted to 3s1p1d pattern {311/2/1}
 Group   3 Type N   : 12s5p4d2f1g contracted to 6s4p3d1f1g pattern {711111/2111/211/2/1}
 Group   4 Type O   : 12s5p4d2f1g contracted to 6s4p3d1f1g pattern {711111/2111/211/2/1}

Atom   0C    basis set group =>   1
Atom   1C    basis set group =>   1
Atom   2C    basis set group =>   1
Atom   3C    basis set group =>   1
Atom   4C    basis set group =>   1
Atom   5C    basis set group =>   1
Atom   6H    basis set group =>   2
Atom   7H    basis set group =>   2
Atom   8H    basis set group =>   2
Atom   9H    basis set group =>   2
Atom  10H    basis set group =>   2
Atom  11N    basis set group =>   3
Atom  12H    basis set group =>   2
Atom  13H    basis set group =>   2
Atom  14N    basis set group =>   3
Atom  15O    basis set group =>   4
Atom  16O    basis set group =>   4
------------------------------------------------------------------------------
                           ORCA GTO INTEGRAL CALCULATION
                           -- RI-GTO INTEGRALS CHOSEN --
------------------------------------------------------------------------------
------------------------------------------------------------------------------
                   ___                                                        
                  /   \      - P O W E R E D   B Y -                         
                 /     \                                                     
                 |  |  |   _    _      __       _____    __    __             
                 |  |  |  | |  | |    /  \     |  _  \  |  |  /  |          
                  \  \/   | |  | |   /    \    | | | |  |  | /  /          
                 / \  \   | |__| |  /  /\  \   | |_| |  |  |/  /          
                |  |  |   |  __  | /  /__\  \  |    /   |      \           
                |  |  |   | |  | | |   __   |  |    \   |  |\   \          
                \     /   | |  | | |  |  |  |  | |\  \  |  | \   \       
                 \___/    |_|  |_| |__|  |__|  |_| \__\ |__|  \__/        
                                                                              
                      - O R C A' S   B I G   F R I E N D -                    
                                      &                                       
                       - I N T E G R A L  F E E D E R -                       
                                                                              
 v1 FN, 2020, v2 2021                                                         
------------------------------------------------------------------------------


Reading SHARK input file opt.SHARKINP.tmp ... ok
----------------------
SHARK INTEGRAL PACKAGE
----------------------

Number of atoms                             ...     17
Number of basis functions                   ...    175
Number of shells                            ...     81
Maximum angular momentum                    ...      2
Integral batch strategy                     ... SHARK/LIBINT Hybrid
RI-J (if used) integral strategy            ... SPLIT-RIJ (Revised 2003 algorithm where possible)
Printlevel                                  ...      1
Contraction scheme used                     ... SEGMENTED contraction
Coulomb Range Separation                    ... NOT USED
Exchange Range Separation                   ... NOT USED
Finite Nucleus Model                        ... NOT USED
Auxiliary Coulomb fitting basis             ... AVAILABLE
   # of basis functions in Aux-J            ...    567
   # of shells in Aux-J                     ...    185
   Maximum angular momentum in Aux-J        ...      4
Auxiliary J/K fitting basis                 ... NOT available
Auxiliary Correlation fitting basis         ... NOT available
Auxiliary 'external' fitting basis          ... NOT available
Integral threshold                          ...     2.500000e-11
Primitive cut-off                           ...     2.500000e-12
Primitive pair pre-selection threshold      ...     2.500000e-12

Calculating pre-screening integrals         ... done (  0.1 sec) Dimension = 81
Organizing shell pair data                  ... done (  0.2 sec)
Shell pair information
Total number of shell pairs                 ...      3321
Shell pairs after pre-screening             ...      2793
Total number of primitive shell pairs       ...     12241
Primitive shell pairs kept                  ...      7454
          la=0 lb=0:    818 shell pairs
          la=1 lb=0:   1000 shell pairs
          la=1 lb=1:    328 shell pairs
          la=2 lb=0:    367 shell pairs
          la=2 lb=1:    232 shell pairs
          la=2 lb=2:     48 shell pairs

Calculating one electron integrals          ... done (  0.1 sec)
Calculating RI/J V-Matrix + Cholesky decomp.... done (  0.1 sec)
Calculating Nuclear repulsion               ... done (  0.0 sec) ENN=    499.282096499242 Eh

SHARK setup successfully completed in   0.7 seconds

Maximum memory used throughout the entire GTOINT-calculation: 23.9 MB
-------------------------------------------------------------------------------
                                 ORCA SCF
-------------------------------------------------------------------------------

------------
SCF SETTINGS
------------
Hamiltonian:
 Density Functional     Method          .... DFT(GTOs)
 Exchange Functional    Exchange        .... B88
   X-Alpha parameter    XAlpha          ....  0.666667
   Becke's b parameter  XBeta           ....  0.004200
 Correlation Functional Correlation     .... LYP
 LDA part of GGA corr.  LDAOpt          .... VWN-5
 Gradients option       PostSCFGGA      .... off
 Hybrid DFT is turned on
   Fraction HF Exchange ScalHFX         ....  0.200000
   Scaling of DF-GGA-X  ScalDFX         ....  0.720000
   Scaling of DF-GGA-C  ScalDFC         ....  0.810000
   Scaling of DF-LDA-C  ScalLDAC        ....  1.000000
   Perturbative correction              ....  0.000000
   Density functional embedding theory  .... OFF
   NL short-range parameter             ....  4.800000
 RI-approximation to the Coulomb term is turned on
   Number of AuxJ basis functions       .... 567
   RIJ-COSX (HFX calculated with COS-X)).... on


General Settings:
 Integral files         IntName         .... opt
 Hartree-Fock type      HFTyp           .... RHF
 Total Charge           Charge          ....    1
 Multiplicity           Mult            ....    1
 Number of Electrons    NEL             ....   72
 Basis Dimension        Dim             ....  175
 Nuclear Repulsion      ENuc            ....    499.2820964992 Eh

Convergence Acceleration:
 DIIS                   CNVDIIS         .... on
   Start iteration      DIISMaxIt       ....    12
   Startup error        DIISStart       ....  0.200000
   # of expansion vecs  DIISMaxEq       ....     5
   Bias factor          DIISBfac        ....   1.050
   Max. coefficient     DIISMaxC        ....  10.000
 Trust-Rad. Augm. Hess. CNVTRAH         .... auto
   Auto Start mean grad. ratio tolernc. ....  1.125000
   Auto Start start iteration           ....    20
   Auto Start num. interpolation iter.  ....    10
   Max. Number of Micro iterations      ....    16
   Max. Number of Macro iterations      .... Maxiter - #DIIS iter
   Number of Davidson start vectors     ....     2
   Converg. threshold I  (grad. norm)   ....   1.000e-05
   Converg. threshold II (energy diff.) ....   1.000e-08
   Grad. Scal. Fac. for Micro threshold ....   0.100
   Minimum threshold for Micro iter.    ....   0.010
   NR start threshold (gradient norm)   ....   0.001
   Initial trust radius                 ....   0.400
   Minimum AH scaling param. (alpha)    ....   1.000
   Maximum AH scaling param. (alpha)    .... 1000.000
   Orbital update algorithm             .... Taylor
   White noise on init. David. guess    .... on
   Maximum white noise                  ....   0.010
   Quad. conv. algorithm                .... NR
 SOSCF                  CNVSOSCF        .... on
   Start iteration      SOSCFMaxIt      ....   150
   Startup grad/error   SOSCFStart      ....  0.003300
 Level Shifting         CNVShift        .... on
   Level shift para.    LevelShift      ....    0.2500
   Turn off err/grad.   ShiftErr        ....    0.0010
 Zerner damping         CNVZerner       .... off
 Static damping         CNVDamp         .... on
   Fraction old density DampFac         ....    0.7000
   Max. Damping (<1)    DampMax         ....    0.9800
   Min. Damping (>=0)   DampMin         ....    0.0000
   Turn off err/grad.   DampErr         ....    0.1000
 Fernandez-Rico         CNVRico         .... off

SCF Procedure:
 Maximum # iterations   MaxIter         ....   125
 SCF integral mode      SCFMode         .... Direct
   Integral package                     .... SHARK and LIBINT hybrid scheme
 Reset frequency        DirectResetFreq ....    20
 Integral Threshold     Thresh          ....  2.500e-11 Eh
 Primitive CutOff       TCut            ....  2.500e-12 Eh

Convergence Tolerance:
 Convergence Check Mode ConvCheckMode   .... Total+1el-Energy
 Convergence forced     ConvForced      .... 0
 Energy Change          TolE            ....  1.000e-08 Eh
 1-El. energy change                    ....  1.000e-05 Eh
 Orbital Gradient       TolG            ....  1.000e-05
 Orbital Rotation angle TolX            ....  1.000e-05
 DIIS Error             TolErr          ....  5.000e-07


Diagonalization of the overlap matrix:
Smallest eigenvalue                        ... 2.944e-04
Time for diagonalization                   ...    0.011 sec
Threshold for overlap eigenvalues          ... 1.000e-08
Number of eigenvalues below threshold      ... 0
Time for construction of square roots      ...    0.006 sec
Total time needed                          ...    0.018 sec

Time for model grid setup =    0.507 sec

------------------------------
INITIAL GUESS: MODEL POTENTIAL
------------------------------
Loading Hartree-Fock densities                     ... done
Calculating cut-offs                               ... done
Initializing the effective Hamiltonian             ... done
Setting up the integral package (SHARK)            ... done
Starting the Coulomb interaction                   ... done (   0.6 sec)
Reading the grid                                   ... done
Mapping shells                                     ... done
Starting the XC term evaluation                    ... done (   0.5 sec)
  promolecular density results
     # of electrons  =     72.994946802
     EX              =    -62.433506925
     EC              =     -2.504782113
     EX+EC           =    -64.938289038
Transforming the Hamiltonian                       ... done (   0.0 sec)
Diagonalizing the Hamiltonian                      ... done (   0.0 sec)
Back transforming the eigenvectors                 ... done (   0.0 sec)
Now organizing SCF variables                       ... done
                      ------------------
                      INITIAL GUESS DONE (   1.6 sec)
                      ------------------
-------------------
DFT GRID GENERATION
-------------------

General Integration Accuracy     IntAcc      ... 4.388
Radial Grid Type                 RadialGrid  ... OptM3 with GC (2021)
Angular Grid (max. ang.)         AngularGrid ... 4 (Lebedev-302)
Angular grid pruning method      GridPruning ... 4 (adaptive)
Weight generation scheme         WeightScheme... Becke
Basis function cutoff            BFCut       ... 1.0000e-11
Integration weight cutoff        WCut        ... 1.0000e-14
Angular grids for H and He will be reduced by one unit
Partially contracted basis set               ... off
Rotationally invariant grid construction     ... off

Total number of grid points                  ...    83070
Total number of batches                      ...     1307
Average number of points per batch           ...       63
Average number of grid points per atom       ...     4886
Time for grid setup =    1.535 sec

--------------------
COSX GRID GENERATION
--------------------

GRIDX 1
-------
General Integration Accuracy     IntAcc      ... 3.816
Radial Grid Type                 RadialGrid  ... OptM3 with GC (2021)
Angular Grid (max. ang.)         AngularGrid ... 1 (Lebedev-50)
Angular grid pruning method      GridPruning ... 4 (adaptive)
Weight generation scheme         WeightScheme... Becke
Basis function cutoff            BFCut       ... 1.0000e-11
Integration weight cutoff        WCut        ... 1.0000e-14
Angular grids for H and He will be reduced by one unit
Partially contracted basis set               ... on
Rotationally invariant grid construction     ... off

Total number of grid points                  ...    10554
Total number of batches                      ...      172
Average number of points per batch           ...       61
Average number of grid points per atom       ...      621
UseSFitting                                  ... on

GRIDX 2
-------
General Integration Accuracy     IntAcc      ... 4.020
Radial Grid Type                 RadialGrid  ... OptM3 with GC (2021)
Angular Grid (max. ang.)         AngularGrid ... 2 (Lebedev-110)
Angular grid pruning method      GridPruning ... 4 (adaptive)
Weight generation scheme         WeightScheme... Becke
Basis function cutoff            BFCut       ... 1.0000e-11
Integration weight cutoff        WCut        ... 1.0000e-14
Angular grids for H and He will be reduced by one unit
Partially contracted basis set               ... on
Rotationally invariant grid construction     ... off

Total number of grid points                  ...    23504
Total number of batches                      ...      375
Average number of points per batch           ...       62
Average number of grid points per atom       ...     1383
UseSFitting                                  ... on

GRIDX 3
-------
General Integration Accuracy     IntAcc      ... 4.338
Radial Grid Type                 RadialGrid  ... OptM3 with GC (2021)
Angular Grid (max. ang.)         AngularGrid ... 3 (Lebedev-194)
Angular grid pruning method      GridPruning ... 4 (adaptive)
Weight generation scheme         WeightScheme... Becke
Basis function cutoff            BFCut       ... 1.0000e-11
Integration weight cutoff        WCut        ... 1.0000e-14
Angular grids for H and He will be reduced by one unit
Partially contracted basis set               ... on
Rotationally invariant grid construction     ... off

Total number of grid points                  ...    51806
Total number of batches                      ...      818
Average number of points per batch           ...       63
Average number of grid points per atom       ...     3047
UseSFitting                                  ... on

Time for X-Grid setup             =    2.122 sec

--------------
SCF ITERATIONS
--------------
ITER       Energy         Delta-E        Max-DP      RMS-DP      [F,P]     Damp
               ***  Starting incremental Fock matrix formation  ***
  0   -491.1891092688   0.000000000000 0.20729142  0.00380686  0.2183118 0.7000
  1   -491.4897893542  -0.300680085437 0.15059444  0.00242783  0.0729172 0.7000
                               ***Turning on DIIS***
  2   -491.5050541277  -0.015264773495 0.37999998  0.00523218  0.0360833 0.0000
  3   -491.1310231022   0.374031025581 0.18940997  0.00249000  0.2005496 0.7000
  4   -491.4929310833  -0.361907981111 0.44195659  0.00581007  0.0587248 0.0000
  5   -491.4363920426   0.056539040635 0.01707077  0.00059065  0.0998119 0.0000
  6   -491.4526786269  -0.016286584269 0.00771954  0.00030123  0.0759570 0.0000
  7   -491.4590809737  -0.006402346759 0.01755142  0.00064670  0.0668437 0.0000
  8   -491.4666477727  -0.007566799012 0.00632219  0.00019856  0.0413576 0.0000
  9   -491.4684890878  -0.001841315143 0.69097188  0.00832423  0.0473439 0.0000
 10   -491.0174589150   0.451030172850 0.03463863  0.00036002  0.2628489 0.7000
 11   -491.0364009866  -0.018942071597 0.03597024  0.00038687  0.2469341 0.7000
 12   -491.0548986564  -0.018497669832 0.03112607  0.00034452  0.2299880 0.7000
 13   -491.0698773959  -0.014978739488 0.02444644  0.00027061  0.2151698 0.7000
 14   -491.0811554228  -0.011278026913 0.18780950  0.00292634  0.2035733 0.7000
 15   -491.4746325576  -0.393477134845 0.43822218  0.00612234  0.0607331 0.0000
 16   -491.3853759571   0.089256600530 0.00987608  0.00038699  0.1270044 0.7000
 17   -491.4007376656  -0.015361708504 0.01000472  0.00043480  0.1114504 0.7000
 18   -491.4155153904  -0.014777724811 0.02703177  0.00126275  0.0958691 0.0000
 19   -491.4503379734  -0.034822582992 0.01298476  0.00037268  0.0657102 0.0000
               *** Restarting incremental Fock matrix formation ***
                                   *** Resetting DIIS ***
 20   -491.4583060314  -0.007968057949 0.69097191  0.00872846  0.0538330 0.0000

 WARNING: the maximum gradient error descreased on average only by a factor   1.1
          during the last 20 iterations

                      *** Initiating the TRAH-SCF procedure ***


TRAH GRIDX
----------

General Integration Accuracy     IntAcc      ... 3.067
Radial Grid Type                 RadialGrid  ... OptM3 with GC (2021)
Angular Grid (max. ang.)         AngularGrid ... 1 (Lebedev-50)
Angular grid pruning method      GridPruning ... 4 (adaptive)
Weight generation scheme         WeightScheme... Becke
Basis function cutoff            BFCut       ... 1.0000e-11
Integration weight cutoff        WCut        ... 1.0000e-14
Angular grids for H and He will be reduced by one unit
Partially contracted basis set               ... on
Rotationally invariant grid construction     ... off

Total number of grid points                  ...     5585
Total number of batches                      ...       99
Average number of points per batch           ...       56
Average number of grid points per atom       ...      329


TRAH GRID
---------

General Integration Accuracy     IntAcc      ... 3.467
Radial Grid Type                 RadialGrid  ... OptM3 with GC (2021)
Angular Grid (max. ang.)         AngularGrid ... 1 (Lebedev-50)
Angular grid pruning method      GridPruning ... 4 (adaptive)
Weight generation scheme         WeightScheme... Becke
Basis function cutoff            BFCut       ... 1.0000e-11
Integration weight cutoff        WCut        ... 1.0000e-14
Angular grids for H and He will be reduced by one unit
Partially contracted basis set               ... off
Rotationally invariant grid construction     ... off

Total number of grid points                  ...    12286
Total number of batches                      ...      200
Average number of points per batch           ...       61
Average number of grid points per atom       ...      723

 --------------------------------------------------------------------------------------------
   Iter.        energy            ||Error||_2        Shift      TRadius  Mac/Mic        Rej.
 --------------------------------------------------------------------------------------------
WARNING: 43 diagonal Hessian elements are negative!
    0       -490.953151295562     1.736860e+00                     0.400 (TRAH MAcro)   No
WARNING : negative HOMO - LUMO gap : -0.956970
    0     dE    -2.000214e-01     1.264323e+00    -3.8104e-01      0.223 (TRAH MIcro)
    0     dE    -3.629667e-01     1.907476e+00    -2.0095e+00      0.400 (TRAH MIcro)
    0     dE    -1.796041e-01     3.675358e-01    -5.7784e+00      0.143 (TRAH MIcro)
    0     dE    -1.821661e-01     1.122203e-01    -5.8345e+00      0.144 (TRAH MIcro)
    0     dE    -1.825514e-01     3.746564e-02    -5.8466e+00      0.144 (TRAH MIcro)
    0     dE    -1.825411e-01     1.186279e-02    -5.8477e+00      0.144 (TRAH MIcro)
    0     dE    -1.825139e-01     2.964570e-03    -5.8479e+00      0.144 (TRAH MIcro)
WARNING: 33 diagonal Hessian elements are negative!
    1       -491.135341424005     8.378507e-01                     0.480 (TRAH MAcro)   No
WARNING : negative HOMO - LUMO gap : -0.805833
    1     dE    -5.944002e-02     3.980213e-01    -1.1662e-01      0.139 (TRAH MIcro)
    1     dE    -7.420525e-02     4.535108e-01    -1.4271e-01      0.200 (TRAH MIcro)
    1     dE    -9.178401e-02     5.445275e-01    -2.3200e+00      0.194 (TRAH MIcro)
    1     dE    -5.027553e-02     9.867194e-02    -5.1462e+00      0.081 (TRAH MIcro)
    1     dE    -5.075698e-02     3.373259e-02    -5.1803e+00      0.082 (TRAH MIcro)
    1     dE    -5.085703e-02     1.231153e-02    -5.1874e+00      0.082 (TRAH MIcro)
    1     dE    -5.086976e-02     1.474446e-03    -5.1880e+00      0.082 (TRAH MIcro)
WARNING: 30 diagonal Hessian elements are negative!
    2       -491.186219795460     4.255197e-01                     0.576 (TRAH MAcro)   No
WARNING : negative HOMO - LUMO gap : -0.731047
    2     dE    -1.899061e-02     1.996892e-01    -3.7686e-02      0.089 (TRAH MIcro)
    2     dE    -2.368481e-02     1.140213e-01    -4.6609e-02      0.128 (TRAH MIcro)
    2     dE    -2.802292e-02     1.634769e+00    -5.3124e-02      0.235 (TRAH MIcro)
    2     dE    -1.473926e-02     4.277199e-02    -5.1959e+00      0.045 (TRAH MIcro)
    2     dE    -1.484313e-02     1.635001e-02    -5.2209e+00      0.045 (TRAH MIcro)
    2     dE    -1.487141e-02     5.539900e-03    -5.2269e+00      0.045 (TRAH MIcro)
WARNING: 27 diagonal Hessian elements are negative!
    3       -491.201098347993     2.381182e-01                     0.691 (TRAH MAcro)   No
WARNING : negative HOMO - LUMO gap : -0.695592
    3     dE    -7.227674e-03     1.149967e-01    -1.4403e-02      0.060 (TRAH MIcro)
    3     dE    -9.291867e-03     1.245930e-01    -1.8426e-02      0.093 (TRAH MIcro)
    3     dE    -9.789635e-02     5.115513e+00    -3.3743e-01      0.691 (TRAH MIcro)
    3     dE    -4.786035e-03     2.212295e-02    -6.0516e+00      0.025 (TRAH MIcro)
    3     dE    -3.489386e-01     4.299110e-01    -2.7269e+00      0.502 (TRAH MIcro)
    3     dE    -4.817830e-03     7.303026e-03    -6.0753e+00      0.025 (TRAH MIcro)
WARNING: 27 diagonal Hessian elements are negative!
    4       -491.205917609843     1.519457e-01                     0.829 (TRAH MAcro)   No
WARNING : negative HOMO - LUMO gap : -0.678885
    4     dE    -3.503813e-03     7.896473e-02    -6.9928e-03      0.046 (TRAH MIcro)
    4     dE    -4.836643e-03     1.621355e-01    -9.6136e-03      0.079 (TRAH MIcro)
    4     dE    -5.697823e-02     1.846249e+00    -9.1818e-01      0.333 (TRAH MIcro)
    4     dE    -2.780822e-03     1.518941e-02    -3.6348e+00      0.024 (TRAH MIcro)
    4     dE    -2.798333e-03     4.380809e-03    -3.6511e+00      0.024 (TRAH MIcro)
WARNING: 27 diagonal Hessian elements are negative!
    5       -491.208716277476     8.727848e-02                     0.995 (TRAH MAcro)   No
WARNING : negative HOMO - LUMO gap : -0.666127
    5     dE    -1.504042e-03     7.901036e-02    -3.0045e-03      0.035 (TRAH MIcro)
    5     dE    -7.434500e-02     5.285153e+00    -2.0643e-01      0.778 (TRAH MIcro)
    5     dE    -1.205581e+00     1.520191e+00    -2.4277e+00      0.995 (TRAH MIcro)
    5     dE    -4.946862e-01     1.150299e-01    -2.6883e+00      0.606 (TRAH MIcro)
    5     dE    -5.370452e-01     3.237075e-02    -2.6935e+00      0.631 (TRAH MIcro)
    5     dE    -5.292543e-01     6.732639e-03    -2.6938e+00      0.626 (TRAH MIcro)
WARNING: 2 diagonal Hessian elements are negative!
    6       -491.523479177317     6.757897e-01                     0.995 (TRAH MAcro)   No
WARNING : negative HOMO - LUMO gap : -0.075288
    6     dE    -8.227626e-02     1.152473e+00    -1.5580e-01      0.237 (TRAH MIcro)
    6     dE    -1.232902e-01     3.477983e-01    -2.1900e-01      0.355 (TRAH MIcro)
    6     dE    -1.312332e-01     1.265760e-01    -2.2912e-01      0.382 (TRAH MIcro)
    6     dE    -1.326237e-01     3.465469e-02    -2.3083e-01      0.386 (TRAH MIcro)
    6     dE    -1.328774e-01     1.919543e-02    -2.3099e-01      0.388 (TRAH MIcro)
    6     dE    -1.330425e-01     1.076152e-02    -2.3104e-01      0.389 (TRAH MIcro)
    6     dE    -1.331605e-01     8.576132e-03    -2.3106e-01      0.391 (TRAH MIcro)
WARNING: 1 diagonal Hessian elements are negative!
    7       -491.628738233793     1.387528e-01                     1.194 (TRAH MAcro)   No
WARNING : negative HOMO - LUMO gap : -0.011385
    7     dE    -2.785906e-03     1.449973e-01    -5.5628e-03      0.040 (TRAH MIcro)
    7     dE    -4.700327e-03     6.892279e-02    -9.3402e-03      0.080 (TRAH MIcro)
    7     dE    -4.950854e-03     2.699160e-02    -9.8270e-03      0.087 (TRAH MIcro)
    7     dE    -5.001976e-03     1.066572e-02    -9.9248e-03      0.089 (TRAH MIcro)
    7     dE    -5.011575e-03     4.008258e-03    -9.9421e-03      0.090 (TRAH MIcro)
    8       -491.633816167292     9.658110e-03                     1.433 (TRAH MAcro)   No
WARNING : small    HOMO - LUMO gap : 0.006804
    8     dE    -5.043644e-06     1.464330e-02    -1.0087e-05      0.001 (TRAH MIcro)
    8     dE    -1.611625e-05     1.311803e-02    -3.2232e-05      0.005 (TRAH MIcro)
    8     dE    -2.152954e-05     6.313066e-03    -4.3057e-05      0.007 (TRAH MIcro)
    8     dE    -2.552221e-05     1.915515e-03    -5.1040e-05      0.009 (TRAH MIcro)
    8     dE    -2.575879e-05     6.908829e-04    -5.1513e-05      0.009 (TRAH MIcro)
    9       -491.633841938713     7.134015e-04                           (NR   MAcro)
WARNING : small    HOMO - LUMO gap : 0.006730
    9     dE    -7.947097e-09     6.075636e-04                           (NR   MIcro)
    9     dE    -3.444415e-08     3.294431e-04                           (NR   MIcro)
    9     dE    -4.394459e-08     1.494760e-04                           (NR   MIcro)
    9     dE    -4.590948e-08     5.529351e-05                           (NR   MIcro)
    9     dE    -4.627871e-08     2.165908e-05                           (NR   MIcro)
    9     dE    -4.632242e-08     6.267118e-06                           (NR   MIcro)
    9     dE    -4.632584e-08     2.242795e-06                           (NR   MIcro)
   10       -491.633841983607     2.321925e-06                           (NR   MAcro)
WARNING : small    HOMO - LUMO gap : 0.006727
   10     dE    -7.213820e-14     1.940477e-06                           (NR   MIcro)
   10     dE    -3.690361e-13     8.565664e-07                           (NR   MIcro)
   11       -491.633841983602     8.565793e-07                           (NR   MAcro)
WARNING : small    HOMO - LUMO gap : 0.006727

               *****************************************************
               *                     SUCCESS                       *
               *           SCF CONVERGED AFTER  96 CYCLES          *
               *****************************************************

Old exchange energy                            =    -12.499328523 Eh
New exchange energy                            =    -12.499320879 Eh
Exchange energy change after final integration =      0.000007644 Eh
Total energy after final integration           =   -491.633834340 Eh
Final COS-X integration done in                =    14.800 sec

----------------
TOTAL SCF ENERGY
----------------

Total Energy       :         -491.63383434 Eh          -13378.03676 eV

Components:
Nuclear Repulsion  :          499.28209650 Eh           13586.15655 eV
Electronic Energy  :         -990.91593084 Eh          -26964.19331 eV
One Electron Energy:        -1647.01523045 Eh          -44817.56290 eV
Two Electron Energy:          656.09929961 Eh           17853.36959 eV
Max COSX asymmetry :            0.00000242 Eh               0.00007 eV

Virial components:
Potential Energy   :         -979.07899122 Eh          -26642.09381 eV
Kinetic Energy     :          487.44515688 Eh           13264.05705 eV
Virial Ratio       :            2.00859313


DFT components:
N(Alpha)           :       35.999992964700 electrons
N(Beta)            :       35.999992964700 electrons
N(Total)           :       71.999985929400 electrons
E(X)               :      -49.900704058975 Eh       
E(C)               :       -2.918681166021 Eh       
E(XC)              :      -52.819385224996 Eh       
DFET-embed. en.    :        0.000000000000 Eh       

---------------
SCF CONVERGENCE
---------------

  Last Energy change         ...    4.2064e-12  Tolerance :   1.0000e-08
  Last Orbital Gradient      ...    8.5658e-07  Tolerance :   1.0000e-05
  Last Orbital Rotation      ...    5.9119e-07

             **** THE GBW FILE WAS UPDATED (opt.gbw) ****
             **** DENSITY opt.scfp WAS UPDATED ****
             **** ENERGY FILE WAS UPDATED (opt.en.tmp) ****
             **** THE GBW FILE WAS UPDATED (opt.gbw) ****
             **** DENSITY opt.scfp WAS UPDATED ****
----------------
ORBITAL ENERGIES
----------------

  NO   OCC          E(Eh)            E(eV) 
   0   2.0000     -19.285125      -524.7749 
   1   2.0000     -19.284401      -524.7552 
   2   2.0000     -14.682990      -399.5445 
   3   2.0000     -14.552104      -395.9829 
   4   2.0000     -10.433447      -283.9085 
   5   2.0000     -10.396855      -282.9128 
   6   2.0000     -10.374765      -282.3117 
   7   2.0000     -10.372871      -282.2602 
   8   2.0000     -10.371522      -282.2235 
   9   2.0000     -10.362845      -281.9873 
  10   2.0000      -1.347877       -36.6776 
  11   2.0000      -1.176161       -32.0050 
  12   2.0000      -1.117398       -30.4059 
  13   2.0000      -1.022250       -27.8168 
  14   2.0000      -0.940151       -25.5828 
  15   2.0000      -0.904475       -24.6120 
  16   2.0000      -0.840571       -22.8731 
  17   2.0000      -0.788592       -21.4587 
  18   2.0000      -0.759560       -20.6687 
  19   2.0000      -0.709230       -19.2991 
  20   2.0000      -0.690653       -18.7936 
  21   2.0000      -0.664552       -18.0834 
  22   2.0000      -0.658185       -17.9101 
  23   2.0000      -0.649413       -17.6714 
  24   2.0000      -0.631997       -17.1975 
  25   2.0000      -0.609631       -16.5889 
  26   2.0000      -0.599485       -16.3128 
  27   2.0000      -0.575056       -15.6481 
  28   2.0000      -0.548536       -14.9264 
  29   2.0000      -0.529592       -14.4109 
  30   2.0000      -0.498230       -13.5575 
  31   2.0000      -0.436292       -11.8721 
  32   2.0000      -0.430783       -11.7222 
  33   2.0000      -0.430380       -11.7112 
  34   2.0000      -0.416826       -11.3424 
  35   2.0000      -0.369556       -10.0561 
  36   0.0000      -0.362829        -9.8731 
  37   0.0000      -0.217080        -5.9071 
  38   0.0000      -0.170152        -4.6301 
  39   0.0000      -0.137519        -3.7421 
  40   0.0000      -0.098874        -2.6905 
  41   0.0000      -0.066079        -1.7981 
  42   0.0000      -0.061700        -1.6789 
  43   0.0000      -0.012187        -0.3316 
  44   0.0000      -0.010170        -0.2767 
  45   0.0000      -0.000447        -0.0122 
  46   0.0000       0.027911         0.7595 
  47   0.0000       0.031860         0.8669 
  48   0.0000       0.085008         2.3132 
  49   0.0000       0.108907         2.9635 
  50   0.0000       0.121821         3.3149 
  51   0.0000       0.134854         3.6696 
  52   0.0000       0.139055         3.7839 
  53   0.0000       0.163520         4.4496 
  54   0.0000       0.195001         5.3062 
  55   0.0000       0.236184         6.4269 
  56   0.0000       0.245349         6.6763 
  57   0.0000       0.265534         7.2255 
  58   0.0000       0.282552         7.6886 
  59   0.0000       0.299795         8.1578 
  60   0.0000       0.300492         8.1768 
  61   0.0000       0.319837         8.7032 
  62   0.0000       0.327644         8.9156 
  63   0.0000       0.337169         9.1748 
  64   0.0000       0.354647         9.6504 
  65   0.0000       0.372796        10.1443 
  66   0.0000       0.377228        10.2649 
  67   0.0000       0.380307        10.3487 
  68   0.0000       0.434350        11.8193 
  69   0.0000       0.440534        11.9875 
  70   0.0000       0.447796        12.1851 
  71   0.0000       0.485201        13.2030 
  72   0.0000       0.493800        13.4370 
  73   0.0000       0.514908        14.0114 
  74   0.0000       0.531248        14.4560 
  75   0.0000       0.531878        14.4731 
  76   0.0000       0.542362        14.7584 
  77   0.0000       0.555341        15.1116 
  78   0.0000       0.563577        15.3357 
  79   0.0000       0.579193        15.7607 
  80   0.0000       0.586505        15.9596 
  81   0.0000       0.629188        17.1211 
  82   0.0000       0.652413        17.7531 
  83   0.0000       0.661858        18.0101 
  84   0.0000       0.664203        18.0739 
  85   0.0000       0.707022        19.2390 
  86   0.0000       0.737613        20.0715 
  87   0.0000       0.792544        21.5662 
  88   0.0000       0.811627        22.0855 
  89   0.0000       0.830929        22.6107 
  90   0.0000       0.860625        23.4188 
  91   0.0000       0.876809        23.8592 
  92   0.0000       0.904657        24.6170 
  93   0.0000       0.917381        24.9632 
  94   0.0000       0.967814        26.3355 
  95   0.0000       1.029020        28.0011 
  96   0.0000       1.039767        28.2935 
  97   0.0000       1.046242        28.4697 
  98   0.0000       1.066270        29.0147 
  99   0.0000       1.078063        29.3356 
 100   0.0000       1.092933        29.7402 
 101   0.0000       1.108079        30.1524 
 102   0.0000       1.111007        30.2320 
 103   0.0000       1.155222        31.4352 
 104   0.0000       1.159834        31.5607 
 105   0.0000       1.178743        32.0752 
 106   0.0000       1.231114        33.5003 
 107   0.0000       1.238186        33.6927 
 108   0.0000       1.238202        33.6932 
 109   0.0000       1.238202        33.6932 
 110   0.0000       1.274367        34.6773 
 111   0.0000       1.305219        35.5168 
 112   0.0000       1.342919        36.5427 
 113   0.0000       1.368497        37.2387 
 114   0.0000       1.465379        39.8750 
 115   0.0000       1.507624        41.0245 
 116   0.0000       1.523250        41.4497 
 117   0.0000       1.543003        41.9873 
 118   0.0000       1.570019        42.7224 
 119   0.0000       1.571762        42.7698 
 120   0.0000       1.589838        43.2617 
 121   0.0000       1.597769        43.4775 
 122   0.0000       1.609724        43.8028 
 123   0.0000       1.634709        44.4827 
 124   0.0000       1.639883        44.6235 
 125   0.0000       1.653187        44.9855 
 126   0.0000       1.679013        45.6883 
 127   0.0000       1.718426        46.7607 
 128   0.0000       1.764952        48.0268 
 129   0.0000       1.794251        48.8241 
 130   0.0000       1.803528        49.0765 
 131   0.0000       1.857381        50.5419 
 132   0.0000       1.911082        52.0032 
 133   0.0000       1.921075        52.2751 
 134   0.0000       1.947461        52.9931 
 135   0.0000       1.967975        53.5513 
 136   0.0000       1.972456        53.6733 
 137   0.0000       2.006813        54.6082 
 138   0.0000       2.015712        54.8503 
 139   0.0000       2.051471        55.8234 
 140   0.0000       2.067701        56.2650 
 141   0.0000       2.138801        58.1997 
 142   0.0000       2.172879        59.1270 
 143   0.0000       2.176640        59.2294 
 144   0.0000       2.182506        59.3890 
 145   0.0000       2.240414        60.9648 
 146   0.0000       2.266259        61.6680 
 147   0.0000       2.299383        62.5694 
 148   0.0000       2.363834        64.3232 
 149   0.0000       2.403920        65.4140 
 150   0.0000       2.438301        66.3495 
 151   0.0000       2.483832        67.5885 
 152   0.0000       2.496044        67.9208 
 153   0.0000       2.497351        67.9564 
 154   0.0000       2.519840        68.5683 
 155   0.0000       2.543932        69.2239 
 156   0.0000       2.560858        69.6845 
 157   0.0000       2.567868        69.8753 
 158   0.0000       2.582788        70.2812 
 159   0.0000       2.609604        71.0109 
 160   0.0000       2.668449        72.6122 
 161   0.0000       2.680442        72.9385 
 162   0.0000       2.743040        74.6419 
 163   0.0000       2.865799        77.9824 
 164   0.0000       2.905693        79.0679 
 165   0.0000       2.914920        79.3190 
 166   0.0000       2.922499        79.5252 
 167   0.0000       3.018957        82.1500 
 168   0.0000       3.152235        85.7767 
 169   0.0000       3.187357        86.7324 
 170   0.0000       3.263273        88.7982 
 171   0.0000       3.358905        91.4005 
 172   0.0000       3.439346        93.5894 
 173   0.0000       3.642013        99.1042 
 174   0.0000       3.673504        99.9611 

                    ********************************
                    * MULLIKEN POPULATION ANALYSIS *
                    ********************************

-----------------------
MULLIKEN ATOMIC CHARGES
-----------------------
   0 C :    0.038431
   1 C :    0.068685
   2 C :    0.031042
   3 C :    0.050283
   4 C :    0.155774
   5 C :    0.004194
   6 H :    0.025176
   7 H :    0.050040
   8 H :    0.062384
   9 H :    0.254782
  10 H :    0.040491
  11 N :    0.039876
  12 H :    0.168925
  13 H :    0.170780
  14 N :    0.232788
  15 O :   -0.198841
  16 O :   -0.194810
Sum of atomic charges:    1.0000000

--------------------------------
MULLIKEN REDUCED ORBITAL CHARGES
--------------------------------
  0 C s       :     3.030874  s :     3.030874
      pz      :     0.968281  p :     2.868533
      px      :     0.946383
      py      :     0.953869
      dz2     :     0.010219  d :     0.062162
      dxz     :     0.006870
      dyz     :     0.015121
      dx2y2   :     0.014212
      dxy     :     0.015739
  1 C s       :     3.204847  s :     3.204847
      pz      :     0.875486  p :     2.694562
      px      :     0.887953
      py      :     0.931122
      dz2     :     0.004054  d :     0.031906
      dxz     :     0.004382
      dyz     :     0.008553
      dx2y2   :     0.007937
      dxy     :     0.006979
  2 C s       :     3.178238  s :     3.178238
      pz      :     0.921436  p :     2.755868
      px      :     0.925063
      py      :     0.909369
      dz2     :     0.005615  d :     0.034852
      dxz     :     0.005338
      dyz     :     0.008379
      dx2y2   :     0.007913
      dxy     :     0.007607
  3 C s       :     3.267782  s :     3.267782
      pz      :     0.889324  p :     2.648194
      px      :     0.854618
      py      :     0.904253
      dz2     :     0.006322  d :     0.033740
      dxz     :     0.004852
      dyz     :     0.008442
      dx2y2   :     0.006494
      dxy     :     0.007631
  4 C s       :     3.035932  s :     3.035932
      pz      :     0.928441  p :     2.760130
      px      :     0.940368
      py      :     0.891322
      dz2     :     0.007649  d :     0.048164
      dxz     :     0.010043
      dyz     :     0.009734
      dx2y2   :     0.011475
      dxy     :     0.009263
  5 C s       :     3.302313  s :     3.302313
      pz      :     0.859038  p :     2.662422
      px      :     0.903793
      py      :     0.899590
      dz2     :     0.005014  d :     0.031071
      dxz     :     0.005150
      dyz     :     0.007035
      dx2y2   :     0.007155
      dxy     :     0.006717
  6 H s       :     0.951287  s :     0.951287
      pz      :     0.010471  p :     0.023537
      px      :     0.009939
      py      :     0.003127
  7 H s       :     0.926524  s :     0.926524
      pz      :     0.006631  p :     0.023436
      px      :     0.004314
      py      :     0.012490
  8 H s       :     0.913731  s :     0.913731
      pz      :     0.004545  p :     0.023885
      px      :     0.006661
      py      :     0.012680
  9 H s       :     0.745218  s :     0.745218
      pz      :     0.000000  p :     0.000000
      px      :     0.000000
      py      :     0.000000
 10 H s       :     0.935261  s :     0.935261
      pz      :     0.007949  p :     0.024248
      px      :     0.005035
      py      :     0.011264
 11 N s       :     3.301048  s :     3.301048
      pz      :     1.268759  p :     3.643302
      px      :     1.298221
      py      :     1.076322
      dz2     :     0.001560  d :     0.015774
      dxz     :     0.002485
      dyz     :     0.003997
      dx2y2   :     0.004284
      dxy     :     0.003448
 12 H s       :     0.786549  s :     0.786549
      pz      :     0.018766  p :     0.044525
      px      :     0.018361
      py      :     0.007398
 13 H s       :     0.784774  s :     0.784774
      pz      :     0.013139  p :     0.044445
      px      :     0.009767
      py      :     0.021539
 14 N s       :     3.290320  s :     3.290320
      pz      :     1.157887  p :     3.359020
      px      :     1.163325
      py      :     1.037807
      dz2     :     0.015633  d :     0.117872
      dxz     :     0.011007
      dyz     :     0.030849
      dx2y2   :     0.030074
      dxy     :     0.030309
 15 O s       :     3.862098  s :     3.862098
      pz      :     1.477021  p :     4.313458
      px      :     1.562565
      py      :     1.273872
      dz2     :     0.003570  d :     0.023284
      dxz     :     0.001696
      dyz     :     0.007384
      dx2y2   :     0.005417
      dxy     :     0.005217
 16 O s       :     3.865615  s :     3.865615
      pz      :     1.601136  p :     4.306153
      px      :     1.482789
      py      :     1.222227
      dz2     :     0.002973  d :     0.023043
      dxz     :     0.001234
      dyz     :     0.005227
      dx2y2   :     0.006502
      dxy     :     0.007106


                     *******************************
                     * LOEWDIN POPULATION ANALYSIS *
                     *******************************

----------------------
LOEWDIN ATOMIC CHARGES
----------------------
   0 C :    0.073583
   1 C :    0.015367
   2 C :    0.027514
   3 C :    0.068869
   4 C :    0.006268
   5 C :    0.012222
   6 H :    0.050247
   7 H :    0.058567
   8 H :    0.064039
   9 H :    0.254782
  10 H :    0.058851
  11 N :    0.135838
  12 H :    0.113135
  13 H :    0.114444
  14 N :    0.273484
  15 O :   -0.165859
  16 O :   -0.161352

-------------------------------
LOEWDIN REDUCED ORBITAL CHARGES
-------------------------------
  0 C s       :     2.842369  s :     2.842369
      pz      :     0.987559  p :     2.937775
      px      :     0.955123
      py      :     0.995093
      dz2     :     0.022826  d :     0.146273
      dxz     :     0.016848
      dyz     :     0.035887
      dx2y2   :     0.033572
      dxy     :     0.037140
  1 C s       :     2.868555  s :     2.868555
      pz      :     0.995706  p :     3.031965
      px      :     0.999174
      py      :     1.037086
      dz2     :     0.009845  d :     0.084113
      dxz     :     0.010753
      dyz     :     0.022774
      dx2y2   :     0.021964
      dxy     :     0.018776
  2 C s       :     2.860288  s :     2.860288
      pz      :     0.988037  p :     3.022070
      px      :     0.980354
      py      :     1.053679
      dz2     :     0.013365  d :     0.090129
      dxz     :     0.014635
      dyz     :     0.021389
      dx2y2   :     0.020723
      dxy     :     0.020016
  3 C s       :     2.876923  s :     2.876923
      pz      :     0.963196  p :     2.967898
      px      :     0.953623
      py      :     1.051079
      dz2     :     0.014582  d :     0.086310
      dxz     :     0.013529
      dyz     :     0.022146
      dx2y2   :     0.017034
      dxy     :     0.019019
  4 C s       :     2.871367  s :     2.871367
      pz      :     0.951917  p :     3.001728
      px      :     0.957253
      py      :     1.092558
      dz2     :     0.017737  d :     0.120636
      dxz     :     0.024251
      dyz     :     0.025366
      dx2y2   :     0.029253
      dxy     :     0.024029
  5 C s       :     2.870781  s :     2.870781
      pz      :     0.987680  p :     3.033745
      px      :     0.981060
      py      :     1.065006
      dz2     :     0.012300  d :     0.083252
      dxz     :     0.014334
      dyz     :     0.018856
      dx2y2   :     0.019380
      dxy     :     0.018382
  6 H s       :     0.878718  s :     0.878718
      pz      :     0.030977  p :     0.071035
      px      :     0.029338
      py      :     0.010721
  7 H s       :     0.872420  s :     0.872420
      pz      :     0.019870  p :     0.069013
      px      :     0.013357
      py      :     0.035785
  8 H s       :     0.862038  s :     0.862038
      pz      :     0.014855  p :     0.073923
      px      :     0.020832
      py      :     0.038236
  9 H s       :     0.745218  s :     0.745218
      pz      :     0.000000  p :     0.000000
      px      :     0.000000
      py      :     0.000000
 10 H s       :     0.866299  s :     0.866299
      pz      :     0.025006  p :     0.074850
      px      :     0.016442
      py      :     0.033401
 11 N s       :     3.026492  s :     3.026492
      pz      :     1.305993  p :     3.795169
      px      :     1.319916
      py      :     1.169259
      dz2     :     0.004374  d :     0.042501
      dxz     :     0.006153
      dyz     :     0.010788
      dx2y2   :     0.011850
      dxy     :     0.009337
 12 H s       :     0.766995  s :     0.766995
      pz      :     0.052534  p :     0.119869
      px      :     0.051607
      py      :     0.015728
 13 H s       :     0.766070  s :     0.766070
      pz      :     0.036470  p :     0.119486
      px      :     0.027141
      py      :     0.055874
 14 N s       :     3.048468  s :     3.048468
      pz      :     1.150703  p :     3.430989
      px      :     1.148900
      py      :     1.131386
      dz2     :     0.032665  d :     0.247060
      dxz     :     0.021835
      dyz     :     0.063327
      dx2y2   :     0.068222
      dxy     :     0.061011
 15 O s       :     3.614866  s :     3.614866
      pz      :     1.521308  p :     4.506301
      px      :     1.577643
      py      :     1.407350
      dz2     :     0.005287  d :     0.044692
      dxz     :     0.002787
      dyz     :     0.016036
      dx2y2   :     0.011593
      dxy     :     0.008989
 16 O s       :     3.618893  s :     3.618893
      pz      :     1.612407  p :     4.498305
      px      :     1.518006
      py      :     1.367891
      dz2     :     0.006237  d :     0.044154
      dxz     :     0.001926
      dyz     :     0.008802
      dx2y2   :     0.012566
      dxy     :     0.014622


                      *****************************
                      * MAYER POPULATION ANALYSIS *
                      *****************************

  NA   - Mulliken gross atomic population
  ZA   - Total nuclear charge
  QA   - Mulliken gross atomic charge
  VA   - Mayer's total valence
  BVA  - Mayer's bonded valence
  FA   - Mayer's free valence

  ATOM       NA         ZA         QA         VA         BVA        FA
  0 C      5.9616     6.0000     0.0384     4.0010     4.0010     0.0000
  1 C      5.9313     6.0000     0.0687     3.7729     3.7729    -0.0000
  2 C      5.9690     6.0000     0.0310     3.8610     3.8610     0.0000
  3 C      5.9497     6.0000     0.0503     3.8031     3.8031     0.0000
  4 C      5.8442     6.0000     0.1558     3.8862     3.8862     0.0000
  5 C      5.9958     6.0000     0.0042     3.7580     3.7580    -0.0000
  6 H      0.9748     1.0000     0.0252     0.9927     0.9927     0.0000
  7 H      0.9500     1.0000     0.0500     0.9839     0.9839    -0.0000
  8 H      0.9376     1.0000     0.0624     1.0149     1.0149     0.0000
  9 H      0.7452     1.0000     0.2548     0.9351     0.9351     0.0000
 10 H      0.9595     1.0000     0.0405     1.0276     1.0276    -0.0000
 11 N      6.9601     7.0000     0.0399     3.5049     3.5049     0.0000
 12 H      0.8311     1.0000     0.1689     0.9835     0.9835     0.0000
 13 H      0.8292     1.0000     0.1708     0.9830     0.9830     0.0000
 14 N      6.7672     7.0000     0.2328     3.9789     3.9789     0.0000
 15 O      8.1988     8.0000    -0.1988     2.0020     2.0020     0.0000
 16 O      8.1948     8.0000    -0.1948     2.0019     2.0019     0.0000

  Mayer bond orders larger than 0.100000
B(  0-C ,  1-C ) :   1.1850 B(  0-C ,  5-C ) :   1.1193 B(  0-C ,  9-H ) :   0.1177 
B(  0-C , 11-N ) :   1.4134 B(  1-C ,  2-C ) :   1.4693 B(  1-C ,  6-H ) :   0.9891 
B(  1-C ,  9-H ) :   0.1247 B(  2-C ,  3-C ) :   1.2604 B(  2-C ,  7-H ) :   0.9788 
B(  3-C ,  4-C ) :   1.3163 B(  3-C ,  8-H ) :   0.9769 B(  3-C ,  9-H ) :   0.2285 
B(  4-C ,  5-C ) :   1.4893 B(  4-C , 14-N ) :   0.8269 B(  5-C ,  9-H ) :   0.1385 
B(  5-C , 10-H ) :   0.9723 B(  9-H , 11-N ) :   0.2622 B( 11-N , 12-H ) :   0.9284 
B( 11-N , 13-H ) :   0.9281 B( 14-N , 15-O ) :   1.5648 B( 14-N , 16-O ) :   1.5620 
B( 15-O , 16-O ) :   0.2984 

-------
TIMINGS
-------

Total SCF time: 0 days 0 hours 6 min 36 sec 

Total time                  ....     396.615 sec
Sum of individual times     ....     391.309 sec  ( 98.7%)

Fock matrix formation       ....     385.204 sec  ( 97.1%)
  Split-RI-J                ....      50.546 sec  ( 13.1% of F)
  Chain of spheres X        ....     278.658 sec  ( 72.3% of F)
  XC integration            ....      55.766 sec  ( 14.5% of F)
    Basis function eval.    ....      17.993 sec  ( 32.3% of XC)
    Density eval.           ....      15.602 sec  ( 28.0% of XC)
    XC-Functional eval.     ....       3.241 sec  (  5.8% of XC)
    XC-Potential eval.      ....      14.112 sec  ( 25.3% of XC)
Diagonalization             ....       0.168 sec  (  0.0%)
Density matrix formation    ....       0.037 sec  (  0.0%)
Population analysis         ....       0.051 sec  (  0.0%)
Initial guess               ....       1.101 sec  (  0.3%)
Orbital Transformation      ....       0.236 sec  (  0.1%)
Orbital Orthonormalization  ....       0.000 sec  (  0.0%)
DIIS solution               ....       0.347 sec  (  0.1%)
SOSCF solution              ....       0.000 sec  (  0.0%)
Grid generation             ....       4.164 sec  (  1.0%)

Maximum memory used throughout the entire SCF-calculation: 74.2 MB


-------------------------------------------------------------------------------
                          DFT DISPERSION CORRECTION                            
                                                                               
                                 DFTD4 V2.5                                    
-------------------------------------------------------------------------------
The B3LYP functional is recognized
Active option DFTDOPT                   ...         5   

Starting D4
-------------------------   ----------------
Dispersion correction           -0.025383783
-------------------------   ----------------


-------------------------   --------------------
FINAL SINGLE POINT ENERGY      -491.659218123319
-------------------------   --------------------

------------------------------------------------------------------------------
                         ORCA SCF GRADIENT CALCULATION
------------------------------------------------------------------------------

 ... reading COSX grid (gridx3)
Gradient of the Kohn-Sham DFT energy:
Kohn-Sham wavefunction type      ... RKS
Hartree-Fock exchange scaling    ...    0.200
Number of operators              ...    1
Number of atoms                  ...   17
Basis set dimensions             ...  175
Integral neglect threshold       ... 2.5e-11
Integral primitive cutoff        ... 2.5e-12
SHARK Integral package           ... ON

Nuc. rep. gradient       (SHARK) ... done (  0.0 sec)
HCore & Overlap gradient (SHARK) ... done (  0.2 sec)
RI-J gradient            (SHARK) ... done (  1.9 sec)
COSX-gradient                    ... done ( 19.1 sec)
Exchange-correlation gradient    ... done
Dispersion correction            ... Starting D4


------------------- 
Dispersion Gradient 
------------------- 
   1  :   -0.000290297    0.000321944   -0.000215709
   2  :   -0.000293878   -0.000117948   -0.000350178
   3  :   -0.000180246   -0.000527512   -0.000346036
   4  :    0.000031708   -0.000513622   -0.000117276
   5  :    0.000290648   -0.000132004    0.000268962
   6  :   -0.000035275    0.000374858    0.000069752
   7  :   -0.000128422   -0.000034767   -0.000146869
   8  :   -0.000046155   -0.000151837   -0.000092503
   9  :    0.000064194   -0.000198512    0.000011451
  10  :   -0.000000467    0.000000076   -0.000000616
  11  :    0.000052414    0.000196553    0.000114397
  12  :   -0.000273268    0.000490124   -0.000148362
  13  :   -0.000161556    0.000113215   -0.000137807
  14  :   -0.000030075    0.000244079    0.000039324
  15  :    0.000396052   -0.000026518    0.000415432
  16  :    0.000284727    0.000174539    0.000348490
  17  :    0.000319895   -0.000212669    0.000287550

  |G| =    0.001677289

done

------------------
CARTESIAN GRADIENT
------------------

[...]
     32       0.032289   0.138632   0.003804  -0.200538   0.121186  -0.166028
     33       0.023429   0.059947  -0.027025  -0.048845  -0.030553   0.007204
     34      -0.103516  -0.013935   0.016066  -0.016198   0.068160   0.007376
     35      -0.006137   0.059589  -0.023913  -0.056822  -0.012033   0.009861
     36       0.034185   0.103951  -0.045414  -0.084254  -0.070791   0.012826
     37      -0.134232  -0.471469   0.200948   0.359036   0.431242  -0.070607
     38      -0.003464  -0.030916   0.012187   0.018240   0.053640  -0.007761
     39       0.260184  -0.096243   0.014570   0.066138  -0.296149  -0.049064
     40      -0.303034   0.101479  -0.011632  -0.103655   0.291233   0.049633
     41       0.185620  -0.071521   0.011933   0.039019  -0.227818  -0.037068
     42      -0.005540  -0.068879  -0.462235  -0.004510   0.004093  -0.011055
     43       0.003660   0.012651   0.046620   0.027770   0.013721  -0.019904
     44      -0.004281  -0.068773  -0.475969   0.005609   0.009665  -0.018625
     45      -0.003485   0.008254   0.142549  -0.009352  -0.008686   0.011946
     46      -0.010554   0.034579   0.350394  -0.017441  -0.017928   0.031699
     47      -0.007333   0.020402   0.270325  -0.016078  -0.015411   0.023469
     48       0.000186   0.036172   0.229394   0.025116   0.006202   0.007251
     49       0.000376  -0.053138  -0.384754  -0.033495  -0.008979  -0.012382
     50       0.000303   0.020357   0.113693   0.015244   0.003443   0.003562
                 42         43         44         45         46         47    
      0      -0.023460  -0.118231   0.024213  -0.000758   0.000467   0.002364
      1       0.049249   0.213501  -0.096966  -0.002515   0.001519   0.000167
      2      -0.010090  -0.061466  -0.003159  -0.001558   0.000953   0.002559
      3      -0.022778   0.073251  -0.036090   0.057645  -0.020659   0.002907
      4       0.061857  -0.215448   0.123343  -0.005014   0.005579  -0.000411
      5      -0.005529   0.012814  -0.001149   0.059733  -0.020265   0.002962
      6       0.046457  -0.112056   0.067465  -0.008662  -0.019074   0.002013
      7      -0.064644   0.147155  -0.101541  -0.019741  -0.068602   0.007948
      8       0.029775  -0.074458   0.041050  -0.015155  -0.040956   0.004538
      9      -0.016054   0.032889  -0.019108  -0.001144  -0.005491   0.001482
     10       0.035811  -0.065840   0.093347   0.002815   0.015346  -0.002464
     11      -0.006158   0.014902   0.008064  -0.000358  -0.001167   0.000825
     12       0.034133  -0.072341   0.050555  -0.000115  -0.000066  -0.001505
     13      -0.091916   0.197303  -0.251396   0.000150   0.000149   0.003390
     14       0.008247  -0.016775  -0.023640  -0.000076  -0.000025  -0.000571
     15      -0.041036   0.141241  -0.068935  -0.000126  -0.002514  -0.022749
     16       0.061211  -0.185134   0.149115   0.000242  -0.008456  -0.071169
     17      -0.025101   0.094130  -0.028070  -0.000063  -0.005245  -0.045833
     18      -0.012567   0.032156  -0.014701  -0.654309   0.216129  -0.027706
     19      -0.058626   0.267666  -0.130982   0.057079  -0.021826   0.002979
     20      -0.030989   0.114580  -0.055156  -0.677997   0.223062  -0.028535
     21      -0.068386   0.155320  -0.120611   0.081342   0.230466  -0.026099
     22       0.023701  -0.058301   0.042994   0.257636   0.752659  -0.085213
     23      -0.065405   0.147201  -0.114693   0.164116   0.471867  -0.053421
     24      -0.017204   0.025888  -0.085807   0.016286   0.087641  -0.017645
     25       0.043785  -0.085835   0.072932  -0.031970  -0.172364   0.034311
     26      -0.004763   0.000996  -0.070229   0.007561   0.040577  -0.008313
     27       0.000024   0.000160  -0.000094   0.000001  -0.000002  -0.000000
     28      -0.000022   0.000022   0.000163   0.000001  -0.000000   0.000007
     29       0.000027   0.000228  -0.000083   0.000002  -0.000004  -0.000002
     30       0.052746  -0.192606   0.148569  -0.001053   0.031593   0.266544
     31      -0.016627   0.090871  -0.008335  -0.003587   0.094220   0.794504
     32       0.051273  -0.177682   0.154129  -0.002216   0.062276   0.525286
     33       0.059188   0.065673  -0.008774   0.000122  -0.000026  -0.000198
     34      -0.118723  -0.129599   0.029144   0.000250  -0.000161   0.000039
     35       0.027434   0.031072  -0.000644   0.000205  -0.000076  -0.000197
     36      -0.009746   0.015547   0.002466  -0.000535   0.001093   0.000773
     37       0.653737   0.445796  -0.088658   0.003841  -0.001026   0.002073
     38       0.184523   0.149235  -0.024248   0.000570   0.000864   0.001468
     39      -0.461818  -0.329743   0.042197  -0.001794  -0.000094  -0.002714
     40       0.297352   0.183128  -0.014013   0.000004  -0.000968   0.001306
     41      -0.403038  -0.296786   0.041382  -0.001901  -0.000392  -0.002513
     42       0.005471  -0.025895  -0.077265   0.000039  -0.000122  -0.000215
     43      -0.032559   0.151430   0.700987   0.000039   0.000147  -0.000979
     44      -0.005430   0.024007   0.153078   0.000054  -0.000082  -0.000536
     45       0.004623  -0.016914  -0.059702   0.000000  -0.000014  -0.000319
     46       0.013939  -0.060314  -0.281010   0.000000   0.000040   0.000542
     47       0.009684  -0.038505  -0.158213   0.000001  -0.000002  -0.000169
     48      -0.011592   0.042042   0.123203  -0.000020  -0.000030   0.000138
     49       0.020363  -0.080653  -0.287147  -0.000018  -0.000135  -0.000019
     50      -0.005392   0.017366   0.034283  -0.000026  -0.000075   0.000135
                 48         49         50    
      0       0.000069  -0.001270   0.000234
      1       0.000080   0.002491   0.000180
      2       0.000099  -0.000600   0.000302
      3      -0.002445  -0.000062  -0.000171
      4       0.001349   0.000925  -0.000389
      5      -0.002192   0.000213  -0.000299
      6      -0.006958  -0.000054   0.000050
      7      -0.013779  -0.000239  -0.000015
      8      -0.011546  -0.000130   0.000048
      9       0.039236  -0.000077  -0.000060
     10      -0.074850   0.000185  -0.000018
     11       0.018891  -0.000026  -0.000069
     12       0.000628   0.000115   0.000035
     13       0.002630  -0.000009   0.000024
     14       0.001462   0.000122   0.000045
     15       0.000238  -0.000574  -0.000367
     16       0.001709   0.000313   0.000080
     17       0.000774  -0.000519  -0.000366
     18       0.019762  -0.000281   0.000970
     19      -0.002149  -0.000626  -0.000871
     20       0.020354  -0.000492   0.000767
     21       0.051993   0.000383  -0.000086
     22       0.161659   0.000630  -0.000041
     23       0.104016   0.000598  -0.000104
     24      -0.440029   0.000850   0.000111
     25       0.844780  -0.001586  -0.000091
     26      -0.210011   0.000428   0.000090
     27      -0.000002   0.000016   0.000001
     28       0.000005   0.000003   0.000000
     29      -0.000001   0.000022   0.000005
     30      -0.004555   0.000814  -0.000251
     31      -0.012453   0.001202   0.000743
     32      -0.008643   0.001240  -0.000041
     33      -0.000029   0.023784   0.047856
     34       0.000057  -0.048965   0.037552
     35      -0.000014   0.010777   0.062165
     36      -0.000974  -0.486287  -0.492369
     37       0.000014   0.052311   0.059500
     38      -0.001037  -0.502702  -0.507119
     39       0.000393   0.177138  -0.169912
     40       0.000909   0.584904  -0.579369
     41       0.000691   0.362616  -0.353207
     42       0.000416   0.000019  -0.000020
     43      -0.001097   0.000142  -0.000058
     44       0.000091   0.000069  -0.000040
     45      -0.000100  -0.000030   0.000008
     46       0.000036  -0.000065   0.000030
     47      -0.000098  -0.000053   0.000018
     48       0.000189  -0.000001   0.000000
     49       0.000534  -0.000067   0.000018
     50       0.000370  -0.000025   0.000006


-----------
IR SPECTRUM
-----------

 Mode   freq       eps      Int      T**2         TX        TY        TZ
       cm**-1   L/(mol*cm) km/mol    a.u.
----------------------------------------------------------------------------
  7:      1.08   0.000000    0.00  0.000000  ( 0.000000  0.000000  0.000000)
  8:      7.63   0.013649   68.98  0.557938  ( 0.538694 -0.169184  0.489003)
  9:     50.88   0.000021    0.11  0.000128  ( 0.008294  0.001860 -0.007479)
 10:    157.59   0.000079    0.40  0.000157  (-0.009427 -0.003038  0.007644)
 11:    202.11   0.001351    6.83  0.002086  ( 0.033099  0.009019 -0.030152)
 12:    215.49   0.000887    4.48  0.001285  ( 0.021288 -0.020605  0.020171)
 13:    373.75   0.001011    5.11  0.000844  ( 0.019599  0.002057  0.021349)
 14:    408.23   0.000853    4.31  0.000652  (-0.014572  0.008186 -0.019299)
 15:    415.40   0.000155    0.78  0.000117  ( 0.008140  0.001101 -0.007007)
 16:    513.69   0.008672   43.82  0.005268  ( 0.069584  0.018922  0.008242)
 17:    516.66   0.012097   61.14  0.007307  (-0.001342 -0.002258  0.085439)
 18:    538.91   0.000625    3.16  0.000362  ( 0.013606  0.003977 -0.012689)
 19:    560.04   0.005521   27.90  0.003077  (-0.050972  0.006873 -0.020764)
 20:    564.00   0.025326  127.99  0.014013  (-0.078442 -0.025710  0.084845)
 21:    668.52   0.004728   23.89  0.002207  ( 0.033844  0.009766 -0.031086)
 22:    674.80   0.000645    3.26  0.000299  ( 0.012671 -0.001070  0.011697)
 23:    751.01   0.003289   16.62  0.001367  ( 0.026919  0.007776 -0.024118)
 24:    816.59   0.003504   17.71  0.001339  ( 0.026299  0.007367 -0.024352)
 25:    841.09   0.004757   24.04  0.001765  (-0.016739 -0.004508 -0.038267)
 26:    917.57   0.003001   15.17  0.001021  (-0.023639 -0.006745  0.020406)
 27:    941.74   0.013205   66.73  0.004376  (-0.041350  0.003250 -0.051531)
 28:    943.97   0.000231    1.17  0.000077  (-0.005928 -0.001581  0.006235)
 29:   1000.74   0.016889   85.35  0.005267  ( 0.042857 -0.008727  0.057912)
 30:   1027.40   0.000001    0.01  0.000000  (-0.000110  0.000005  0.000609)
 31:   1039.13   0.000217    1.10  0.000065  (-0.004583 -0.001179 -0.006547)
 32:   1096.24   0.000083    0.42  0.000024  ( 0.001737 -0.000485  0.004521)
 33:   1106.37   0.001479    7.47  0.000417  ( 0.012565  0.011645  0.011116)
 34:   1182.14   0.016332   82.54  0.004311  (-0.039446  0.007832 -0.051905)
 35:   1288.35   0.010894   55.05  0.002639  (-0.027798 -0.008021 -0.042447)
 36:   1382.31   0.028714  145.11  0.006482  (-0.047117 -0.000394 -0.065285)
 37:   1409.59   0.005521   27.90  0.001222  (-0.023109  0.012962 -0.022809)
 38:   1415.64   0.001638    8.28  0.000361  ( 0.000526 -0.004140  0.018538)
 39:   1495.25   0.000294    1.49  0.000061  (-0.005799  0.005040 -0.001519)
 40:   1516.51   0.049954  252.45  0.010279  ( 0.063421 -0.038295  0.069214)
 41:   1561.49   0.000842    4.26  0.000168  (-0.000155 -0.012657 -0.002850)
 42:   1637.06   0.021484  108.57  0.004095  (-0.035124  0.047273 -0.025036)
 43:   1666.17   0.259627  1312.05  0.048627  (-0.133611  0.083257 -0.154411)
 44:   1717.76   0.045132  228.08  0.008199  ( 0.025426  0.064129  0.058653)
 45:   3198.33   0.000093    0.47  0.000009  ( 0.000652 -0.002915  0.000358)
 46:   3216.43   0.000158    0.80  0.000015  (-0.000478  0.003713 -0.001145)
 47:   3220.82   0.001283    6.48  0.000124  ( 0.001796  0.010577  0.003033)
 48:   3236.80   0.004484   22.66  0.000432  ( 0.003777  0.015696  0.013102)
 49:   3547.32   0.288398  1457.44  0.025371  (-0.097887  0.064127 -0.108059)
 50:   3667.63   0.018064   91.29  0.001537  (-0.021589 -0.016957 -0.027988)

* The epsilon (eps) is given for a Dirac delta lineshape.
** The dipole moment derivative (T) already includes vibrational overlap.

The first frequency considered to be a vibration is 7
The total number of vibrations considered is 44


--------------------------
THERMOCHEMISTRY AT 298.15K
--------------------------

Temperature         ... 298.15 K
Pressure            ... 1.00 atm
Total Mass          ... 139.13 AMU

Throughout the following assumptions are being made:
  (1) The electronic state is orbitally nondegenerate
  (2) There are no thermally accessible electronically excited states
  (3) Hindered rotations indicated by low frequency modes are not
      treated as such but are treated as vibrations and this may
      cause some error
  (4) All equations used are the standard statistical mechanics
      equations for an ideal gas
  (5) All vibrations are strictly harmonic

freq.       1.08  E(vib)   ...       0.59 
freq.       7.63  E(vib)   ...       0.58 
freq.      50.88  E(vib)   ...       0.52 
freq.     157.59  E(vib)   ...       0.40 
freq.     202.11  E(vib)   ...       0.35 
freq.     215.49  E(vib)   ...       0.34 
freq.     373.75  E(vib)   ...       0.21 
freq.     408.23  E(vib)   ...       0.19 
freq.     415.40  E(vib)   ...       0.18 
freq.     513.69  E(vib)   ...       0.13 
freq.     516.66  E(vib)   ...       0.13 
freq.     538.91  E(vib)   ...       0.12 
freq.     560.04  E(vib)   ...       0.12 
freq.     564.00  E(vib)   ...       0.11 
freq.     668.52  E(vib)   ...       0.08 
freq.     674.80  E(vib)   ...       0.08 
freq.     751.01  E(vib)   ...       0.06 
freq.     816.59  E(vib)   ...       0.05 
freq.     841.09  E(vib)   ...       0.04 
freq.     917.57  E(vib)   ...       0.03 
freq.     941.74  E(vib)   ...       0.03 
freq.     943.97  E(vib)   ...       0.03 
freq.    1000.74  E(vib)   ...       0.02 
freq.    1027.40  E(vib)   ...       0.02 
freq.    1039.13  E(vib)   ...       0.02 
freq.    1096.24  E(vib)   ...       0.02 
freq.    1106.37  E(vib)   ...       0.02 
freq.    1182.14  E(vib)   ...       0.01 
freq.    1288.35  E(vib)   ...       0.01 
freq.    1382.31  E(vib)   ...       0.01 
freq.    1409.59  E(vib)   ...       0.00 
freq.    1415.64  E(vib)   ...       0.00 
freq.    1495.25  E(vib)   ...       0.00 
freq.    1516.51  E(vib)   ...       0.00 
freq.    1561.49  E(vib)   ...       0.00 
freq.    1637.06  E(vib)   ...       0.00 
freq.    1666.17  E(vib)   ...       0.00 
freq.    1717.76  E(vib)   ...       0.00 
freq.    3198.33  E(vib)   ...       0.00 
freq.    3216.43  E(vib)   ...       0.00 
freq.    3220.82  E(vib)   ...       0.00 
freq.    3236.80  E(vib)   ...       0.00 
freq.    3547.32  E(vib)   ...       0.00 
freq.    3667.63  E(vib)   ...       0.00 

------------
INNER ENERGY
------------

The inner energy is: U= E(el) + E(ZPE) + E(vib) + E(rot) + E(trans)
    E(el)   - is the total energy from the electronic structure calculation
              = E(kin-el) + E(nuc-el) + E(el-el) + E(nuc-nuc)
    E(ZPE)  - the the zero temperature vibrational energy from the frequency calculation
    E(vib)  - the the finite temperature correction to E(ZPE) due to population
              of excited vibrational states
    E(rot)  - is the rotational thermal energy
    E(trans)- is the translational thermal energy

Summary of contributions to the inner energy U:
Electronic energy                ...   -491.65971305 Eh
Zero point energy                ...      0.12008272 Eh      75.35 kcal/mol
Thermal vibrational correction   ...      0.00719567 Eh       4.52 kcal/mol
Thermal rotational correction    ...      0.00141627 Eh       0.89 kcal/mol
Thermal translational correction ...      0.00141627 Eh       0.89 kcal/mol
-----------------------------------------------------------------------
Total thermal energy                   -491.52960211 Eh


Summary of corrections to the electronic energy:
(perhaps to be used in another calculation)
Total thermal correction                  0.01002822 Eh       6.29 kcal/mol
Non-thermal (ZPE) correction              0.12008272 Eh      75.35 kcal/mol
-----------------------------------------------------------------------
Total correction                          0.13011094 Eh      81.65 kcal/mol


--------
ENTHALPY
--------

The enthalpy is H = U + kB*T
                kB is Boltzmann's constant
Total free energy                 ...   -491.52960211 Eh 
Thermal Enthalpy correction       ...      0.00094421 Eh       0.59 kcal/mol
-----------------------------------------------------------------------
Total Enthalpy                    ...   -491.52865791 Eh


Note: Only C1 symmetry has been detected, increase convergence thresholds 
      if your molecule has a higher symmetry. Symmetry factor of 1.0 is   
      used for the rotational entropy correction. 
 

Note: Rotational entropy computed according to Herzberg 
Infrared and Raman Spectra, Chapter V,1, Van Nostrand Reinhold, 1945 
Point Group:  C1, Symmetry Number:   1  
Rotational constants in cm-1:     0.083064     0.021664     0.017303 

Vibrational entropy computed according to the QRRHO of S. Grimme
Chem.Eur.J. 2012 18 9955


-------
ENTROPY
-------

The entropy contributions are T*S = T*(S(el)+S(vib)+S(rot)+S(trans))
     S(el)   - electronic entropy
     S(vib)  - vibrational entropy
     S(rot)  - rotational entropy
     S(trans)- translational entropy
The entropies will be listed as multiplied by the temperature to get
units of energy

Electronic entropy                ...      0.00000000 Eh      0.00 kcal/mol
Vibrational entropy               ...      0.01474506 Eh      9.25 kcal/mol
Rotational entropy                ...      0.01440975 Eh      9.04 kcal/mol
Translational entropy             ...      0.01933899 Eh     12.14 kcal/mol
-----------------------------------------------------------------------
Final entropy term                ...      0.04849381 Eh     30.43 kcal/mol

In case the symmetry of your molecule has not been determined correctly
or in case you have a reason to use a different symmetry number we print 
out the resulting rotational entropy values for sn=1,12 :
 --------------------------------------------------------
|  sn= 1 | S(rot)=       0.01440975 Eh      9.04 kcal/mol|
|  sn= 2 | S(rot)=       0.01375530 Eh      8.63 kcal/mol|
|  sn= 3 | S(rot)=       0.01337247 Eh      8.39 kcal/mol|
|  sn= 4 | S(rot)=       0.01310084 Eh      8.22 kcal/mol|
|  sn= 5 | S(rot)=       0.01289015 Eh      8.09 kcal/mol|
|  sn= 6 | S(rot)=       0.01271801 Eh      7.98 kcal/mol|
|  sn= 7 | S(rot)=       0.01257246 Eh      7.89 kcal/mol|
|  sn= 8 | S(rot)=       0.01244638 Eh      7.81 kcal/mol|
|  sn= 9 | S(rot)=       0.01233518 Eh      7.74 kcal/mol|
|  sn=10 | S(rot)=       0.01223570 Eh      7.68 kcal/mol|
|  sn=11 | S(rot)=       0.01214571 Eh      7.62 kcal/mol|
|  sn=12 | S(rot)=       0.01206355 Eh      7.57 kcal/mol|
 --------------------------------------------------------


-------------------
GIBBS FREE ENERGY
-------------------

The Gibbs free energy is G = H - T*S

Total enthalpy                    ...   -491.52865791 Eh 
Total entropy correction          ...     -0.04849381 Eh    -30.43 kcal/mol
-----------------------------------------------------------------------
Final Gibbs free energy         ...   -491.57715171 Eh

For completeness - the Gibbs free energy minus the electronic energy
G-E(el)                           ...      0.08256134 Eh     51.81 kcal/mol


Timings for individual modules:

Sum of individual times         ...     4820.145 sec (=  80.336 min)
GTO integral calculation        ...       10.824 sec (=   0.180 min)   0.2 %
SCF iterations                  ...     2981.603 sec (=  49.693 min)  61.9 %
SCF Gradient evaluation         ...      771.118 sec (=  12.852 min)  16.0 %
Geometry relaxation             ...        2.918 sec (=   0.049 min)   0.1 %
Analytical frequency calculation...     1053.682 sec (=  17.561 min)  21.9 %
                             ****ORCA TERMINATED NORMALLY****
TOTAL RUN TIME: 0 days 1 hours 20 minutes 32 seconds 286 msec
