
                                 *****************
                                 * O   R   C   A *
                                 *****************

                                            #,                                       
                                            ###                                      
                                            ####                                     
                                            #####                                    
                                            ######                                   
                                           ########,                                 
                                     ,,################,,,,,                         
                               ,,#################################,,                 
                          ,,##########################################,,             
                       ,#########################################, ''#####,          
                    ,#############################################,,   '####,        
                  ,##################################################,,,,####,       
                ,###########''''           ''''###############################       
              ,#####''   ,,,,##########,,,,          '''####'''          '####       
            ,##' ,,,,###########################,,,                        '##       
           ' ,,###''''                  '''############,,,                           
         ,,##''                                '''############,,,,        ,,,,,,###''
      ,#''                                            '''#######################'''  
     '                                                          ''''####''''         
             ,#######,   #######,   ,#######,      ##                                
            ,#'     '#,  ##    ##  ,#'     '#,    #''#        ######   ,####,        
            ##       ##  ##   ,#'  ##            #'  '#       #        #'  '#        
            ##       ##  #######   ##           ,######,      #####,   #    #        
            '#,     ,#'  ##    ##  '#,     ,#' ,#      #,         ##   #,  ,#        
             '#######'   ##     ##  '#######'  #'      '#     #####' # '####'        



                  #######################################################
                  #                        -***-                        #
                  #          Department of theory and spectroscopy      #
                  #    Directorship and core code : Frank Neese         #
                  #        Max Planck Institute fuer Kohlenforschung    #
                  #                Kaiser Wilhelm Platz 1               #
                  #                 D-45470 Muelheim/Ruhr               #
                  #                      Germany                        #
                  #                                                     #
                  #                  All rights reserved                #
                  #                        -***-                        #
                  #######################################################



                         Program Version 5.0.4 -  RELEASE  -

 With contributions from (in alphabetic order):
   Daniel Aravena         : Magnetic Suceptibility
   Michael Atanasov       : Ab Initio Ligand Field Theory (pilot matlab implementation)
   Alexander A. Auer      : GIAO ZORA, VPT2 properties, NMR spectrum
   Ute Becker             : Parallelization
   Giovanni Bistoni       : ED, misc. LED, open-shell LED, HFLD
   Martin Brehm           : Molecular dynamics
   Dmytro Bykov           : SCF Hessian
   Vijay G. Chilkuri      : MRCI spin determinant printing, contributions to CSF-ICE
   Dipayan Datta          : RHF DLPNO-CCSD density
   Achintya Kumar Dutta   : EOM-CC, STEOM-CC
   Dmitry Ganyushin       : Spin-Orbit,Spin-Spin,Magnetic field MRCI
   Miquel Garcia          : C-PCM and meta-GGA Hessian, CC/C-PCM, Gaussian charge scheme
   Yang Guo               : DLPNO-NEVPT2, F12-NEVPT2, CIM, IAO-localization
   Andreas Hansen         : Spin unrestricted coupled pair/coupled cluster methods
   Benjamin Helmich-Paris : MC-RPA, TRAH-SCF, COSX integrals
   Lee Huntington         : MR-EOM, pCC
   Robert Izsak           : Overlap fitted RIJCOSX, COSX-SCS-MP3, EOM
   Marcus Kettner         : VPT2
   Christian Kollmar      : KDIIS, OOCD, Brueckner-CCSD(T), CCSD density, CASPT2, CASPT2-K
   Simone Kossmann        : Meta GGA functionals, TD-DFT gradient, OOMP2, MP2 Hessian
   Martin Krupicka        : Initial AUTO-CI
   Lucas Lang             : DCDCAS
   Marvin Lechner         : AUTO-CI (C++ implementation), FIC-MRCC
   Dagmar Lenk            : GEPOL surface, SMD
   Dimitrios Liakos       : Extrapolation schemes; Compound Job, initial MDCI parallelization
   Dimitrios Manganas     : Further ROCIS development; embedding schemes
   Dimitrios Pantazis     : SARC Basis sets
   Anastasios Papadopoulos: AUTO-CI, single reference methods and gradients
   Taras Petrenko         : DFT Hessian,TD-DFT gradient, ASA, ECA, R-Raman, ABS, FL, XAS/XES, NRVS
   Peter Pinski           : DLPNO-MP2, DLPNO-MP2 Gradient
   Christoph Reimann      : Effective Core Potentials
   Marius Retegan         : Local ZFS, SOC
   Christoph Riplinger    : Optimizer, TS searches, QM/MM, DLPNO-CCSD(T), (RO)-DLPNO pert. Triples
   Tobias Risthaus        : Range-separated hybrids, TD-DFT gradient, RPA, STAB
   Michael Roemelt        : Original ROCIS implementation
   Masaaki Saitow         : Open-shell DLPNO-CCSD energy and density
   Barbara Sandhoefer     : DKH picture change effects
   Avijit Sen             : IP-ROCIS
   Kantharuban Sivalingam : CASSCF convergence, NEVPT2, FIC-MRCI
   Bernardo de Souza      : ESD, SOC TD-DFT
   Georgi Stoychev        : AutoAux, RI-MP2 NMR, DLPNO-MP2 response
   Willem Van den Heuvel  : Paramagnetic NMR
   Boris Wezisla          : Elementary symmetry handling
   Frank Wennmohs         : Technical directorship


 We gratefully acknowledge several colleagues who have allowed us to
 interface, adapt or use parts of their codes:
   Stefan Grimme, W. Hujo, H. Kruse, P. Pracht,  : VdW corrections, initial TS optimization,
                  C. Bannwarth, S. Ehlert          DFT functionals, gCP, sTDA/sTD-DF
   Ed Valeev, F. Pavosevic, A. Kumar             : LibInt (2-el integral package), F12 methods
   Garnet Chan, S. Sharma, J. Yang, R. Olivares  : DMRG
   Ulf Ekstrom                                   : XCFun DFT Library
   Mihaly Kallay                                 : mrcc  (arbitrary order and MRCC methods)
   Jiri Pittner, Ondrej Demel                    : Mk-CCSD
   Frank Weinhold                                : gennbo (NPA and NBO analysis)
   Christopher J. Cramer and Donald G. Truhlar   : smd solvation model
   Lars Goerigk                                  : TD-DFT with DH, B97 family of functionals
   V. Asgeirsson, H. Jonsson                     : NEB implementation
   FAccTs GmbH                                   : IRC, NEB, NEB-TS, DLPNO-Multilevel, CI-OPT
                                                   MM, QMMM, 2- and 3-layer-ONIOM, Crystal-QMMM,
                                                   LR-CPCM, SF, NACMEs, symmetry and pop. for TD-DFT,
                                                   nearIR, NL-DFT gradient (VV10), updates on ESD,
                                                   ML-optimized integration grids
   S Lehtola, MJT Oliveira, MAL Marques          : LibXC Library
   Liviu Ungur et al                             : ANISO software


 Your calculation uses the libint2 library for the computation of 2-el integrals
 For citations please refer to: http://libint.valeyev.net

 Your ORCA version has been built with support for libXC version: 5.1.0
 For citations please refer to: https://tddft.org/programs/libxc/

 This ORCA versions uses:
   CBLAS   interface :  Fast vector & matrix operations
   LAPACKE interface :  Fast linear algebra routines
   Shared memory     :  Shared parallel matrices


Your calculation utilizes the atom-pairwise dispersion correction
based on tight binding partial charges (D4)
Cite in your paper:
E.Caldeweyher, C.Bannwarth, S.Grimme, J.Chem.Phys., (2017), 147, 034112.
E.Caldeweyher, S.Ehlert, A.Hansen, H.Neugebauer, S.Grimme, J.Chem.Phys., (2018), in progress.
   

================================================================================

----- Orbital basis set information -----
Your calculation utilizes the basis: def2-SVP
   F. Weigend and R. Ahlrichs, Phys. Chem. Chem. Phys. 7, 3297 (2005).

----- AuxJ basis set information -----
Your calculation utilizes the auxiliary basis: def2/J
   F. Weigend, Phys. Chem. Chem. Phys. 8, 1057 (2006).

================================================================================
                                        WARNINGS
                       Please study these warnings very carefully!
================================================================================


WARNING: Geometry Optimization
  ===> : Switching off AutoStart
         For restart on a previous wavefunction, please use MOREAD

INFO   : the flag for use of the SHARK integral package has been found!

================================================================================
                                       INPUT FILE
================================================================================
NAME = p_p_opt_9.inp
|  1> !B3LYP/G DEF2-SVP OPT FREQ D4 SOSCF
|  2> 
|  3> %geom
|  4> convergence tight
|  5> maxIter 1000
|  6> end
|  7> 
|  8> * xyz 1 1
|  9>    C       -5.69598        1.01126        0.34598
| 10>    C       -6.61309        1.67603       -0.50369
| 11>    C       -7.17988        1.02714       -1.57305
| 12>    C       -6.81707       -0.30677       -1.80521
| 13>    C       -5.91124       -1.00333       -0.99572
| 14>    C       -5.36203       -0.34282        0.07406
| 15>    C       -5.07339        1.71126        1.49349
| 16>    H       -5.06890        1.07922        2.38655
| 17>    H       -5.55721        2.65981        1.71609
| 18>    H       -4.01539        1.91363        1.27162
| 19>    H       -6.86887        2.70718       -0.30049
| 20>    H       -7.89032        1.51195       -2.22752
| 21>    H       -5.66416       -2.03004       -1.22483
| 22>    H       -4.66359       -0.85370        0.72411
| 23>    N       -7.41541       -1.00159       -2.94014
| 24>    O       -6.69310       -1.74363       -3.58136
| 25>    O       -8.59281       -0.78473       -3.15682
| 26>    H      -15.60116       -9.88610      -13.01405
| 27> **                         ****END OF INPUT****
================================================================================

                       *****************************
                       * Geometry Optimization Run *
                       *****************************

Geometry optimization settings:
Update method            Update   .... BFGS
Choice of coordinates    CoordSys .... Z-matrix Internals
Initial Hessian          InHess   .... Almoef's Model

Convergence Tolerances:
Energy Change            TolE     ....  1.0000e-06 Eh
Max. Gradient            TolMAXG  ....  1.0000e-04 Eh/bohr
RMS Gradient             TolRMSG  ....  3.0000e-05 Eh/bohr
Max. Displacement        TolMAXD  ....  1.0000e-03 bohr
RMS Displacement         TolRMSD  ....  6.0000e-04 bohr
Strict Convergence                ....  False
------------------------------------------------------------------------------
                        ORCA OPTIMIZATION COORDINATE SETUP
------------------------------------------------------------------------------

The optimization will be done in new redundant internal coordinates
Making redundant internal coordinates   ...  (new redundants) done
Evaluating the initial hessian          ...  (Almloef) done
Evaluating the coordinates              ...  done
Calculating the B-matrix                .... done
Calculating the G-matrix                .... done
Diagonalizing the G-matrix              .... done
Small eigenvalue found = 9.193e-03
Small eigenvalue found = 1.581e-02
The first mode is                       ....   47
The number of degrees of freedom        ....   48

    -----------------------------------------------------------------
                    Redundant Internal Coordinates


    -----------------------------------------------------------------
         Definition                    Initial Value    Approx d2E/dq
    -----------------------------------------------------------------
      1. B(C   1,C   0)                  1.4160         0.567960   
      2. B(C   2,C   1)                  1.3733         0.664428   
      3. B(C   3,C   2)                  1.4017         0.598446   
      4. B(C   4,C   3)                  1.4004         0.601472   
      5. B(C   5,C   4)                  1.3720         0.667552   
      6. B(C   5,C   0)                  1.4209         0.557722   
      7. B(C   6,C   0)                  1.4813         0.446679   
      8. B(H   7,C   6)                  1.0941         0.354719   
      9. B(H   8,C   6)                  1.0878         0.362979   
     10. B(H   9,C   6)                  1.0998         0.347376   
     11. B(H  10,C   1)                  1.0817         0.371306   
     12. B(H  11,C   2)                  1.0808         0.372499   
     13. B(H  12,C   4)                  1.0806         0.372767   
     14. B(H  13,C   5)                  1.0823         0.370426   
     15. B(N  14,C   3)                  1.4591         0.434207   
     16. B(O  15,N  14)                  1.2180         0.942825   
     17. B(O  16,N  14)                  1.2167         0.947487   
     18. B(H  17,O  16)                 15.1366         0.000000   
     19. B(H  17,O  15)                 15.3176         0.000000   
     20. B(H  17,N  14)                 15.7297         0.000000   
     21. A(C   1,C   0,C   6)          121.0108         0.403091   
     22. A(C   5,C   0,C   6)          119.9855         0.401800   
     23. A(C   1,C   0,C   5)          118.9987         0.419277   
     24. A(C   2,C   1,H  10)          119.9432         0.358941   
     25. A(C   0,C   1,H  10)          119.2087         0.349525   
     26. A(C   0,C   1,C   2)          120.8477         0.432627   
     27. A(C   3,C   2,H  11)          119.7828         0.352817   
     28. A(C   1,C   2,H  11)          122.0656         0.359137   
     29. A(C   1,C   2,C   3)          118.1512         0.436718   
     30. A(C   2,C   3,C   4)          123.0271         0.428971   
     31. A(C   4,C   3,N  14)          118.5572         0.402558   
     32. A(C   2,C   3,N  14)          118.4153         0.402201   
     33. A(C   3,C   4,C   5)          118.0474         0.437485   
     34. A(C   5,C   4,H  12)          122.0875         0.359468   
     35. A(C   3,C   4,H  12)          119.8650         0.353162   
     36. A(C   0,C   5,C   4)          120.9253         0.431579   
     37. A(C   4,C   5,H  13)          119.9603         0.359083   
     38. A(C   0,C   5,H  13)          119.1144         0.348315   
     39. A(H   8,C   6,H   9)          107.9802         0.289564   
     40. A(H   7,C   6,H   9)          105.4869         0.288522   
     41. A(C   0,C   6,H   9)          109.5720         0.332046   
     42. A(H   7,C   6,H   8)          109.7864         0.290516   
     43. A(C   0,C   6,H   8)          112.5585         0.334475   
     44. A(C   0,C   6,H   7)          111.1645         0.333199   
     45. A(O  16,N  14,H  17)           58.8693         0.089001   
     46. A(O  15,N  14,H  17)           68.1206         0.089001   
     47. A(C   3,N  14,H  17)          168.6806         0.089001   
     48. A(O  15,N  14,O  16)          126.0668         0.492919   
     49. A(C   3,N  14,O  16)          116.7761         0.430774   
     50. A(C   3,N  14,O  15)          117.1570         0.430393   
     51. A(N  14,O  15,H  17)          107.6478         0.089002   
     52. A(N  14,O  16,H  17)          117.1855         0.089002   
     53. A(O  15,H  17,O  16)            8.1435         0.089000   
     54. D(H  10,C   1,C   0,C   5)   -179.9315         0.022121   
     55. D(H  10,C   1,C   0,C   6)     -0.7459         0.022121   
     56. D(C   2,C   1,C   0,C   6)    179.4596         0.022121   
     57. D(C   2,C   1,C   0,C   5)      0.2741         0.022121   
     58. D(C   3,C   2,C   1,C   0)     -0.4937         0.030836   
     59. D(H  11,C   2,C   1,H  10)     -0.4927         0.030836   
     60. D(C   3,C   2,C   1,H  10)    179.7134         0.030836   
     61. D(H  11,C   2,C   1,C   0)    179.3002         0.030836   
     62. D(N  14,C   3,C   2,H  11)      0.2248         0.024682   
     63. D(N  14,C   3,C   2,C   1)   -179.9764         0.024682   
     64. D(C   4,C   3,C   2,H  11)   -179.5444         0.024682   
     65. D(C   4,C   3,C   2,C   1)      0.2544         0.024682   
     66. D(C   5,C   4,C   3,N  14)   -179.5526         0.024946   
     67. D(H  12,C   4,C   3,C   2)   -179.6942         0.024946   
     68. D(C   5,C   4,C   3,C   2)      0.2163         0.024946   
     69. D(H  12,C   4,C   3,N  14)      0.5370         0.024946   
     70. D(H  13,C   5,C   4,H  12)     -0.5117         0.031148   
     71. D(C   0,C   5,C   4,H  12)    179.4637         0.031148   
     72. D(C   0,C   5,C   4,C   3)     -0.4446         0.031148   
     73. D(H  13,C   5,C   0,C   6)      0.9949         0.021300   
     74. D(H  13,C   5,C   0,C   1)   -179.8110         0.021300   
     75. D(H  13,C   5,C   4,C   3)    179.5800         0.031148   
     76. D(C   4,C   5,C   0,C   6)   -178.9807         0.021300   
     77. D(C   4,C   5,C   0,C   1)      0.2134         0.021300   
     78. D(H   9,C   6,C   0,C   5)     71.6616         0.014716   
     79. D(H   9,C   6,C   0,C   1)   -107.5159         0.014716   
     80. D(H   8,C   6,C   0,C   5)   -168.1759         0.014716   
     81. D(H   8,C   6,C   0,C   1)     12.6465         0.014716   
     82. D(H   7,C   6,C   0,C   5)    -44.5405         0.014716   
     83. D(H   7,C   6,C   0,C   1)    136.2819         0.014716   
     84. D(O  15,N  14,C   3,C   2)    140.4310         0.016075   
     85. D(H  17,N  14,C   3,C   4)     75.6066         0.016075   
     86. D(H  17,N  14,C   3,C   2)   -104.1730         0.016075   
     87. D(O  16,N  14,C   3,C   4)    140.1752         0.016075   
     88. D(O  16,N  14,C   3,C   2)    -39.6045         0.016075   
     89. D(O  15,N  14,C   3,C   4)    -39.7893         0.016075   
     90. D(H  17,O  15,N  14,O  16)    -10.9762         0.094326   
     91. D(H  17,O  15,N  14,C   3)    168.9845         0.094326   
     92. D(H  17,O  16,N  14,O  15)     11.9122         0.095413   
     93. D(H  17,O  16,N  14,C   3)   -168.0487         0.095413   
     94. D(O  15,H  17,O  16,N  14)     -5.3742         0.001500   
     95. D(O  16,H  17,O  15,N  14)      5.0102         0.001500   
    -----------------------------------------------------------------

Number of atoms                         .... 18
Number of degrees of freedom            .... 95

         *************************************************************
         *                GEOMETRY OPTIMIZATION CYCLE   1            *
         *************************************************************
---------------------------------
CARTESIAN COORDINATES (ANGSTROEM)
---------------------------------
  C     -5.695980    1.011260    0.345980
  C     -6.613090    1.676030   -0.503690
  C     -7.179880    1.027140   -1.573050
  C     -6.817070   -0.306770   -1.805210
  C     -5.911240   -1.003330   -0.995720
  C     -5.362030   -0.342820    0.074060
  C     -5.073390    1.711260    1.493490
  H     -5.068900    1.079220    2.386550
  H     -5.557210    2.659810    1.716090
  H     -4.015390    1.913630    1.271620
  H     -6.868870    2.707180   -0.300490
  H     -7.890320    1.511950   -2.227520
  H     -5.664160   -2.030040   -1.224830
  H     -4.663590   -0.853700    0.724110
  N     -7.415410   -1.001590   -2.940140
  O     -6.693100   -1.743630   -3.581360
  O     -8.592810   -0.784730   -3.156820
  H    -15.601160   -9.886100  -13.014050

----------------------------
CARTESIAN COORDINATES (A.U.)
----------------------------
  NO LB      ZA    FRAG     MASS         X           Y           Z
   0 C     6.0000    0    12.011  -10.763842    1.911004    0.653807
   1 C     6.0000    0    12.011  -12.496929    3.167238   -0.951836
   2 C     6.0000    0    12.011  -13.568007    1.941013   -2.972634
   3 C     6.0000    0    12.011  -12.882395   -0.579711   -3.411353
   4 C     6.0000    0    12.011  -11.170625   -1.896019   -1.881638
   5 C     6.0000    0    12.011  -10.132768   -0.647836    0.139953
   6 C     6.0000    0    12.011   -9.587318    3.233813    2.822287
   7 H     1.0000    0     1.008   -9.578833    2.039430    4.509926
   8 H     1.0000    0     1.008  -10.501605    5.026312    3.242940
   9 H     1.0000    0     1.008   -7.587987    3.616237    2.403014
  10 H     1.0000    0     1.008  -12.980283    5.115829   -0.567844
  11 H     1.0000    0     1.008  -14.910544    2.857171   -4.209403
  12 H     1.0000    0     1.008  -10.703711   -3.836220   -2.314593
  13 H     1.0000    0     1.008   -8.812908   -1.613259    1.368370
  14 N     7.0000    0    14.007  -14.013094   -1.892731   -5.556059
  15 O     8.0000    0    15.999  -12.648126   -3.294983   -6.767790
  16 O     8.0000    0    15.999  -16.238058   -1.482925   -5.965525
  17 H     1.0000    0     1.008  -29.481920  -18.682022  -24.592990

--------------------------------
INTERNAL COORDINATES (ANGSTROEM)
--------------------------------
 C      0   0   0     0.000000000000     0.00000000     0.00000000
 C      1   0   0     1.415962221918     0.00000000     0.00000000
 C      2   1   0     1.373258877925   120.84772176     0.00000000
 C      3   2   1     1.401729378232   118.15123486   359.50632674
 C      4   3   2     1.400356341293   123.02708648     0.25439338
 C      5   4   3     1.371981899516   118.04741958     0.21630597
 C      1   2   3     1.481349893914   121.01079404   179.45961915
 H      7   1   2     1.094098206424   111.16445591   136.28187476
 H      7   1   2     1.087832549109   112.55850701    12.64652844
 H      7   1   2     1.099792668552   109.57203887   252.48405501
 H      2   1   3     1.081657973160   119.20872616   179.79445598
 H      3   2   1     1.080785228711   122.06561453   179.30021998
 H      5   4   3     1.080589349661   119.86500460   180.30583472
 H      6   5   4     1.082303936286   119.96029481   179.57997859
 N      4   3   2     1.459058495366   118.41528394   180.02357962
 O     15   4   3     1.217997613339   117.15704392   140.43100292
 O     15   4   3     1.216654939578   116.77609591   320.39547621
 H     17  15   4    15.136607574761   117.18546458   191.95130755

---------------------------
INTERNAL COORDINATES (A.U.)
---------------------------
 C      0   0   0     0.000000000000     0.00000000     0.00000000
 C      1   0   0     2.675780815404     0.00000000     0.00000000
 C      2   1   0     2.595083190254   120.84772176     0.00000000
 C      3   2   1     2.648884638731   118.15123486   359.50632674
 C      4   3   2     2.646289974944   123.02708648     0.25439338
 C      5   4   3     2.592670050783   118.04741958     0.21630597
 C      1   2   3     2.799345608011   121.01079404   179.45961915
 H      7   1   2     2.067545973756   111.16445591   136.28187476
 H      7   1   2     2.055705597381   112.55850701    12.64652844
 H      7   1   2     2.078306947657   109.57203887   252.48405501
 H      2   1   3     2.044037339844   119.20872616   179.79445598
 H      3   2   1     2.042388091851   122.06561453   179.30021998
 H      5   4   3     2.042017934091   119.86500460   180.30583472
 H      6   5   4     2.045258033245   119.96029481   179.57997859
 N      4   3   2     2.757220969613   118.41528394   180.02357962
 O     15   4   3     2.301681920981   117.15704392   140.43100292
 O     15   4   3     2.299144635285   116.77609591   320.39547621
 H     17  15   4    28.604042912935   117.18546458   191.95130755

---------------------
BASIS SET INFORMATION
---------------------
There are 4 groups of distinct atoms

 Group   1 Type C   : 7s4p1d contracted to 3s2p1d pattern {511/31/1}
 Group   2 Type H   : 4s1p contracted to 2s1p pattern {31/1}
 Group   3 Type N   : 7s4p1d contracted to 3s2p1d pattern {511/31/1}
 Group   4 Type O   : 7s4p1d contracted to 3s2p1d pattern {511/31/1}

Atom   0C    basis set group =>   1
Atom   1C    basis set group =>   1
Atom   2C    basis set group =>   1
Atom   3C    basis set group =>   1
Atom   4C    basis set group =>   1
Atom   5C    basis set group =>   1
Atom   6C    basis set group =>   1
Atom   7H    basis set group =>   2
Atom   8H    basis set group =>   2
Atom   9H    basis set group =>   2
Atom  10H    basis set group =>   2
Atom  11H    basis set group =>   2
Atom  12H    basis set group =>   2
Atom  13H    basis set group =>   2
Atom  14N    basis set group =>   3
Atom  15O    basis set group =>   4
Atom  16O    basis set group =>   4
Atom  17H    basis set group =>   2
---------------------------------
AUXILIARY/J BASIS SET INFORMATION
---------------------------------
There are 4 groups of distinct atoms

 Group   1 Type C   : 12s5p4d2f1g contracted to 6s4p3d1f1g pattern {711111/2111/211/2/1}
 Group   2 Type H   : 5s2p1d contracted to 3s1p1d pattern {311/2/1}
 Group   3 Type N   : 12s5p4d2f1g contracted to 6s4p3d1f1g pattern {711111/2111/211/2/1}
 Group   4 Type O   : 12s5p4d2f1g contracted to 6s4p3d1f1g pattern {711111/2111/211/2/1}

Atom   0C    basis set group =>   1
Atom   1C    basis set group =>   1
Atom   2C    basis set group =>   1
Atom   3C    basis set group =>   1
Atom   4C    basis set group =>   1
Atom   5C    basis set group =>   1
Atom   6C    basis set group =>   1
Atom   7H    basis set group =>   2
Atom   8H    basis set group =>   2
Atom   9H    basis set group =>   2
Atom  10H    basis set group =>   2
Atom  11H    basis set group =>   2
Atom  12H    basis set group =>   2
Atom  13H    basis set group =>   2
Atom  14N    basis set group =>   3
Atom  15O    basis set group =>   4
Atom  16O    basis set group =>   4
Atom  17H    basis set group =>   2
------------------------------------------------------------------------------
                           ORCA GTO INTEGRAL CALCULATION
                           -- RI-GTO INTEGRALS CHOSEN --
------------------------------------------------------------------------------
------------------------------------------------------------------------------
                   ___                                                        
                  /   \      - P O W E R E D   B Y -                         
                 /     \                                                     
                 |  |  |   _    _      __       _____    __    __             
                 |  |  |  | |  | |    /  \     |  _  \  |  |  /  |          
                  \  \/   | |  | |   /    \    | | | |  |  | /  /          
                 / \  \   | |__| |  /  /\  \   | |_| |  |  |/  /          
                |  |  |   |  __  | /  /__\  \  |    /   |      \           
                |  |  |   | |  | | |   __   |  |    \   |  |\   \          
                \     /   | |  | | |  |  |  |  | |\  \  |  | \   \       
                 \___/    |_|  |_| |__|  |__|  |_| \__\ |__|  \__/        
                                                                              
                      - O R C A' S   B I G   F R I E N D -                    
                                      &                                       
                       - I N T E G R A L  F E E D E R -                       
                                                                              
 v1 FN, 2020, v2 2021                                                         
------------------------------------------------------------------------------


Reading SHARK input file p_p_opt_9.SHARKINP.tmp ... ok
----------------------
SHARK INTEGRAL PACKAGE
----------------------

Number of atoms                             ...     18
Number of basis functions                   ...    180
Number of shells                            ...     84
Maximum angular momentum                    ...      2
Integral batch strategy                     ... SHARK/LIBINT Hybrid
RI-J (if used) integral strategy            ... SPLIT-RIJ (Revised 2003 algorithm where possible)
Printlevel                                  ...      1
Contraction scheme used                     ... SEGMENTED contraction
Coulomb Range Separation                    ... NOT USED
Exchange Range Separation                   ... NOT USED
Finite Nucleus Model                        ... NOT USED
Auxiliary Coulomb fitting basis             ... AVAILABLE
   # of basis functions in Aux-J            ...    578
   # of shells in Aux-J                     ...    190
   Maximum angular momentum in Aux-J        ...      4
Auxiliary J/K fitting basis                 ... NOT available
Auxiliary Correlation fitting basis         ... NOT available
Auxiliary 'external' fitting basis          ... NOT available
Integral threshold                          ...     2.500000e-11
Primitive cut-off                           ...     2.500000e-12
Primitive pair pre-selection threshold      ...     2.500000e-12

Calculating pre-screening integrals         ... done (  0.1 sec) Dimension = 84
Organizing shell pair data                  ... done (  0.1 sec)
Shell pair information
Total number of shell pairs                 ...      3570
Shell pairs after pre-screening             ...      3001
Total number of primitive shell pairs       ...     13034
Primitive shell pairs kept                  ...      7930
          la=0 lb=0:    896 shell pairs
          la=1 lb=0:   1085 shell pairs
          la=1 lb=1:    347 shell pairs
          la=2 lb=0:    385 shell pairs
          la=2 lb=1:    240 shell pairs
          la=2 lb=2:     48 shell pairs

Calculating one electron integrals          ... done (  0.0 sec)
Calculating RI/J V-Matrix + Cholesky decomp.... done (  0.1 sec)
Calculating Nuclear repulsion               ... done (  0.0 sec) ENN=    496.040880991093 Eh

SHARK setup successfully completed in   0.4 seconds

Maximum memory used throughout the entire GTOINT-calculation: 24.6 MB
-------------------------------------------------------------------------------
                                 ORCA SCF
-------------------------------------------------------------------------------

------------
SCF SETTINGS
------------
Hamiltonian:
 Density Functional     Method          .... DFT(GTOs)
 Exchange Functional    Exchange        .... B88
   X-Alpha parameter    XAlpha          ....  0.666667
   Becke's b parameter  XBeta           ....  0.004200
 Correlation Functional Correlation     .... LYP
 LDA part of GGA corr.  LDAOpt          .... VWN-3
 Gradients option       PostSCFGGA      .... off
 Hybrid DFT is turned on
   Fraction HF Exchange ScalHFX         ....  0.200000
   Scaling of DF-GGA-X  ScalDFX         ....  0.720000
   Scaling of DF-GGA-C  ScalDFC         ....  0.810000
   Scaling of DF-LDA-C  ScalLDAC        ....  1.000000
   Perturbative correction              ....  0.000000
   Density functional embedding theory  .... OFF
   NL short-range parameter             ....  4.800000
 RI-approximation to the Coulomb term is turned on
   Number of AuxJ basis functions       .... 578
   RIJ-COSX (HFX calculated with COS-X)).... on


General Settings:
 Integral files         IntName         .... p_p_opt_9
 Hartree-Fock type      HFTyp           .... RHF
 Total Charge           Charge          ....    1
 Multiplicity           Mult            ....    1
 Number of Electrons    NEL             ....   72
 Basis Dimension        Dim             ....  180
 Nuclear Repulsion      ENuc            ....    496.0408809911 Eh

Convergence Acceleration:
 DIIS                   CNVDIIS         .... on
   Start iteration      DIISMaxIt       ....    12
   Startup error        DIISStart       ....  0.200000
   # of expansion vecs  DIISMaxEq       ....     5
   Bias factor          DIISBfac        ....   1.050
   Max. coefficient     DIISMaxC        ....  10.000
 Trust-Rad. Augm. Hess. CNVTRAH         .... auto
   Auto Start mean grad. ratio tolernc. ....  1.125000
   Auto Start start iteration           ....    20
   Auto Start num. interpolation iter.  ....    10
   Max. Number of Micro iterations      ....    16
   Max. Number of Macro iterations      .... Maxiter - #DIIS iter
   Number of Davidson start vectors     ....     2
   Converg. threshold I  (grad. norm)   ....   1.000e-05
   Converg. threshold II (energy diff.) ....   1.000e-08
   Grad. Scal. Fac. for Micro threshold ....   0.100
   Minimum threshold for Micro iter.    ....   0.010
   NR start threshold (gradient norm)   ....   0.001
   Initial trust radius                 ....   0.400
   Minimum AH scaling param. (alpha)    ....   1.000
   Maximum AH scaling param. (alpha)    .... 1000.000
   Orbital update algorithm             .... Taylor
   White noise on init. David. guess    .... on
   Maximum white noise                  ....   0.010
   Quad. conv. algorithm                .... NR
 SOSCF                  CNVSOSCF        .... on
   Start iteration      SOSCFMaxIt      ....   150
   Startup grad/error   SOSCFStart      ....  0.003300
 Level Shifting         CNVShift        .... on
   Level shift para.    LevelShift      ....    0.2500
   Turn off err/grad.   ShiftErr        ....    0.0010
 Zerner damping         CNVZerner       .... off
 Static damping         CNVDamp         .... on
   Fraction old density DampFac         ....    0.7000
   Max. Damping (<1)    DampMax         ....    0.9800
   Min. Damping (>=0)   DampMin         ....    0.0000
   Turn off err/grad.   DampErr         ....    0.1000
 Fernandez-Rico         CNVRico         .... off

SCF Procedure:
 Maximum # iterations   MaxIter         ....   125
 SCF integral mode      SCFMode         .... Direct
   Integral package                     .... SHARK and LIBINT hybrid scheme
 Reset frequency        DirectResetFreq ....    20
 Integral Threshold     Thresh          ....  2.500e-11 Eh
 Primitive CutOff       TCut            ....  2.500e-12 Eh

Convergence Tolerance:
 Convergence Check Mode ConvCheckMode   .... Total+1el-Energy
 Convergence forced     ConvForced      .... 0
 Energy Change          TolE            ....  1.000e-08 Eh
 1-El. energy change                    ....  1.000e-05 Eh
 Orbital Gradient       TolG            ....  1.000e-05
 Orbital Rotation angle TolX            ....  1.000e-05
 DIIS Error             TolErr          ....  5.000e-07


Diagonalization of the overlap matrix:
Smallest eigenvalue                        ... 2.801e-04
Time for diagonalization                   ...    0.013 sec
Threshold for overlap eigenvalues          ... 1.000e-08
Number of eigenvalues below threshold      ... 0
Time for construction of square roots      ...    0.006 sec
Total time needed                          ...    0.019 sec

Time for model grid setup =    0.669 sec

------------------------------
INITIAL GUESS: MODEL POTENTIAL
------------------------------
Loading Hartree-Fock densities                     ... done
Calculating cut-offs                               ... done
Initializing the effective Hamiltonian             ... done
Setting up the integral package (SHARK)            ... done
Starting the Coulomb interaction                   ... done (   1.4 sec)
Reading the grid                                   ... done
Mapping shells                                     ... done
Starting the XC term evaluation                    ... done (   1.0 sec)
  promolecular density results
     # of electrons  =     72.999280115
     EX              =    -61.302335316
     EC              =     -2.482211713
     EX+EC           =    -63.784547029
Transforming the Hamiltonian                       ... done (   0.0 sec)
Diagonalizing the Hamiltonian                      ... done (   0.0 sec)
Back transforming the eigenvectors                 ... done (   0.0 sec)
Now organizing SCF variables                       ... done
                      ------------------
                      INITIAL GUESS DONE (   3.2 sec)
                      ------------------
-------------------
DFT GRID GENERATION
-------------------

General Integration Accuracy     IntAcc      ... 4.388
Radial Grid Type                 RadialGrid  ... OptM3 with GC (2021)
Angular Grid (max. ang.)         AngularGrid ... 4 (Lebedev-302)
Angular grid pruning method      GridPruning ... 4 (adaptive)
Weight generation scheme         WeightScheme... Becke
Basis function cutoff            BFCut       ... 1.0000e-11
Integration weight cutoff        WCut        ... 1.0000e-14
Angular grids for H and He will be reduced by one unit
Partially contracted basis set               ... off
Rotationally invariant grid construction     ... off

Total number of grid points                  ...    86191
Total number of batches                      ...     1357
Average number of points per batch           ...       63
Average number of grid points per atom       ...     4788
Time for grid setup =    2.634 sec

--------------------
COSX GRID GENERATION
--------------------

GRIDX 1
-------
General Integration Accuracy     IntAcc      ... 3.816
Radial Grid Type                 RadialGrid  ... OptM3 with GC (2021)
Angular Grid (max. ang.)         AngularGrid ... 1 (Lebedev-50)
Angular grid pruning method      GridPruning ... 4 (adaptive)
Weight generation scheme         WeightScheme... Becke
Basis function cutoff            BFCut       ... 1.0000e-11
Integration weight cutoff        WCut        ... 1.0000e-14
Angular grids for H and He will be reduced by one unit
Partially contracted basis set               ... on
Rotationally invariant grid construction     ... off

Total number of grid points                  ...    10992
Total number of batches                      ...      180
Average number of points per batch           ...       61
Average number of grid points per atom       ...      611
UseSFitting                                  ... on

GRIDX 2
-------
General Integration Accuracy     IntAcc      ... 4.020
Radial Grid Type                 RadialGrid  ... OptM3 with GC (2021)
Angular Grid (max. ang.)         AngularGrid ... 2 (Lebedev-110)
Angular grid pruning method      GridPruning ... 4 (adaptive)
Weight generation scheme         WeightScheme... Becke
Basis function cutoff            BFCut       ... 1.0000e-11
Integration weight cutoff        WCut        ... 1.0000e-14
Angular grids for H and He will be reduced by one unit
Partially contracted basis set               ... on
Rotationally invariant grid construction     ... off

Total number of grid points                  ...    24165
Total number of batches                      ...      386
Average number of points per batch           ...       62
Average number of grid points per atom       ...     1343
UseSFitting                                  ... on

GRIDX 3
-------
General Integration Accuracy     IntAcc      ... 4.338
Radial Grid Type                 RadialGrid  ... OptM3 with GC (2021)
Angular Grid (max. ang.)         AngularGrid ... 3 (Lebedev-194)
Angular grid pruning method      GridPruning ... 4 (adaptive)
Weight generation scheme         WeightScheme... Becke
Basis function cutoff            BFCut       ... 1.0000e-11
Integration weight cutoff        WCut        ... 1.0000e-14
Angular grids for H and He will be reduced by one unit
Partially contracted basis set               ... on
Rotationally invariant grid construction     ... off

Total number of grid points                  ...    53261
Total number of batches                      ...      845
Average number of points per batch           ...       63
Average number of grid points per atom       ...     2959
UseSFitting                                  ... on

Time for X-Grid setup             =    4.381 sec

--------------
SCF ITERATIONS
--------------
ITER       Energy         Delta-E        Max-DP      RMS-DP      [F,P]     Damp
               ***  Starting incremental Fock matrix formation  ***
  0   -475.4456687863   0.000000000000 0.20729163  0.00368547  0.2176257 0.7000
  1   -475.7096588646  -0.263990078224 0.15087487  0.00230762  0.0735563 0.7000
                               ***Turning on DIIS***
  2   -475.7102231542  -0.000564289616 0.37914614  0.00478498  0.0359763 0.0000
  3   -475.2969579728   0.413265181330 0.18908164  0.00237154  0.2006841 0.7000
  4   -475.6771142870  -0.380156314155 0.44119050  0.00552018  0.0587734 0.0000
  5   -475.6897794569  -0.012665169919 0.01173122  0.00044494  0.0521713 0.0000
  6   -475.6991801356  -0.009400678704 0.00491152  0.00021611  0.0427728 0.0000
  7   -475.7025740794  -0.003393943826 0.01309180  0.00063420  0.0389162 0.0000
  8   -475.7105564137  -0.007982334212 0.00893049  0.00036331  0.0233202 0.0000
  9   -475.7135524417  -0.002996028088 0.01868053  0.00077708  0.0215336 0.0000
 10   -475.7173245605  -0.003772118736 0.01005635  0.00030579  0.0058382 0.0000
 11   -475.7176174830  -0.000292922496 0.00349454  0.00009824  0.0060161 0.0000
                      *** Initiating the SOSCF procedure ***
                           *** Shutting down DIIS ***
                      *** Re-Reading the Fockian *** 
                      *** Removing any level shift *** 
ITER      Energy       Delta-E        Grad      Rot      Max-DP    RMS-DP
 12   -475.71770315  -0.0000856640  0.000331  0.000331  0.690973  0.007762
               *** Restarting incremental Fock matrix formation ***
 13   -475.20005036   0.5176527851  0.180081  0.498952  0.248757  0.003337
 14   -475.24824029  -0.0481899277  0.064418  0.753510  0.696830  0.007443
 15   -475.21983554   0.0284047495  0.084275  0.524473  0.329695  0.008688
 16   -475.13381556   0.0860199820  0.080283  0.221636  0.197743  0.005367
 17   -475.28613177  -0.1523162125  0.049041  0.531762  0.181784  0.006899
 18   -475.19422844   0.0919033350  0.092470  0.327002  0.148985  0.004972
 19   -475.31989691  -0.1256684771  0.035183  0.211359  0.239097  0.003986

 WARNING: the maximum gradient error descreased on average only by a factor   0.7
          during the last 20 iterations

                      *** Initiating the TRAH-SCF procedure ***

              ***Rediagonalizing the Fockian in SOSCF/NRSCF***

TRAH GRIDX
----------

General Integration Accuracy     IntAcc      ... 3.067
Radial Grid Type                 RadialGrid  ... OptM3 with GC (2021)
Angular Grid (max. ang.)         AngularGrid ... 1 (Lebedev-50)
Angular grid pruning method      GridPruning ... 4 (adaptive)
Weight generation scheme         WeightScheme... Becke
Basis function cutoff            BFCut       ... 1.0000e-11
Integration weight cutoff        WCut        ... 1.0000e-14
Angular grids for H and He will be reduced by one unit
Partially contracted basis set               ... on
Rotationally invariant grid construction     ... off

Total number of grid points                  ...     5805
Total number of batches                      ...      103
Average number of points per batch           ...       56
Average number of grid points per atom       ...      323


TRAH GRID
---------

General Integration Accuracy     IntAcc      ... 3.467
Radial Grid Type                 RadialGrid  ... OptM3 with GC (2021)
Angular Grid (max. ang.)         AngularGrid ... 1 (Lebedev-50)
Angular grid pruning method      GridPruning ... 4 (adaptive)
Weight generation scheme         WeightScheme... Becke
Basis function cutoff            BFCut       ... 1.0000e-11
Integration weight cutoff        WCut        ... 1.0000e-14
Angular grids for H and He will be reduced by one unit
Partially contracted basis set               ... off
Rotationally invariant grid construction     ... off

Total number of grid points                  ...    12692
Total number of batches                      ...      207
Average number of points per batch           ...       61
Average number of grid points per atom       ...      705

 --------------------------------------------------------------------------------------------
   Iter.        energy            ||Error||_2        Shift      TRadius  Mac/Mic        Rej.
 --------------------------------------------------------------------------------------------
WARNING: 28 diagonal Hessian elements are negative!
    0       -475.250090175584     1.387845e+00                     0.400 (TRAH MAcro)   No
WARNING : negative HOMO - LUMO gap : -0.751874
    0     dE    -8.134824e-02     7.045033e-01    -1.6055e-01      0.116 (TRAH MIcro)
    0     dE    -1.041504e-01     2.680557e-01    -1.9994e-01      0.204 (TRAH MIcro)
    0     dE    -1.136789e-01     5.493500e-01    -2.1276e-01      0.262 (TRAH MIcro)
    0     dE    -8.848752e-02     3.057230e-01    -3.3041e+00      0.109 (TRAH MIcro)
    0     dE    -9.038300e-02     6.619569e-02    -3.3575e+00      0.111 (TRAH MIcro)
    0     dE    -9.005869e-02     1.556761e-02    -3.3629e+00      0.109 (TRAH MIcro)
    0     dE    -8.994630e-02     8.413281e-03    -3.3636e+00      0.109 (TRAH MIcro)
WARNING: 27 diagonal Hessian elements are negative!
    1       -475.339129348056     3.459108e-01                     0.480 (TRAH MAcro)   No
WARNING : negative HOMO - LUMO gap : -0.714320
    1     dE    -7.064319e-03     3.777815e-01    -1.4096e-02      0.048 (TRAH MIcro)
    1     dE    -1.506600e-01     2.411524e+00    -1.1146e+00      0.480 (TRAH MIcro)
    1     dE    -1.051528e-02     8.925610e-02    -3.2803e+00      0.053 (TRAH MIcro)
    1     dE    -1.002685e-02     2.970233e-02    -3.4209e+00      0.047 (TRAH MIcro)
    1     dE    -1.001244e-02     6.928199e-03    -3.4454e+00      0.047 (TRAH MIcro)
WARNING: 26 diagonal Hessian elements are negative!
    2       -475.349130905016     1.607263e-01                     0.576 (TRAH MAcro)   No
WARNING : negative HOMO - LUMO gap : -0.702701
    2     dE    -6.548792e-02     5.279364e+00    -1.8079e-01      0.576 (TRAH MIcro)
    2     dE    -1.985257e-01     5.431448e-01    -2.7455e+00      0.363 (TRAH MIcro)
    2     dE    -3.120540e-01     1.572930e-01    -2.9836e+00      0.443 (TRAH MIcro)
    2     dE    -3.117644e-01     6.039057e-02    -3.0048e+00      0.441 (TRAH MIcro)
    2     dE    -3.146809e-01     1.169166e-02    -3.0069e+00      0.443 (TRAH MIcro)
    2     dE    -3.141124e-01     2.934768e-03    -3.0070e+00      0.443 (TRAH MIcro)
WARNING: 6 diagonal Hessian elements are negative!
    3       -475.592099716484     7.990691e-01                     0.691 (TRAH MAcro)   No
WARNING : negative HOMO - LUMO gap : -0.269810
    3     dE    -4.493337e-01     1.354957e+00    -7.2602e-01      0.691 (TRAH MIcro)
    3     dE    -4.892081e-01     3.848166e-01    -9.0353e-01      0.691 (TRAH MIcro)
    3     dE    -4.939194e-01     1.387819e-01    -9.2543e-01      0.691 (TRAH MIcro)
    3     dE    -4.947017e-01     3.257889e-02    -9.2902e-01      0.691 (TRAH MIcro)
    3     dE    -4.947519e-01     9.094840e-03    -9.2937e-01      0.691 (TRAH MIcro)
WARNING: 8 diagonal Hessian elements are negative!
    4       -475.806655663836     3.445313e-01                     0.691 (TRAH MAcro)   No
WARNING : negative HOMO - LUMO gap : -0.123619
    4     dE    -1.789918e-02     4.201086e-01    -3.5417e-02      0.104 (TRAH MIcro)
    4     dE    -4.277126e-02     2.470258e-01    -7.9391e-02      0.278 (TRAH MIcro)
    4     dE    -4.849759e-02     1.457095e-01    -8.8179e-02      0.316 (TRAH MIcro)
    4     dE    -6.613138e-02     4.292401e-01    -1.0557e-01      0.503 (TRAH MIcro)
    4     dE    -1.402475e-01     4.461907e-01    -4.0592e-01      0.690 (TRAH MIcro)
    4     dE    -6.399685e-02     5.624267e-02    -5.6109e-01      0.337 (TRAH MIcro)
    4     dE    -6.529622e-02     1.936119e-02    -5.6246e-01      0.343 (TRAH MIcro)
    4     dE    -6.503178e-02     5.733005e-03    -5.6264e-01      0.341 (TRAH MIcro)
    5       -475.830129845138     2.808292e-01                     0.691 (TRAH MAcro)   No
    5     dE    -6.236186e-03     2.768589e-01    -1.2445e-02      0.047 (TRAH MIcro)
    5     dE    -8.004948e-03     1.039379e-01    -1.5934e-02      0.069 (TRAH MIcro)
    5     dE    -8.740026e-03     3.291001e-02    -1.7377e-02      0.077 (TRAH MIcro)
    5     dE    -8.849261e-03     1.478576e-02    -1.7590e-02      0.079 (TRAH MIcro)
    5     dE    -8.871612e-03     4.235352e-03    -1.7632e-02      0.079 (TRAH MIcro)
    6       -475.839309651448     1.853882e-02                     0.829 (TRAH MAcro)   No
WARNING : small    HOMO - LUMO gap : 0.007675
    6     dE    -5.757792e-05     2.992140e-02    -1.1515e-04      0.006 (TRAH MIcro)
    6     dE    -1.159189e-04     3.209362e-02    -2.3178e-04      0.016 (TRAH MIcro)
    6     dE    -2.122814e-04     1.973793e-02    -4.2391e-04      0.039 (TRAH MIcro)
    6     dE    -2.506953e-04     9.174591e-03    -5.0021e-04      0.049 (TRAH MIcro)
    6     dE    -2.553842e-04     3.757248e-03    -5.0948e-04      0.050 (TRAH MIcro)
    6     dE    -2.568348e-04     2.075238e-03    -5.1231e-04      0.052 (TRAH MIcro)
    6     dE    -2.571115e-04     8.007719e-04    -5.1284e-04      0.052 (TRAH MIcro)
    7       -475.839583413261     5.046491e-03                     0.995 (TRAH MAcro)   No
WARNING : small    HOMO - LUMO gap : 0.006622
    7     dE    -3.028800e-06     6.678460e-03    -6.0576e-06      0.001 (TRAH MIcro)
    7     dE    -4.019422e-06     2.663147e-03    -8.0388e-06      0.002 (TRAH MIcro)
    7     dE    -5.709238e-06     2.800420e-03    -1.1418e-05      0.004 (TRAH MIcro)
    7     dE    -6.729973e-06     1.607568e-03    -1.3459e-05      0.006 (TRAH MIcro)
    7     dE    -6.913201e-06     5.064486e-04    -1.3826e-05      0.007 (TRAH MIcro)
    7     dE    -6.932856e-06     2.211441e-04    -1.3865e-05      0.007 (TRAH MIcro)
    8       -475.839590488571     2.447064e-04                           (NR   MAcro)
WARNING : small    HOMO - LUMO gap : 0.005956
    8     dE    -1.769402e-09     2.379996e-04                           (NR   MIcro)
    8     dE    -7.834438e-09     1.743309e-04                           (NR   MIcro)
    8     dE    -1.343125e-08     1.316550e-04                           (NR   MIcro)
    8     dE    -1.496386e-08     6.295237e-05                           (NR   MIcro)
    8     dE    -1.521361e-08     2.302276e-05                           (NR   MIcro)
    8     dE    -1.525070e-08     1.049633e-05                           (NR   MIcro)
    8     dE    -1.525720e-08     2.765510e-06                           (NR   MIcro)
    8     dE    -1.525773e-08     8.454862e-07                           (NR   MIcro)
    9       -475.839590503277     1.065199e-06                           (NR   MAcro)
WARNING : small    HOMO - LUMO gap : 0.005942
    9     dE    -2.418511e-14     9.657478e-07                           (NR   MIcro)
   10       -475.839590503277     9.657541e-07                           (NR   MAcro)
WARNING : small    HOMO - LUMO gap : 0.005942

               *****************************************************
               *                     SUCCESS                       *
               *           SCF CONVERGED AFTER  89 CYCLES          *
               *****************************************************

Old exchange energy                            =    -12.288527817 Eh
New exchange energy                            =    -12.288536466 Eh
Exchange energy change after final integration =     -0.000008649 Eh
Total energy after final integration           =   -475.839599152 Eh
Final COS-X integration done in                =    27.109 sec

----------------
TOTAL SCF ENERGY
----------------

Total Energy       :         -475.83959915 Eh          -12948.25377 eV

Components:
Nuclear Repulsion  :          496.04088099 Eh           13497.95859 eV
Electronic Energy  :         -971.88048014 Eh          -26446.21236 eV
One Electron Energy:        -1618.29882294 Eh          -44036.14973 eV
Two Electron Energy:          646.41834280 Eh           17589.93736 eV
Max COSX asymmetry :            0.00000116 Eh               0.00003 eV

Virial components:
Potential Energy   :         -947.51383242 Eh          -25783.16217 eV
Kinetic Energy     :          471.67423327 Eh           12834.90840 eV
Virial Ratio       :            2.00883102


DFT components:
N(Alpha)           :       36.000012945269 electrons
N(Beta)            :       36.000012945269 electrons
N(Total)           :       72.000025890538 electrons
E(X)               :      -49.039648872732 Eh       
E(C)               :       -3.161163405386 Eh       
E(XC)              :      -52.200812278118 Eh       
DFET-embed. en.    :        0.000000000000 Eh       

---------------
SCF CONVERGENCE
---------------

  Last Energy change         ...   -5.6843e-14  Tolerance :   1.0000e-08
  Last Orbital Gradient      ...    9.6575e-07  Tolerance :   1.0000e-05
  Last Orbital Rotation      ...    1.4560e-07

             **** THE GBW FILE WAS UPDATED (p_p_opt_9.gbw) ****
             **** DENSITY p_p_opt_9.scfp WAS UPDATED ****
             **** ENERGY FILE WAS UPDATED (p_p_opt_9.en.tmp) ****
             **** THE GBW FILE WAS UPDATED (p_p_opt_9.gbw) ****
             **** DENSITY p_p_opt_9.scfp WAS UPDATED ****
----------------
ORBITAL ENERGIES
----------------

  NO   OCC          E(Eh)            E(eV) 
   0   2.0000     -19.315792      -525.6094 
   1   2.0000     -19.315124      -525.5913 
   2   2.0000     -14.703539      -400.1036 
   3   2.0000     -10.414564      -283.3947 
   4   2.0000     -10.386731      -282.6373 
   5   2.0000     -10.366565      -282.0886 
   6   2.0000     -10.365258      -282.0530 
   7   2.0000     -10.360245      -281.9166 
   8   2.0000     -10.358522      -281.8697 
   9   2.0000     -10.329996      -281.0935 
  10   2.0000      -1.372768       -37.3549 
  11   2.0000      -1.199669       -32.6446 
  12   2.0000      -1.040154       -28.3040 
  13   2.0000      -0.965447       -26.2711 
  14   2.0000      -0.918976       -25.0066 
  15   2.0000      -0.884903       -24.0794 
  16   2.0000      -0.798775       -21.7358 
  17   2.0000      -0.781780       -21.2733 
  18   2.0000      -0.733386       -19.9565 
  19   2.0000      -0.696600       -18.9554 
  20   2.0000      -0.686869       -18.6907 
  21   2.0000      -0.654981       -17.8229 
  22   2.0000      -0.632287       -17.2054 
  23   2.0000      -0.628301       -17.0969 
  24   2.0000      -0.602815       -16.4034 
  25   2.0000      -0.597039       -16.2463 
  26   2.0000      -0.573929       -15.6174 
  27   2.0000      -0.539152       -14.6711 
  28   2.0000      -0.531738       -14.4693 
  29   2.0000      -0.526106       -14.3161 
  30   2.0000      -0.509319       -13.8593 
  31   2.0000      -0.457041       -12.4367 
  32   2.0000      -0.452117       -12.3027 
  33   2.0000      -0.444867       -12.1054 
  34   2.0000      -0.429204       -11.6792 
  35   2.0000      -0.398038       -10.8312 
  36   0.0000      -0.392096       -10.6695 
  37   0.0000      -0.224926        -6.1205 
  38   0.0000      -0.172463        -4.6930 
  39   0.0000      -0.162143        -4.4121 
  40   0.0000      -0.065364        -1.7786 
  41   0.0000      -0.038666        -1.0522 
  42   0.0000      -0.033786        -0.9194 
  43   0.0000      -0.028867        -0.7855 
  44   0.0000       0.006693         0.1821 
  45   0.0000       0.017004         0.4627 
  46   0.0000       0.029583         0.8050 
  47   0.0000       0.032052         0.8722 
  48   0.0000       0.040364         1.0984 
  49   0.0000       0.074227         2.0198 
  50   0.0000       0.120233         3.2717 
  51   0.0000       0.131017         3.5652 
  52   0.0000       0.142926         3.8892 
  53   0.0000       0.150783         4.1030 
  54   0.0000       0.165451         4.5022 
  55   0.0000       0.191695         5.2163 
  56   0.0000       0.234258         6.3745 
  57   0.0000       0.253272         6.8919 
  58   0.0000       0.258776         7.0416 
  59   0.0000       0.280863         7.6427 
  60   0.0000       0.292943         7.9714 
  61   0.0000       0.293950         7.9988 
  62   0.0000       0.301717         8.2101 
  63   0.0000       0.303894         8.2694 
  64   0.0000       0.319777         8.7016 
  65   0.0000       0.330593         8.9959 
  66   0.0000       0.357125         9.7179 
  67   0.0000       0.379357        10.3228 
  68   0.0000       0.413467        11.2510 
  69   0.0000       0.425534        11.5794 
  70   0.0000       0.440364        11.9829 
  71   0.0000       0.465755        12.6739 
  72   0.0000       0.478892        13.0313 
  73   0.0000       0.492919        13.4130 
  74   0.0000       0.494393        13.4531 
  75   0.0000       0.509151        13.8547 
  76   0.0000       0.524630        14.2759 
  77   0.0000       0.530435        14.4339 
  78   0.0000       0.536694        14.6042 
  79   0.0000       0.540845        14.7171 
  80   0.0000       0.552366        15.0307 
  81   0.0000       0.557488        15.1700 
  82   0.0000       0.575411        15.6577 
  83   0.0000       0.584166        15.8960 
  84   0.0000       0.614010        16.7080 
  85   0.0000       0.634753        17.2725 
  86   0.0000       0.645622        17.5683 
  87   0.0000       0.677066        18.4239 
  88   0.0000       0.679074        18.4785 
  89   0.0000       0.758411        20.6374 
  90   0.0000       0.772040        21.0083 
  91   0.0000       0.784407        21.3448 
  92   0.0000       0.817976        22.2582 
  93   0.0000       0.826454        22.4890 
  94   0.0000       0.835817        22.7437 
  95   0.0000       0.894136        24.3307 
  96   0.0000       0.905781        24.6475 
  97   0.0000       0.956112        26.0171 
  98   0.0000       0.966493        26.2996 
  99   0.0000       0.990274        26.9467 
 100   0.0000       0.995193        27.0806 
 101   0.0000       1.014270        27.5997 
 102   0.0000       1.069909        29.1137 
 103   0.0000       1.082181        29.4477 
 104   0.0000       1.099070        29.9072 
 105   0.0000       1.107262        30.1301 
 106   0.0000       1.125709        30.6321 
 107   0.0000       1.130029        30.7497 
 108   0.0000       1.203370        32.7454 
 109   0.0000       1.203382        32.7457 
 110   0.0000       1.203382        32.7457 
 111   0.0000       1.233454        33.5640 
 112   0.0000       1.240929        33.7674 
 113   0.0000       1.322152        35.9776 
 114   0.0000       1.341349        36.5000 
 115   0.0000       1.377577        37.4858 
 116   0.0000       1.405759        38.2526 
 117   0.0000       1.436803        39.0974 
 118   0.0000       1.518737        41.3269 
 119   0.0000       1.537233        41.8302 
 120   0.0000       1.556712        42.3603 
 121   0.0000       1.574974        42.8572 
 122   0.0000       1.578141        42.9434 
 123   0.0000       1.589456        43.2513 
 124   0.0000       1.592133        43.3242 
 125   0.0000       1.601027        43.5662 
 126   0.0000       1.646393        44.8006 
 127   0.0000       1.647011        44.8174 
 128   0.0000       1.658122        45.1198 
 129   0.0000       1.672290        45.5053 
 130   0.0000       1.693898        46.0933 
 131   0.0000       1.752825        47.6968 
 132   0.0000       1.766886        48.0794 
 133   0.0000       1.781056        48.4650 
 134   0.0000       1.821872        49.5756 
 135   0.0000       1.863843        50.7177 
 136   0.0000       1.883809        51.2610 
 137   0.0000       1.903601        51.7996 
 138   0.0000       1.935983        52.6808 
 139   0.0000       1.942386        52.8550 
 140   0.0000       1.962588        53.4047 
 141   0.0000       1.992581        54.2209 
 142   0.0000       2.009027        54.6684 
 143   0.0000       2.071916        56.3797 
 144   0.0000       2.104596        57.2690 
 145   0.0000       2.130324        57.9691 
 146   0.0000       2.137858        58.1741 
 147   0.0000       2.186146        59.4881 
 148   0.0000       2.200290        59.8729 
 149   0.0000       2.220905        60.4339 
 150   0.0000       2.254127        61.3379 
 151   0.0000       2.300652        62.6039 
 152   0.0000       2.308146        62.8078 
 153   0.0000       2.336805        63.5877 
 154   0.0000       2.399505        65.2939 
 155   0.0000       2.443779        66.4986 
 156   0.0000       2.451424        66.7066 
 157   0.0000       2.480800        67.5060 
 158   0.0000       2.483901        67.5904 
 159   0.0000       2.500599        68.0447 
 160   0.0000       2.513372        68.3923 
 161   0.0000       2.527491        68.7765 
 162   0.0000       2.583843        70.3100 
 163   0.0000       2.597301        70.6762 
 164   0.0000       2.603738        70.8513 
 165   0.0000       2.661569        72.4250 
 166   0.0000       2.696592        73.3780 
 167   0.0000       2.732209        74.3472 
 168   0.0000       2.778572        75.6088 
 169   0.0000       2.797746        76.1305 
 170   0.0000       2.835630        77.1614 
 171   0.0000       2.911857        79.2356 
 172   0.0000       2.968003        80.7635 
 173   0.0000       3.033059        82.5337 
 174   0.0000       3.139240        85.4231 
 175   0.0000       3.157733        85.9263 
 176   0.0000       3.236671        88.0743 
 177   0.0000       3.443824        93.7112 
 178   0.0000       3.586133        97.5836 
 179   0.0000       3.615721        98.3888 

                    ********************************
                    * MULLIKEN POPULATION ANALYSIS *
                    ********************************

-----------------------
MULLIKEN ATOMIC CHARGES
-----------------------
   0 C :   -0.014666
   1 C :    0.023478
   2 C :    0.071977
   3 C :    0.138704
   4 C :    0.068648
   5 C :    0.023376
   6 C :    0.077814
   7 H :    0.072100
   8 H :    0.054606
   9 H :    0.087914
  10 H :    0.031418
  11 H :    0.041947
  12 H :    0.041437
  13 H :    0.031587
  14 N :    0.239866
  15 O :   -0.157879
  16 O :   -0.156777
  17 H :    0.324452
Sum of atomic charges:    1.0000000

--------------------------------
MULLIKEN REDUCED ORBITAL CHARGES
--------------------------------
  0 C s       :     3.105105  s :     3.105105
      pz      :     0.960989  p :     2.864385
      px      :     0.900946
      py      :     1.002450
      dz2     :     0.009398  d :     0.045176
      dxz     :     0.006729
      dyz     :     0.010979
      dx2y2   :     0.009418
      dxy     :     0.008652
  1 C s       :     3.220324  s :     3.220324
      pz      :     0.919773  p :     2.722144
      px      :     0.933824
      py      :     0.868547
      dz2     :     0.007304  d :     0.034054
      dxz     :     0.006190
      dyz     :     0.008059
      dx2y2   :     0.006451
      dxy     :     0.006050
  2 C s       :     3.241361  s :     3.241361
      pz      :     0.867811  p :     2.652082
      px      :     0.860978
      py      :     0.923293
      dz2     :     0.006951  d :     0.034580
      dxz     :     0.005754
      dyz     :     0.007787
      dx2y2   :     0.007529
      dxy     :     0.006558
  3 C s       :     3.022908  s :     3.022908
      pz      :     0.900845  p :     2.788132
      px      :     0.923669
      py      :     0.963618
      dz2     :     0.009556  d :     0.050256
      dxz     :     0.007720
      dyz     :     0.013618
      dx2y2   :     0.008741
      dxy     :     0.010621
  4 C s       :     3.237883  s :     3.237883
      pz      :     0.920924  p :     2.658890
      px      :     0.916673
      py      :     0.821293
      dz2     :     0.007184  d :     0.034579
      dxz     :     0.006252
      dyz     :     0.008626
      dx2y2   :     0.006687
      dxy     :     0.005831
  5 C s       :     3.226179  s :     3.226179
      pz      :     0.897489  p :     2.716457
      px      :     0.898697
      py      :     0.920270
      dz2     :     0.006737  d :     0.033988
      dxz     :     0.005374
      dyz     :     0.008790
      dx2y2   :     0.006577
      dxy     :     0.006510
  6 C s       :     2.946049  s :     2.946049
      pz      :     0.952133  p :     2.949122
      px      :     1.005232
      py      :     0.991757
      dz2     :     0.005575  d :     0.027015
      dxz     :     0.003969
      dyz     :     0.007722
      dx2y2   :     0.005618
      dxy     :     0.004132
  7 H s       :     0.903324  s :     0.903324
      pz      :     0.011900  p :     0.024576
      px      :     0.005081
      py      :     0.007595
  8 H s       :     0.921533  s :     0.921533
      pz      :     0.004801  p :     0.023861
      px      :     0.006517
      py      :     0.012544
  9 H s       :     0.886928  s :     0.886928
      pz      :     0.005125  p :     0.025158
      px      :     0.014342
      py      :     0.005691
 10 H s       :     0.944995  s :     0.944995
      pz      :     0.003997  p :     0.023587
      px      :     0.004496
      py      :     0.015095
 11 H s       :     0.934023  s :     0.934023
      pz      :     0.008317  p :     0.024030
      px      :     0.009811
      py      :     0.005902
 12 H s       :     0.934528  s :     0.934528
      pz      :     0.004283  p :     0.024035
      px      :     0.004423
      py      :     0.015330
 13 H s       :     0.944846  s :     0.944846
      pz      :     0.008155  p :     0.023567
      px      :     0.009144
      py      :     0.006267
 14 N s       :     3.297848  s :     3.297848
      pz      :     1.149698  p :     3.343464
      px      :     1.045983
      py      :     1.147783
      dz2     :     0.018774  d :     0.118822
      dxz     :     0.031630
      dyz     :     0.011137
      dx2y2   :     0.027198
      dxy     :     0.030083
 15 O s       :     3.876717  s :     3.876717
      pz      :     1.461475  p :     4.257996
      px      :     1.491501
      py      :     1.305020
      dz2     :     0.003765  d :     0.023167
      dxz     :     0.005129
      dyz     :     0.004635
      dx2y2   :     0.004099
      dxy     :     0.005539
 16 O s       :     3.876067  s :     3.876067
      pz      :     1.601058  p :     4.257456
      px      :     1.108683
      py      :     1.547715
      dz2     :     0.003011  d :     0.023254
      dxz     :     0.005584
      dyz     :     0.000533
      dx2y2   :     0.007984
      dxy     :     0.006142
 17 H s       :     0.675548  s :     0.675548
      pz      :     0.000000  p :     0.000000
      px      :     0.000000
      py      :     0.000000


                     *******************************
                     * LOEWDIN POPULATION ANALYSIS *
                     *******************************

----------------------
LOEWDIN ATOMIC CHARGES
----------------------
   0 C :    0.082520
   1 C :    0.023698
   2 C :    0.035011
   3 C :    0.051490
   4 C :    0.028517
   5 C :    0.030997
   6 C :   -0.024794
   7 H :    0.063951
   8 H :    0.048741
   9 H :    0.077175
  10 H :    0.052260
  11 H :    0.059327
  12 H :    0.059067
  13 H :    0.052335
  14 N :    0.275903
  15 O :   -0.121269
  16 O :   -0.119382
  17 H :    0.324452

-------------------------------
LOEWDIN REDUCED ORBITAL CHARGES
-------------------------------
  0 C s       :     2.873445  s :     2.873445
      pz      :     0.974303  p :     2.936486
      px      :     0.913016
      py      :     1.049167
      dz2     :     0.020479  d :     0.107549
      dxz     :     0.016087
      dyz     :     0.026958
      dx2y2   :     0.022636
      dxy     :     0.021390
  1 C s       :     2.859249  s :     2.859249
      pz      :     1.009886  p :     3.027359
      px      :     0.977330
      py      :     1.040143
      dz2     :     0.018262  d :     0.089693
      dxz     :     0.017739
      dyz     :     0.022041
      dx2y2   :     0.016472
      dxy     :     0.015179
  2 C s       :     2.859827  s :     2.859827
      pz      :     1.016427  p :     3.014075
      px      :     0.970758
      py      :     1.026890
      dz2     :     0.017023  d :     0.091087
      dxz     :     0.014536
      dyz     :     0.022581
      dx2y2   :     0.020035
      dxy     :     0.016911
  3 C s       :     2.873835  s :     2.873835
      pz      :     0.930560  p :     2.950383
      px      :     0.969957
      py      :     1.049867
      dz2     :     0.022646  d :     0.124291
      dxz     :     0.019631
      dyz     :     0.034250
      dx2y2   :     0.021682
      dxy     :     0.026082
  4 C s       :     2.858354  s :     2.858354
      pz      :     1.011480  p :     3.021806
      px      :     0.963058
      py      :     1.047268
      dz2     :     0.018000  d :     0.091323
      dxz     :     0.018036
      dyz     :     0.023371
      dx2y2   :     0.016947
      dxy     :     0.014968
  5 C s       :     2.860456  s :     2.860456
      pz      :     1.011115  p :     3.019128
      px      :     0.976269
      py      :     1.031744
      dz2     :     0.016448  d :     0.089419
      dxz     :     0.013697
      dyz     :     0.024897
      dx2y2   :     0.017794
      dxy     :     0.016583
  6 C s       :     2.825294  s :     2.825294
      pz      :     1.021148  p :     3.128463
      px      :     1.050761
      py      :     1.056554
      dz2     :     0.014732  d :     0.071037
      dxz     :     0.010268
      dyz     :     0.020846
      dx2y2   :     0.014218
      dxy     :     0.010972
  7 H s       :     0.868962  s :     0.868962
      pz      :     0.032786  p :     0.067087
      px      :     0.012858
      py      :     0.021444
  8 H s       :     0.884057  s :     0.884057
      pz      :     0.013215  p :     0.067202
      px      :     0.017957
      py      :     0.036031
  9 H s       :     0.855942  s :     0.855942
      pz      :     0.013410  p :     0.066883
      px      :     0.039927
      py      :     0.013546
 10 H s       :     0.877427  s :     0.877427
      pz      :     0.012398  p :     0.070313
      px      :     0.014303
      py      :     0.043612
 11 H s       :     0.868216  s :     0.868216
      pz      :     0.025074  p :     0.072457
      px      :     0.028624
      py      :     0.018759
 12 H s       :     0.868530  s :     0.868530
      pz      :     0.013534  p :     0.072403
      px      :     0.013978
      py      :     0.044891
 13 H s       :     0.877461  s :     0.877461
      pz      :     0.023895  p :     0.070204
      px      :     0.026997
      py      :     0.019312
 14 N s       :     3.043888  s :     3.043888
      pz      :     1.156163  p :     3.430433
      px      :     1.137764
      py      :     1.136506
      dz2     :     0.039370  d :     0.249775
      dxz     :     0.064564
      dyz     :     0.023777
      dx2y2   :     0.057923
      dxy     :     0.064141
 15 O s       :     3.625385  s :     3.625385
      pz      :     1.518724  p :     4.451665
      px      :     1.553292
      py      :     1.379649
      dz2     :     0.005300  d :     0.044220
      dxz     :     0.010470
      dyz     :     0.010341
      dx2y2   :     0.006002
      dxy     :     0.012108
 16 O s       :     3.624193  s :     3.624193
      pz      :     1.606227  p :     4.450794
      px      :     1.285118
      py      :     1.559449
      dz2     :     0.006394  d :     0.044395
      dxz     :     0.009382
      dyz     :     0.000725
      dx2y2   :     0.018288
      dxy     :     0.009606
 17 H s       :     0.675548  s :     0.675548
      pz      :     0.000000  p :     0.000000
      px      :     0.000000
      py      :     0.000000


                      *****************************
                      * MAYER POPULATION ANALYSIS *
                      *****************************

  NA   - Mulliken gross atomic population
  ZA   - Total nuclear charge
  QA   - Mulliken gross atomic charge
  VA   - Mayer's total valence
  BVA  - Mayer's bonded valence
  FA   - Mayer's free valence

  ATOM       NA         ZA         QA         VA         BVA        FA
  0 C      6.0147     6.0000    -0.0147     3.9077     3.9077    -0.0000
  1 C      5.9765     6.0000     0.0235     3.8481     3.8481    -0.0000
  2 C      5.9280     6.0000     0.0720     3.8533     3.8533     0.0000
  3 C      5.8613     6.0000     0.1387     3.8128     3.8128    -0.0000
  4 C      5.9314     6.0000     0.0686     3.8570     3.8570    -0.0000
  5 C      5.9766     6.0000     0.0234     3.8433     3.8433    -0.0000
  6 C      5.9222     6.0000     0.0778     3.9096     3.9096     0.0000
  7 H      0.9279     1.0000     0.0721     0.9929     0.9929     0.0000
  8 H      0.9454     1.0000     0.0546     0.9982     0.9982     0.0000
  9 H      0.9121     1.0000     0.0879     0.9903     0.9903     0.0000
 10 H      0.9686     1.0000     0.0314     0.9926     0.9926    -0.0000
 11 H      0.9581     1.0000     0.0419     1.0038     1.0038    -0.0000
 12 H      0.9586     1.0000     0.0414     1.0037     1.0037    -0.0000
 13 H      0.9684     1.0000     0.0316     0.9926     0.9926     0.0000
 14 N      6.7601     7.0000     0.2399     3.9411     3.9411    -0.0000
 15 O      8.1579     8.0000    -0.1579     2.0568     2.0568     0.0000
 16 O      8.1568     8.0000    -0.1568     2.0616     2.0616     0.0000
 17 H      0.6755     1.0000     0.3245     0.8947     0.8947     0.0000

  Mayer bond orders larger than 0.100000
B(  0-C ,  1-C ) :   1.2603 B(  0-C ,  5-C ) :   1.2344 B(  0-C ,  6-C ) :   1.1049 
B(  0-C , 17-H ) :   0.1961 B(  1-C ,  2-C ) :   1.4255 B(  1-C , 10-H ) :   0.9894 
B(  2-C ,  3-C ) :   1.2807 B(  2-C , 11-H ) :   0.9928 B(  3-C ,  4-C ) :   1.2885 
B(  3-C , 14-N ) :   0.8601 B(  3-C , 17-H ) :   0.2053 B(  4-C ,  5-C ) :   1.4332 
B(  4-C , 12-H ) :   0.9935 B(  5-C , 13-H ) :   0.9920 B(  6-C ,  7-H ) :   0.9317 
B(  6-C ,  8-H ) :   0.9552 B(  6-C ,  9-H ) :   0.9119 B( 14-N , 15-O ) :   1.5297 
B( 14-N , 16-O ) :   1.5281 B( 15-O , 16-O ) :   0.2927 B( 15-O , 17-H ) :   0.1029 
B( 16-O , 17-H ) :   0.1084 

-------
TIMINGS
-------

Total SCF time: 0 days 0 hours 11 min 13 sec 

Total time                  ....     673.628 sec
Sum of individual times     ....     666.971 sec  ( 99.0%)

Fock matrix formation       ....     655.591 sec  ( 97.3%)
  Split-RI-J                ....      79.128 sec  ( 12.1% of F)
  Chain of spheres X        ....     491.245 sec  ( 74.9% of F)
  XC integration            ....      84.918 sec  ( 13.0% of F)
    Basis function eval.    ....      27.257 sec  ( 32.1% of XC)
    Density eval.           ....      24.214 sec  ( 28.5% of XC)
    XC-Functional eval.     ....       4.786 sec  (  5.6% of XC)
    XC-Potential eval.      ....      21.588 sec  ( 25.4% of XC)
Diagonalization             ....       0.239 sec  (  0.0%)
Density matrix formation    ....       0.059 sec  (  0.0%)
Population analysis         ....       0.079 sec  (  0.0%)
Initial guess               ....       2.546 sec  (  0.4%)
Orbital Transformation      ....       0.322 sec  (  0.0%)
Orbital Orthonormalization  ....       0.000 sec  (  0.0%)
DIIS solution               ....       0.361 sec  (  0.1%)
SOSCF solution              ....       0.089 sec  (  0.0%)
Grid generation             ....       7.684 sec  (  1.1%)

Maximum memory used throughout the entire SCF-calculation: 75.3 MB


-------------------------------------------------------------------------------
                          DFT DISPERSION CORRECTION                            
                                                                               
                                 DFTD4 V2.5                                    
-------------------------------------------------------------------------------
Gaussians B3LYP functional is recognized, using regular B3LYP params
Active option DFTDOPT                   ...         5   

Starting D4
-------------------------   ----------------
Dispersion correction           -0.026628851
-------------------------   ----------------


-------------------------   --------------------
FINAL SINGLE POINT ENERGY      -475.866228003250
-------------------------   --------------------

------------------------------------------------------------------------------
                         ORCA SCF GRADIENT CALCULATION
------------------------------------------------------------------------------

 ... reading COSX grid (gridx3)
Gradient of the Kohn-Sham DFT energy:
Kohn-Sham wavefunction type      ... RKS
Hartree-Fock exchange scaling    ...    0.200
Number of operators              ...    1
Number of atoms                  ...   18
Basis set dimensions             ...  180
Integral neglect threshold       ... 2.5e-11
Integral primitive cutoff        ... 2.5e-12
SHARK Integral package           ... ON

Nuc. rep. gradient       (SHARK) ... done (  0.0 sec)
HCore & Overlap gradient (SHARK) ... done (  1.1 sec)
RI-J gradient            (SHARK) ... done (  4.7 sec)
COSX-gradient                    ... done ( 34.8 sec)
Exchange-correlation gradient    ... done
Dispersion correction            ... Starting D4


------------------- 
Dispersion Gradient 
------------------- 
   1  :    0.000162921    0.000193745    0.000315101
   2  :   -0.000147274    0.000497681    0.000059109
   3  :   -0.000286406    0.000391695   -0.000158853
   4  :   -0.000141749   -0.000165445   -0.000270142
   5  :    0.000241148   -0.000445749    0.000073822
   6  :    0.000319877   -0.000279654    0.000291716
   7  :    0.000271279    0.000302181    0.000498128
   8  :    0.000051884    0.000048051    0.000151570
   9  :    0.000041738    0.000096496    0.000120877
  10  :    0.000113063    0.000087643    0.000104101
  11  :   -0.000078873    0.000197823    0.000001074
  12  :   -0.000133919    0.000145884   -0.000096162
  13  :    0.000085365   -0.000203377    0.000003055
  14  :    0.000126898   -0.000139465    0.000097312
  15  :   -0.000241910   -0.000281960   -0.000461076
[...]
      9       0.025519  -0.092387   0.069206   0.070142   0.050492  -0.000150
     10      -0.019836   0.165896   0.035832  -0.117139   0.087276  -0.000202
     11       0.021326  -0.022561   0.103786   0.034619   0.108821  -0.000277
     12      -0.037070  -0.053149  -0.091254  -0.034639  -0.153627   0.000102
     13       0.034731  -0.142431   0.047630   0.069022  -0.094913  -0.000276
     14      -0.029599  -0.138061  -0.089110   0.000080  -0.242489   0.000026
     15       0.020253   0.074141   0.004537   0.006072   0.093519   0.000201
     16      -0.066744   0.127979  -0.114412  -0.077450   0.222516   0.000591
     17      -0.011609   0.159058  -0.051748  -0.030342   0.231853   0.000359
     18       0.012424   0.008841  -0.021432   0.002805   0.012792  -0.058312
     19       0.045108  -0.016521  -0.033901  -0.003853   0.021789  -0.015047
     20       0.074337   0.001624  -0.056567   0.002765   0.032174  -0.014060
     21       0.385657   0.079766  -0.151623   0.032949   0.032607  -0.017744
     22      -0.363807  -0.011861   0.097241   0.011576  -0.039581  -0.211366
     23      -0.208463   0.004294   0.036551   0.013610  -0.011435   0.300441
     24      -0.316223  -0.112249   0.084223  -0.034081  -0.006099  -0.132325
     25       0.022158  -0.050659  -0.028405  -0.013584   0.026829   0.238786
     26      -0.605639  -0.120503   0.160420  -0.037618  -0.031118   0.055286
     27       0.092588   0.028734  -0.043789   0.008560   0.009338   0.849899
     28      -0.286473  -0.079352   0.088358  -0.012731  -0.016244   0.152205
     29       0.134705   0.036750  -0.069509   0.019893   0.005825  -0.194447
     30       0.040131   0.402582   0.212536  -0.066887  -0.249258   0.000338
     31      -0.025754  -0.076657   0.072371  -0.021012   0.114209  -0.003118
     32       0.043646   0.479987   0.304662  -0.117649  -0.254242  -0.000919
     33      -0.010722   0.138602   0.042435  -0.064575  -0.052633  -0.000245
     34       0.004973  -0.164896   0.396813  -0.030945   0.312654   0.000483
     35       0.002987   0.062189   0.264322  -0.107973   0.109175  -0.001025
     36       0.098386   0.236481   0.238653   0.037269   0.224623   0.000059
     37       0.035199  -0.171696   0.052954   0.092908  -0.123331  -0.001355
     38       0.150645   0.180823   0.322980   0.082347   0.207611  -0.000376
     39       0.043622   0.032469   0.073721   0.039609   0.036967  -0.002892
     40       0.131108  -0.354256   0.413173   0.111678  -0.376496   0.000933
     41       0.128101  -0.135283   0.296926   0.081131  -0.140540  -0.002607
     42       0.021878  -0.047641   0.008612  -0.644083  -0.011071   0.000223
     43      -0.001884   0.009913   0.005667   0.411355  -0.002847   0.000274
     44       0.004770   0.027759   0.004583   0.098958  -0.006691   0.000458
     45      -0.001250   0.023323   0.007655   0.209089   0.009794  -0.000093
     46       0.001630  -0.030471  -0.010948  -0.254390  -0.005916  -0.000032
     47       0.001757  -0.030835  -0.008554  -0.182938  -0.001972  -0.000138
     48      -0.021115   0.034595  -0.023623   0.349577  -0.001866  -0.000034
     49       0.001682  -0.001243   0.002505  -0.082989   0.004600  -0.000121
     50      -0.007070   0.009119  -0.006986   0.085523   0.003330  -0.000114
     51      -0.000004  -0.000023  -0.000042  -0.000148   0.000105  -0.000006
     52      -0.000024  -0.000015  -0.000030   0.000114   0.000095  -0.000008
     53      -0.000030  -0.000004  -0.000042   0.000051   0.000127  -0.000012
                 48         49         50         51         52         53    
      0       0.001052  -0.000918   0.000722  -0.001860   0.000317  -0.000717
      1       0.000748  -0.000374  -0.002675   0.001255  -0.001149  -0.000047
      2       0.000333  -0.001214  -0.000537  -0.001722  -0.000027  -0.001027
      3       0.000497   0.000764   0.000012   0.020285  -0.000408   0.003275
      4       0.000499  -0.002419   0.001030  -0.080918   0.005833  -0.022447
      5      -0.000285  -0.000754   0.000567  -0.015507   0.002509  -0.007506
      6       0.000016  -0.000011  -0.001268  -0.013543  -0.020469   0.053684
      7       0.000014   0.000099   0.000918   0.012151   0.013130  -0.035106
      8       0.000164   0.000005  -0.001073  -0.010653  -0.018920   0.049043
      9      -0.000052  -0.000130   0.000026   0.000050   0.002494  -0.000159
     10       0.000039   0.000058   0.000014  -0.000109  -0.002961   0.002440
     11      -0.000071  -0.000117   0.000016   0.000018   0.001639   0.001030
     12       0.000032   0.000070   0.006134   0.000730  -0.017907  -0.006972
     13      -0.000085  -0.000042  -0.016390  -0.002502   0.077684   0.029213
     14       0.000071   0.000052  -0.000803  -0.000421   0.017539   0.006386
     15       0.000027   0.000130  -0.056238  -0.000259  -0.012680  -0.006399
     16      -0.000127  -0.000493   0.039716   0.000617   0.005143   0.003304
     17       0.000645   0.000392  -0.051121  -0.000032  -0.013241  -0.006319
     18       0.039940  -0.044016  -0.000392   0.001154   0.000001   0.000190
     19       0.027197   0.081245   0.000764  -0.002139   0.000194  -0.000360
     20      -0.069535  -0.003152  -0.000455  -0.000247  -0.000063   0.000098
     21       0.014286  -0.006784   0.000312   0.000295   0.000026   0.000110
     22      -0.498902  -0.181696  -0.003494   0.003185  -0.000510   0.001335
     23       0.712584   0.269040   0.007645  -0.003004   0.000948  -0.000841
     24      -0.101145   0.410517   0.002693  -0.010766   0.000643  -0.001328
     25       0.225744  -0.815009  -0.003739   0.024028  -0.000930   0.003617
     26       0.039292  -0.181082   0.000326   0.006687  -0.000128   0.001238
     27      -0.404966   0.129702   0.002141  -0.002240  -0.000242  -0.000281
     28      -0.062499   0.039768   0.001394  -0.000501   0.000344   0.000184
     29       0.072533  -0.035069   0.000003   0.001293   0.000282   0.000332
     30       0.000868  -0.005516   0.003608  -0.229204   0.014749  -0.057761
     31      -0.003252   0.025946  -0.014595   0.917156  -0.060627   0.234400
     32      -0.000950   0.006956  -0.002965   0.177284  -0.012601   0.047779
     33      -0.001556   0.001664   0.014189   0.170212   0.231070  -0.598204
     34       0.000396  -0.001070  -0.009550  -0.116684  -0.155011   0.400890
     35      -0.000656   0.001752   0.012664   0.151499   0.207842  -0.537221
     36       0.000004   0.000329  -0.051985  -0.006977   0.210974   0.078529
     37      -0.000697  -0.000989   0.205708   0.028278  -0.866993  -0.321922
     38      -0.000285  -0.000234   0.042078   0.005968  -0.186107  -0.069211
     39      -0.002539  -0.004607   0.636854   0.001681   0.125959   0.064340
     40       0.002114   0.002584  -0.453424  -0.001517  -0.086766  -0.044657
     41      -0.004148  -0.004867   0.577559   0.001586   0.114334   0.058240
     42       0.000004   0.000018   0.000069  -0.000166  -0.000648   0.000430
     43       0.000054   0.000074  -0.000150   0.000093   0.000774  -0.000186
     44       0.000027   0.000123  -0.000038  -0.000091   0.000036   0.000233
     45       0.000017  -0.000006  -0.000076   0.000005   0.000311   0.000074
     46      -0.000020  -0.000013   0.000056  -0.000003  -0.000214  -0.000095
     47      -0.000020  -0.000045  -0.000027   0.000032   0.000124  -0.000062
     48       0.000005   0.000010   0.000011   0.000069   0.000038  -0.000236
     49      -0.000025  -0.000042   0.000023  -0.000094  -0.000196   0.000272
     50      -0.000004  -0.000027   0.000001  -0.000013  -0.000072   0.000030
     51      -0.000001  -0.000001  -0.000001   0.000000   0.000003  -0.000001
     52      -0.000001  -0.000003  -0.000001  -0.000000  -0.000002   0.000002
     53      -0.000001  -0.000002  -0.000000  -0.000001   0.000001  -0.000000


-----------
IR SPECTRUM
-----------

 Mode   freq       eps      Int      T**2         TX        TY        TZ
       cm**-1   L/(mol*cm) km/mol    a.u.
----------------------------------------------------------------------------
  9:      8.49   0.021343  107.86  0.784556  (-0.429308 -0.458806 -0.624298)
 10:     76.63   0.000597    3.02  0.002432  ( 0.027542  0.031149  0.026509)
 11:     93.83   0.000193    0.98  0.000643  ( 0.018395  0.012960 -0.011705)
 12:    198.93   0.000501    2.53  0.000786  ( 0.018205 -0.021087  0.003142)
 13:    240.98   0.000654    3.30  0.000847  (-0.010382 -0.022448  0.015333)
 14:    349.35   0.002544   12.86  0.002272  (-0.026863 -0.023391 -0.031681)
 15:    354.78   0.000208    1.05  0.000183  ( 0.002786 -0.010810  0.007610)
 16:    392.13   0.000590    2.98  0.000470  (-0.012002 -0.012687 -0.012839)
 17:    429.29   0.000623    3.15  0.000453  ( 0.021268 -0.000781  0.000094)
 18:    540.50   0.002237   11.31  0.001292  (-0.028428 -0.018936  0.011180)
 19:    590.40   0.000039    0.20  0.000021  ( 0.003172 -0.003236 -0.000161)
 20:    620.35   0.008920   45.08  0.004487  ( 0.032625  0.035217  0.046719)
 21:    684.20   0.000884    4.47  0.000403  ( 0.013844  0.014539 -0.000260)
 22:    752.91   0.004999   25.26  0.002072  ( 0.023504  0.013982 -0.036385)
 23:    789.93   0.002142   10.82  0.000846  (-0.011746 -0.017021 -0.020455)
 24:    822.97   0.001366    6.90  0.000518  (-0.011703 -0.013413 -0.014177)
 25:    844.96   0.040706  205.71  0.015034  ( 0.059652  0.066499  0.083982)
 26:    855.92   0.004015   20.29  0.001464  (-0.012787  0.006766  0.035421)
 27:    980.49   0.038768  195.92  0.012339  ( 0.061763  0.058090  0.071761)
 28:    991.61   0.003275   16.55  0.001031  (-0.025292 -0.018594  0.006721)
 29:   1007.40   0.000159    0.80  0.000049  ( 0.002591  0.004644  0.004579)
 30:   1016.36   0.001467    7.41  0.000451  ( 0.012084  0.010710  0.013776)
 31:   1022.96   0.005978   30.21  0.001824  (-0.031746 -0.022905 -0.017063)
 32:   1138.69   0.008607   43.49  0.002359  ( 0.035469  0.006595  0.032514)
 33:   1145.21   0.039541  199.82  0.010775  (-0.049462 -0.060347 -0.068458)
 34:   1202.68   0.042554  215.05  0.011042  ( 0.051204  0.056431  0.072356)
 35:   1253.94   0.080605  407.34  0.020060  (-0.070705 -0.074658 -0.097400)
 36:   1292.56   0.008649   43.71  0.002088  ( 0.018796  0.027500  0.031282)
 37:   1345.04   0.075738  382.75  0.017572  ( 0.077310  0.052787  0.093855)
 38:   1379.25   0.004182   21.13  0.000946  ( 0.013131  0.026700  0.007802)
 39:   1416.99   0.001850    9.35  0.000407  ( 0.018078  0.007270 -0.005269)
 40:   1424.86   0.002905   14.68  0.000636  (-0.014891 -0.014066 -0.014716)
 41:   1435.44   0.008409   42.49  0.001828  (-0.018942  0.037965 -0.005281)
 42:   1457.29   0.022386  113.13  0.004794  ( 0.052093  0.016360  0.042571)
 43:   1486.57   0.005971   30.18  0.001253  ( 0.017786  0.001385  0.030581)
 44:   1493.91   0.045803  231.47  0.009568  ( 0.041309  0.052670  0.071325)
 45:   1604.14   0.026868  135.78  0.005227  (-0.062232  0.033616  0.014964)
 46:   1662.11   0.359843  1818.50  0.067561  (-0.127528 -0.139084 -0.178754)
 47:   2992.00   0.117125  591.90  0.012216  ( 0.056782  0.057112  0.075697)
 48:   3065.03   0.000530    2.68  0.000054  ( 0.000055  0.000960  0.007284)
 49:   3155.54   0.016459   83.18  0.001628  ( 0.018478  0.022044  0.028290)
 50:   3204.65   0.000452    2.28  0.000044  (-0.002793 -0.004763 -0.003672)
 51:   3209.31   0.000731    3.70  0.000071  (-0.004662 -0.003738 -0.005949)
 52:   3230.12   0.003052   15.42  0.000295  ( 0.009107 -0.014443  0.001814)
 53:   3230.50   0.000798    4.03  0.000077  (-0.005387  0.005080 -0.004715)

* The epsilon (eps) is given for a Dirac delta lineshape.
** The dipole moment derivative (T) already includes vibrational overlap.

The first frequency considered to be a vibration is 9
The total number of vibrations considered is 45


--------------------------
THERMOCHEMISTRY AT 298.15K
--------------------------

Temperature         ... 298.15 K
Pressure            ... 1.00 atm
Total Mass          ... 138.15 AMU

Throughout the following assumptions are being made:
  (1) The electronic state is orbitally nondegenerate
  (2) There are no thermally accessible electronically excited states
  (3) Hindered rotations indicated by low frequency modes are not
      treated as such but are treated as vibrations and this may
      cause some error
  (4) All equations used are the standard statistical mechanics
      equations for an ideal gas
  (5) All vibrations are strictly harmonic

freq.       8.49  E(vib)   ...       0.58 
freq.      76.63  E(vib)   ...       0.49 
freq.      93.83  E(vib)   ...       0.47 
freq.     198.93  E(vib)   ...       0.35 
freq.     240.98  E(vib)   ...       0.31 
freq.     349.35  E(vib)   ...       0.23 
freq.     354.78  E(vib)   ...       0.22 
freq.     392.13  E(vib)   ...       0.20 
freq.     429.29  E(vib)   ...       0.18 
freq.     540.50  E(vib)   ...       0.12 
freq.     590.40  E(vib)   ...       0.10 
freq.     620.35  E(vib)   ...       0.09 
freq.     684.20  E(vib)   ...       0.07 
freq.     752.91  E(vib)   ...       0.06 
freq.     789.93  E(vib)   ...       0.05 
freq.     822.97  E(vib)   ...       0.05 
freq.     844.96  E(vib)   ...       0.04 
freq.     855.92  E(vib)   ...       0.04 
freq.     980.49  E(vib)   ...       0.02 
freq.     991.61  E(vib)   ...       0.02 
freq.    1007.40  E(vib)   ...       0.02 
freq.    1016.36  E(vib)   ...       0.02 
freq.    1022.96  E(vib)   ...       0.02 
freq.    1138.69  E(vib)   ...       0.01 
freq.    1145.21  E(vib)   ...       0.01 
freq.    1202.68  E(vib)   ...       0.01 
freq.    1253.94  E(vib)   ...       0.01 
freq.    1292.56  E(vib)   ...       0.01 
freq.    1345.04  E(vib)   ...       0.01 
freq.    1379.25  E(vib)   ...       0.01 
freq.    1416.99  E(vib)   ...       0.00 
freq.    1424.86  E(vib)   ...       0.00 
freq.    1435.44  E(vib)   ...       0.00 
freq.    1457.29  E(vib)   ...       0.00 
freq.    1486.57  E(vib)   ...       0.00 
freq.    1493.91  E(vib)   ...       0.00 
freq.    1604.14  E(vib)   ...       0.00 
freq.    1662.11  E(vib)   ...       0.00 
freq.    2992.00  E(vib)   ...       0.00 
freq.    3065.03  E(vib)   ...       0.00 
freq.    3155.54  E(vib)   ...       0.00 
freq.    3204.65  E(vib)   ...       0.00 
freq.    3209.31  E(vib)   ...       0.00 
freq.    3230.12  E(vib)   ...       0.00 
freq.    3230.50  E(vib)   ...       0.00 

------------
INNER ENERGY
------------

The inner energy is: U= E(el) + E(ZPE) + E(vib) + E(rot) + E(trans)
    E(el)   - is the total energy from the electronic structure calculation
              = E(kin-el) + E(nuc-el) + E(el-el) + E(nuc-nuc)
    E(ZPE)  - the the zero temperature vibrational energy from the frequency calculation
    E(vib)  - the the finite temperature correction to E(ZPE) due to population
              of excited vibrational states
    E(rot)  - is the rotational thermal energy
    E(trans)- is the translational thermal energy

Summary of contributions to the inner energy U:
Electronic energy                ...   -475.86728960 Eh
Zero point energy                ...      0.12869643 Eh      80.76 kcal/mol
Thermal vibrational correction   ...      0.00616188 Eh       3.87 kcal/mol
Thermal rotational correction    ...      0.00141627 Eh       0.89 kcal/mol
Thermal translational correction ...      0.00141627 Eh       0.89 kcal/mol
-----------------------------------------------------------------------
Total thermal energy                   -475.72959874 Eh


Summary of corrections to the electronic energy:
(perhaps to be used in another calculation)
Total thermal correction                  0.00899443 Eh       5.64 kcal/mol
Non-thermal (ZPE) correction              0.12869643 Eh      80.76 kcal/mol
-----------------------------------------------------------------------
Total correction                          0.13769086 Eh      86.40 kcal/mol


--------
ENTHALPY
--------

The enthalpy is H = U + kB*T
                kB is Boltzmann's constant
Total free energy                 ...   -475.72959874 Eh 
Thermal Enthalpy correction       ...      0.00094421 Eh       0.59 kcal/mol
-----------------------------------------------------------------------
Total Enthalpy                    ...   -475.72865454 Eh


Note: Only C1 symmetry has been detected, increase convergence thresholds 
      if your molecule has a higher symmetry. Symmetry factor of 1.0 is   
      used for the rotational entropy correction. 
 

Note: Rotational entropy computed according to Herzberg 
Infrared and Raman Spectra, Chapter V,1, Van Nostrand Reinhold, 1945 
Point Group:  C1, Symmetry Number:   1  
Rotational constants in cm-1:     0.121855     0.016861     0.015277 

Vibrational entropy computed according to the QRRHO of S. Grimme
Chem.Eur.J. 2012 18 9955


-------
ENTROPY
-------

The entropy contributions are T*S = T*(S(el)+S(vib)+S(rot)+S(trans))
     S(el)   - electronic entropy
     S(vib)  - vibrational entropy
     S(rot)  - rotational entropy
     S(trans)- translational entropy
The entropies will be listed as multiplied by the temperature to get
units of energy

Electronic entropy                ...      0.00000000 Eh      0.00 kcal/mol
Vibrational entropy               ...      0.01119175 Eh      7.02 kcal/mol
Rotational entropy                ...      0.01440597 Eh      9.04 kcal/mol
Translational entropy             ...      0.01932890 Eh     12.13 kcal/mol
-----------------------------------------------------------------------
Final entropy term                ...      0.04492662 Eh     28.19 kcal/mol

In case the symmetry of your molecule has not been determined correctly
or in case you have a reason to use a different symmetry number we print 
out the resulting rotational entropy values for sn=1,12 :
 --------------------------------------------------------
|  sn= 1 | S(rot)=       0.01440597 Eh      9.04 kcal/mol|
|  sn= 2 | S(rot)=       0.01375151 Eh      8.63 kcal/mol|
|  sn= 3 | S(rot)=       0.01336868 Eh      8.39 kcal/mol|
|  sn= 4 | S(rot)=       0.01309706 Eh      8.22 kcal/mol|
|  sn= 5 | S(rot)=       0.01288637 Eh      8.09 kcal/mol|
|  sn= 6 | S(rot)=       0.01271422 Eh      7.98 kcal/mol|
|  sn= 7 | S(rot)=       0.01256868 Eh      7.89 kcal/mol|
|  sn= 8 | S(rot)=       0.01244260 Eh      7.81 kcal/mol|
|  sn= 9 | S(rot)=       0.01233139 Eh      7.74 kcal/mol|
|  sn=10 | S(rot)=       0.01223191 Eh      7.68 kcal/mol|
|  sn=11 | S(rot)=       0.01214192 Eh      7.62 kcal/mol|
|  sn=12 | S(rot)=       0.01205977 Eh      7.57 kcal/mol|
 --------------------------------------------------------


-------------------
GIBBS FREE ENERGY
-------------------

The Gibbs free energy is G = H - T*S

Total enthalpy                    ...   -475.72865454 Eh 
Total entropy correction          ...     -0.04492662 Eh    -28.19 kcal/mol
-----------------------------------------------------------------------
Final Gibbs free energy         ...   -475.77358116 Eh

For completeness - the Gibbs free energy minus the electronic energy
G-E(el)                           ...      0.09370844 Eh     58.80 kcal/mol


Timings for individual modules:

Sum of individual times         ...     4649.200 sec (=  77.487 min)
GTO integral calculation        ...       10.506 sec (=   0.175 min)   0.2 %
SCF iterations                  ...     3089.519 sec (=  51.492 min)  66.5 %
SCF Gradient evaluation         ...      679.742 sec (=  11.329 min)  14.6 %
Geometry relaxation             ...        2.662 sec (=   0.044 min)   0.1 %
Analytical frequency calculation...      866.771 sec (=  14.446 min)  18.6 %
                             ****ORCA TERMINATED NORMALLY****
TOTAL RUN TIME: 0 days 1 hours 17 minutes 39 seconds 2 msec
