
                                 *****************
                                 * O   R   C   A *
                                 *****************

                                            #,                                       
                                            ###                                      
                                            ####                                     
                                            #####                                    
                                            ######                                   
                                           ########,                                 
                                     ,,################,,,,,                         
                               ,,#################################,,                 
                          ,,##########################################,,             
                       ,#########################################, ''#####,          
                    ,#############################################,,   '####,        
                  ,##################################################,,,,####,       
                ,###########''''           ''''###############################       
              ,#####''   ,,,,##########,,,,          '''####'''          '####       
            ,##' ,,,,###########################,,,                        '##       
           ' ,,###''''                  '''############,,,                           
         ,,##''                                '''############,,,,        ,,,,,,###''
      ,#''                                            '''#######################'''  
     '                                                          ''''####''''         
             ,#######,   #######,   ,#######,      ##                                
            ,#'     '#,  ##    ##  ,#'     '#,    #''#        ######   ,####,        
            ##       ##  ##   ,#'  ##            #'  '#       #        #'  '#        
            ##       ##  #######   ##           ,######,      #####,   #    #        
            '#,     ,#'  ##    ##  '#,     ,#' ,#      #,         ##   #,  ,#        
             '#######'   ##     ##  '#######'  #'      '#     #####' # '####'        



                  #######################################################
                  #                        -***-                        #
                  #          Department of theory and spectroscopy      #
                  #    Directorship and core code : Frank Neese         #
                  #        Max Planck Institute fuer Kohlenforschung    #
                  #                Kaiser Wilhelm Platz 1               #
                  #                 D-45470 Muelheim/Ruhr               #
                  #                      Germany                        #
                  #                                                     #
                  #                  All rights reserved                #
                  #                        -***-                        #
                  #######################################################



                         Program Version 5.0.4 -  RELEASE  -

 With contributions from (in alphabetic order):
   Daniel Aravena         : Magnetic Suceptibility
   Michael Atanasov       : Ab Initio Ligand Field Theory (pilot matlab implementation)
   Alexander A. Auer      : GIAO ZORA, VPT2 properties, NMR spectrum
   Ute Becker             : Parallelization
   Giovanni Bistoni       : ED, misc. LED, open-shell LED, HFLD
   Martin Brehm           : Molecular dynamics
   Dmytro Bykov           : SCF Hessian
   Vijay G. Chilkuri      : MRCI spin determinant printing, contributions to CSF-ICE
   Dipayan Datta          : RHF DLPNO-CCSD density
   Achintya Kumar Dutta   : EOM-CC, STEOM-CC
   Dmitry Ganyushin       : Spin-Orbit,Spin-Spin,Magnetic field MRCI
   Miquel Garcia          : C-PCM and meta-GGA Hessian, CC/C-PCM, Gaussian charge scheme
   Yang Guo               : DLPNO-NEVPT2, F12-NEVPT2, CIM, IAO-localization
   Andreas Hansen         : Spin unrestricted coupled pair/coupled cluster methods
   Benjamin Helmich-Paris : MC-RPA, TRAH-SCF, COSX integrals
   Lee Huntington         : MR-EOM, pCC
   Robert Izsak           : Overlap fitted RIJCOSX, COSX-SCS-MP3, EOM
   Marcus Kettner         : VPT2
   Christian Kollmar      : KDIIS, OOCD, Brueckner-CCSD(T), CCSD density, CASPT2, CASPT2-K
   Simone Kossmann        : Meta GGA functionals, TD-DFT gradient, OOMP2, MP2 Hessian
   Martin Krupicka        : Initial AUTO-CI
   Lucas Lang             : DCDCAS
   Marvin Lechner         : AUTO-CI (C++ implementation), FIC-MRCC
   Dagmar Lenk            : GEPOL surface, SMD
   Dimitrios Liakos       : Extrapolation schemes; Compound Job, initial MDCI parallelization
   Dimitrios Manganas     : Further ROCIS development; embedding schemes
   Dimitrios Pantazis     : SARC Basis sets
   Anastasios Papadopoulos: AUTO-CI, single reference methods and gradients
   Taras Petrenko         : DFT Hessian,TD-DFT gradient, ASA, ECA, R-Raman, ABS, FL, XAS/XES, NRVS
   Peter Pinski           : DLPNO-MP2, DLPNO-MP2 Gradient
   Christoph Reimann      : Effective Core Potentials
   Marius Retegan         : Local ZFS, SOC
   Christoph Riplinger    : Optimizer, TS searches, QM/MM, DLPNO-CCSD(T), (RO)-DLPNO pert. Triples
   Tobias Risthaus        : Range-separated hybrids, TD-DFT gradient, RPA, STAB
   Michael Roemelt        : Original ROCIS implementation
   Masaaki Saitow         : Open-shell DLPNO-CCSD energy and density
   Barbara Sandhoefer     : DKH picture change effects
   Avijit Sen             : IP-ROCIS
   Kantharuban Sivalingam : CASSCF convergence, NEVPT2, FIC-MRCI
   Bernardo de Souza      : ESD, SOC TD-DFT
   Georgi Stoychev        : AutoAux, RI-MP2 NMR, DLPNO-MP2 response
   Willem Van den Heuvel  : Paramagnetic NMR
   Boris Wezisla          : Elementary symmetry handling
   Frank Wennmohs         : Technical directorship


 We gratefully acknowledge several colleagues who have allowed us to
 interface, adapt or use parts of their codes:
   Stefan Grimme, W. Hujo, H. Kruse, P. Pracht,  : VdW corrections, initial TS optimization,
                  C. Bannwarth, S. Ehlert          DFT functionals, gCP, sTDA/sTD-DF
   Ed Valeev, F. Pavosevic, A. Kumar             : LibInt (2-el integral package), F12 methods
   Garnet Chan, S. Sharma, J. Yang, R. Olivares  : DMRG
   Ulf Ekstrom                                   : XCFun DFT Library
   Mihaly Kallay                                 : mrcc  (arbitrary order and MRCC methods)
   Jiri Pittner, Ondrej Demel                    : Mk-CCSD
   Frank Weinhold                                : gennbo (NPA and NBO analysis)
   Christopher J. Cramer and Donald G. Truhlar   : smd solvation model
   Lars Goerigk                                  : TD-DFT with DH, B97 family of functionals
   V. Asgeirsson, H. Jonsson                     : NEB implementation
   FAccTs GmbH                                   : IRC, NEB, NEB-TS, DLPNO-Multilevel, CI-OPT
                                                   MM, QMMM, 2- and 3-layer-ONIOM, Crystal-QMMM,
                                                   LR-CPCM, SF, NACMEs, symmetry and pop. for TD-DFT,
                                                   nearIR, NL-DFT gradient (VV10), updates on ESD,
                                                   ML-optimized integration grids
   S Lehtola, MJT Oliveira, MAL Marques          : LibXC Library
   Liviu Ungur et al                             : ANISO software


 Your calculation uses the libint2 library for the computation of 2-el integrals
 For citations please refer to: http://libint.valeyev.net

 Your ORCA version has been built with support for libXC version: 5.1.0
 For citations please refer to: https://tddft.org/programs/libxc/

 This ORCA versions uses:
   CBLAS   interface :  Fast vector & matrix operations
   LAPACKE interface :  Fast linear algebra routines
   Shared memory     :  Shared parallel matrices


================================================================================

----- Orbital basis set information -----
Your calculation utilizes the basis: def2-SVP
   F. Weigend and R. Ahlrichs, Phys. Chem. Chem. Phys. 7, 3297 (2005).

----- AuxJ basis set information -----
Your calculation utilizes the auxiliary basis: def2/J
   F. Weigend, Phys. Chem. Chem. Phys. 8, 1057 (2006).

----- AuxC basis set information -----
Your calculation utilizes the auxiliary basis: def2-TZVP/C
  H-La, Hf-Rn : A. Hellweg, C. Hattig, S. Hofener and W. Klopper, Theor. Chem. Acc. 117, 587 (2007).
        Ce-Lu : J. Chmela and M. E. Harding, Mol. Phys. (2018).

================================================================================
                                        WARNINGS
                       Please study these warnings very carefully!
================================================================================


WARNING: Geometry Optimization
  ===> : Switching off AutoStart
         For restart on a previous wavefunction, please use MOREAD

WARNING: Post HF methods need fully converged wavefunctions
  ===> : Setting SCFConvForced true
         You can overwrite this default with %scf ConvForced false 


WARNING: MDCI localization with Augmented Hessian Foster-Boys
  ===> : Switching off randomization!

INFO   : the flag for use of the SHARK integral package has been found!



***************************************
The coordinates will be read from file: first_job.xyz
***************************************


================================================================================

----- Orbital basis set information -----
Your calculation utilizes the basis: def2-TZVP
   F. Weigend and R. Ahlrichs, Phys. Chem. Chem. Phys. 7, 3297 (2005).

----- AuxJ basis set information -----
Your calculation utilizes the auxiliary basis: def2/J
   F. Weigend, Phys. Chem. Chem. Phys. 8, 1057 (2006).

================================================================================
                                        WARNINGS
                       Please study these warnings very carefully!
================================================================================


INFO   : the flag for use of the SHARK integral package has been found!

================================================================================
                                       INPUT FILE
================================================================================
NAME = e_c_17.inp
|  1> !DLPNO-CCSD(T) DEF2-TZVP/C RIJCOSX NumGrad OPT
|  2> 
|  3> %base "first_job"
|  4> 
|  5> * xyz 1 1
|  6>   C   -5.68864025007199      0.74375697940424      4.02279963313618
|  7>   C   -6.14017478281601      1.48752803661525      2.89479801700060
|  8>   C   -6.03577510452864      0.96860095727281      1.61512919679120
|  9>   C   -5.47671551789388     -0.31067808542453      1.42174229638733
| 10>   C   -5.02516667533910     -1.06251571606448      2.52737726342718
| 11>   C   -5.13038656319973     -0.54172380422492      3.80827956130628
| 12>   C   -5.80219044545854      1.32185478537185      5.39342595030213
| 13>   H   -5.47568151075062      0.62058386935549      6.17291648473423
| 14>   H   -6.84190537608322      1.63110850063137      5.60405156790145
| 15>   H   -5.19467969317582      2.24286556186927      5.47547721675407
| 16>   H   -6.57338048436388      2.47867051326444      3.05213474531913
| 17>   H   -6.38467649074386      1.54541398407473      0.75588032905486
| 18>   H   -5.39272090817148     -0.72245752042804      0.41310965395308
| 19>   H   -4.59377490734198     -2.05350886881684      2.37011864130417
| 20>   H   -4.78267860356755     -1.12027465846136      4.66726950684610
| 21>   N   -10.72303025727538     -2.04355384202885    -23.95949870294162
| 22>   O   -10.31248685872961     -1.95063071645687    -22.88200324132554
| 23>   O   -10.56999081643787     -2.21775338079966    -25.09257128368711
| 24> *
| 25> 
| 26> $new_job
| 27> 
| 28> !B3LYP DEF2-TZVP FREQ SOSCF
| 29> 
| 30> %base "second job"
| 31> 
| 32> * XYZfile 1 1 first_job.xyz
| 33> 
| 34> 
| 35> 
| 36>                          ****END OF INPUT****
================================================================================


                 $$$$$$$$$$$$$$$$$$$$$$$$$$$$$$$$$$$$$$$$$$$$$$ 
                 $ THERE ARE  2 JOBS TO BE PROCESSED THIS RUN $
                 $$$$$$$$$$$$$$$$$$$$$$$$$$$$$$$$$$$$$$$$$$$$$$ 




                 $$$$$$$$$$$$$$$$  JOB NUMBER  1 $$$$$$$$$$$$$$


                       *****************************
                       * Geometry Optimization Run *
                       *****************************

Geometry optimization settings:
Update method            Update   .... BFGS
Choice of coordinates    CoordSys .... Z-matrix Internals
Initial Hessian          InHess   .... Almoef's Model

Convergence Tolerances:
Energy Change            TolE     ....  5.0000e-06 Eh
Max. Gradient            TolMAXG  ....  3.0000e-04 Eh/bohr
RMS Gradient             TolRMSG  ....  1.0000e-04 Eh/bohr
Max. Displacement        TolMAXD  ....  4.0000e-03 bohr
RMS Displacement         TolRMSD  ....  2.0000e-03 bohr
Strict Convergence                ....  False
------------------------------------------------------------------------------
                        ORCA OPTIMIZATION COORDINATE SETUP
------------------------------------------------------------------------------

The optimization will be done in new redundant internal coordinates
Making redundant internal coordinates   ...  (new redundants) done
Evaluating the initial hessian          ...  (Almloef) done
Evaluating the coordinates              ...  done
Calculating the B-matrix                .... done
Calculating the G-matrix                .... done
Diagonalizing the G-matrix              .... done
Small eigenvalue found = 1.893e-02
The first mode is                       ....   54
The number of degrees of freedom        ....   48

    -----------------------------------------------------------------
                    Redundant Internal Coordinates


    -----------------------------------------------------------------
         Definition                    Initial Value    Approx d2E/dq
    -----------------------------------------------------------------
      1. B(C   1,C   0)                  1.4246         0.550233   
      2. B(C   2,C   1)                  1.3848         0.636791   
      3. B(C   3,C   2)                  1.4094         0.581748   
      4. B(C   4,C   3)                  1.4112         0.577909   
      5. B(C   5,C   4)                  1.3867         0.632359   
      6. B(C   5,C   0)                  1.4178         0.564160   
      7. B(C   6,C   0)                  1.4919         0.429729   
      8. B(H   7,C   6)                  1.0982         0.349443   
      9. B(H   8,C   6)                  1.1050         0.340803   
     10. B(H   9,C   6)                  1.1064         0.339078   
     11. B(H  10,C   1)                  1.0931         0.356072   
     12. B(H  11,C   2)                  1.0921         0.357290   
     13. B(H  12,C   3)                  1.0927         0.356568   
     14. B(H  13,C   4)                  1.0922         0.357204   
     15. B(H  14,C   5)                  1.0925         0.356850   
     16. B(O  16,H  12)                 23.8406         0.000000   
     17. B(O  16,H  11)                 24.2157         0.000000   
     18. B(O  16,C   3)                 24.8344         0.000000   
     19. B(O  16,N  15)                  1.1568         1.180523   
     20. B(O  17,N  15)                  1.1566         1.181568   
     21. A(C   1,C   0,C   5)          118.5789         0.417769   
     22. A(C   1,C   0,C   6)          120.0674         0.398126   
     23. A(C   5,C   0,C   6)          121.3532         0.399880   
     24. A(C   0,C   1,H  10)          119.0161         0.345220   
     25. A(C   0,C   1,C   2)          120.8068         0.426905   
     26. A(C   2,C   1,H  10)          120.1770         0.353835   
     27. A(C   3,C   2,H  11)          119.8776         0.348671   
     28. A(C   1,C   2,C   3)          119.7894         0.431191   
     29. A(C   1,C   2,H  11)          120.3330         0.354040   
     30. A(H  12,C   3,O  16)           24.0384         0.089000   
     31. A(C   2,C   3,O  16)           96.7177         0.089000   
     32. A(C   4,C   3,H  12)          119.8561         0.348164   
     33. A(C   4,C   3,O  16)          142.5454         0.089000   
     34. A(C   2,C   3,C   4)          120.1970         0.423759   
     35. A(C   2,C   3,H  12)          119.9469         0.348553   
     36. A(C   5,C   4,H  13)          120.2465         0.353607   
     37. A(C   3,C   4,H  13)          119.7991         0.348268   
     38. A(C   3,C   4,C   5)          119.9544         0.430139   
     39. A(C   4,C   5,H  14)          120.2149         0.353547   
     40. A(C   0,C   5,C   4)          120.6734         0.428285   
     41. A(C   0,C   5,H  14)          119.1116         0.346802   
     42. A(H   8,C   6,H   9)          105.6373         0.285643   
     43. A(H   7,C   6,H   9)          108.4025         0.286761   
     44. A(C   0,C   6,H   9)          110.4210         0.328612   
     45. A(H   7,C   6,H   8)          108.8551         0.286988   
     46. A(C   0,C   6,H   8)          110.8048         0.328888   
     47. A(C   0,C   6,H   7)          112.4600         0.330251   
     48. A(C   2,H  11,O  16)          138.0354         0.089000   
     49. A(C   3,H  12,O  16)          154.8918         0.089000   
     50. A(O  16,N  15,O  17)          151.3630         0.535783   
     51. A(H  11,O  16,N  15)          168.0655         0.089000   
     52. A(C   3,O  16,N  15)          170.3864         0.089000   
     53. A(H  11,O  16,H  12)            5.8941         0.089000   
     54. A(H  12,O  16,N  15)          170.9351         0.089000   
     55. D(C   2,C   1,C   0,C   6)    179.6637         0.020712   
     56. D(H  10,C   1,C   0,C   5)    179.8940         0.020712   
     57. D(H  10,C   1,C   0,C   6)     -0.3762         0.020712   
     58. D(C   2,C   1,C   0,C   5)     -0.0661         0.020712   
     59. D(C   3,C   2,C   1,H  10)   -179.9543         0.028155   
     60. D(H  11,C   2,C   1,C   0)    179.9829         0.028155   
     61. D(C   3,C   2,C   1,C   0)      0.0053         0.028155   
     62. D(H  11,C   2,C   1,H  10)      0.0233         0.028155   
     63. D(O  16,C   3,C   2,H  11)     -6.5287         0.025256   
     64. D(H  12,C   3,C   2,H  11)      0.0474         0.025256   
     65. D(H  12,C   3,C   2,C   1)   -179.9749         0.025256   
     66. D(C   4,C   3,C   2,C   1)      0.0524         0.025256   
     67. D(C   4,C   3,C   2,H  11)   -179.9253         0.025256   
     68. D(O  16,C   3,C   2,C   1)    173.4490         0.025256   
     69. D(C   5,C   4,C   3,C   2)     -0.0481         0.024907   
     70. D(H  13,C   4,C   3,O  16)     10.7734         0.024907   
     71. D(H  13,C   4,C   3,H  12)     -0.0238         0.024907   
     72. D(H  13,C   4,C   3,C   2)    179.9489         0.024907   
     73. D(C   5,C   4,C   3,O  16)   -169.2236         0.024907   
     74. D(C   5,C   4,C   3,H  12)    179.9792         0.024907   
     75. D(H  14,C   5,C   4,H  13)     -0.0298         0.027739   
     76. D(C   0,C   5,C   4,H  13)    179.9887         0.027739   
     77. D(C   0,C   5,C   4,C   3)     -0.0143         0.027739   
     78. D(H  14,C   5,C   0,C   6)      0.3627         0.021814   
     79. D(C   4,C   5,C   0,C   6)   -179.6556         0.021814   
     80. D(H  14,C   5,C   4,C   3)    179.9672         0.027739   
     81. D(C   4,C   5,C   0,C   1)      0.0705         0.021814   
     82. D(H  14,C   5,C   0,C   1)   -179.9112         0.021814   
     83. D(H   8,C   6,C   0,C   1)     54.3622         0.013639   
     84. D(H   7,C   6,C   0,C   5)     -3.8314         0.013639   
     85. D(H   7,C   6,C   0,C   1)    176.4465         0.013639   
     86. D(H   9,C   6,C   0,C   5)    117.3952         0.013639   
     87. D(H   9,C   6,C   0,C   1)    -62.3270         0.013639   
     88. D(H   8,C   6,C   0,C   5)   -125.9157         0.013639   
     89. D(O  16,H  11,C   2,C   3)      9.9732         0.107560   
     90. D(O  16,H  11,C   2,C   1)   -170.0043         0.107560   
     91. D(O  16,H  12,C   3,C   4)    163.7595         0.118591   
     92. D(O  16,H  12,C   3,C   2)    -16.2133         0.118591   
     93. D(H  12,O  16,N  15,O  17)   -160.1457         0.160128   
     94. D(C   3,O  16,N  15,O  17)   -165.8094         0.160128   
     95. D(H  11,O  16,H  12,C   3)     14.0539         0.001500   
     96. D(N  15,O  16,H  12,C   3)    -61.9783         0.001500   
     97. D(H  12,O  16,H  11,C   2)     -8.8352         0.001500   
     98. D(N  15,O  16,H  11,C   2)    123.4879         0.001500   
     99. D(N  15,O  16,C   3,H  12)    123.6105         0.001500   
    100. D(H  11,O  16,N  15,O  17)    171.0448         0.160128   
    101. D(N  15,O  16,C   3,C   4)    100.1043         0.001500   
    102. D(N  15,O  16,C   3,C   2)    -70.4891         0.001500   
    -----------------------------------------------------------------

Number of atoms                         .... 18
Number of degrees of freedom            .... 102

         *************************************************************
         *                GEOMETRY OPTIMIZATION CYCLE   1            *
         *************************************************************
---------------------------------
CARTESIAN COORDINATES (ANGSTROEM)
---------------------------------
  C     -5.688640    0.743757    4.022800
  C     -6.140175    1.487528    2.894798
  C     -6.035775    0.968601    1.615129
  C     -5.476716   -0.310678    1.421742
  C     -5.025167   -1.062516    2.527377
  C     -5.130387   -0.541724    3.808280
  C     -5.802190    1.321855    5.393426
  H     -5.475682    0.620584    6.172916
  H     -6.841905    1.631109    5.604052
  H     -5.194680    2.242866    5.475477
  H     -6.573380    2.478671    3.052135
  H     -6.384676    1.545414    0.755880
  H     -5.392721   -0.722458    0.413110
  H     -4.593775   -2.053509    2.370119
  H     -4.782679   -1.120275    4.667270
  N    -10.723030   -2.043554  -23.959499
  O    -10.312487   -1.950631  -22.882003
  O    -10.569991   -2.217753  -25.092571

----------------------------
CARTESIAN COORDINATES (A.U.)
----------------------------
  NO LB      ZA    FRAG     MASS         X           Y           Z
   0 C     6.0000    0    12.011  -10.749972    1.405497    7.601990
   1 C     6.0000    0    12.011  -11.603249    2.811021    5.470375
   2 C     6.0000    0    12.011  -11.405962    1.830391    3.052152
   3 C     6.0000    0    12.011  -10.349492   -0.587096    2.686704
   4 C     6.0000    0    12.011   -9.496189   -2.007864    4.776051
   5 C     6.0000    0    12.011   -9.695026   -1.023710    7.196605
   6 C     6.0000    0    12.011  -10.964551    2.497944   10.192098
   7 H     1.0000    0     1.008  -10.347538    1.172734   11.665122
   8 H     1.0000    0     1.008  -12.929327    3.082348   10.590123
   9 H     1.0000    0     1.008   -9.816522    4.238402   10.347152
  10 H     1.0000    0     1.008  -12.421889    4.684008    5.767699
  11 H     1.0000    0     1.008  -12.065290    2.920409    1.428407
  12 H     1.0000    0     1.008  -10.190766   -1.365247    0.780664
  13 H     1.0000    0     1.008   -8.680976   -3.880569    4.478875
  14 H     1.0000    0     1.008   -9.037953   -2.117012    8.819861
  15 N     7.0000    0    14.007  -20.263591   -3.861757  -45.276891
  16 O     8.0000    0    15.999  -19.487776   -3.686158  -43.240720
  17 O     8.0000    0    15.999  -19.974388   -4.190947  -47.418088

--------------------------------
INTERNAL COORDINATES (ANGSTROEM)
--------------------------------
 C      0   0   0     0.000000000000     0.00000000     0.00000000
 C      1   0   0     1.424593438778     0.00000000     0.00000000
 C      2   1   0     1.384823777929   120.80682226     0.00000000
 C      3   2   1     1.409432858898   119.78943150     0.00000000
 C      4   3   2     1.411235225042   120.19700263     0.05244663
 C      5   4   3     1.386724968027   119.95436923   359.95191903
 C      1   2   3     1.491880431350   120.06735249   179.66366007
 H      7   1   2     1.098177797701   112.45997699   176.44650361
 H      7   1   2     1.104992374704   110.80476106    54.36215232
 H      7   1   2     1.106373614513   110.42103437   297.67304598
 H      2   1   3     1.093062411278   119.01613765   179.96015196
 H      3   2   1     1.092132804149   120.33298066   179.98294088
 H      4   3   2     1.092683487996   119.94687951   180.02511024
 H      5   4   3     1.092198040893   119.79913350   179.94888148
 H      6   5   4     1.092467684954   120.21490623   179.96716306
 N     13   4   3    24.983625264694   154.69295727   342.92350195
 O     16  13   4     1.156796031787     8.64691898   118.80272079
 O     16  13   4     1.156555239925   159.30403589   146.22675432

---------------------------
INTERNAL COORDINATES (A.U.)
---------------------------
 C      0   0   0     0.000000000000     0.00000000     0.00000000
 C      1   0   0     2.692091451472     0.00000000     0.00000000
 C      2   1   0     2.616937684028   120.80682226     0.00000000
 C      3   2   1     2.663442107466   119.78943150     0.00000000
 C      4   3   2     2.666848085873   120.19700263     0.05244663
 C      5   4   3     2.620530412643   119.95436923   359.95191903
 C      1   2   3     2.819245439808   120.06735249   179.66366007
 H      7   1   2     2.075255284008   112.45997699   176.44650361
 H      7   1   2     2.088132968263   110.80476106    54.36215232
 H      7   1   2     2.090743133226   110.42103437   297.67304598
 H      2   1   3     2.065588604600   119.01613765   179.96015196
 H      3   2   1     2.063831901712   120.33298066   179.98294088
 H      4   3   2     2.064872543369   119.94687951   180.02511024
 H      5   4   3     2.063955181292   119.79913350   179.94888148
 H      6   5   4     2.064464734721   120.21490623   179.96716306
 N     13   4   3    47.212209582788   154.69295727   342.92350195
 O     16  13   4     2.186027692885     8.64691898   118.80272079
 O     16  13   4     2.185572662209   159.30403589   146.22675432

---------------------
BASIS SET INFORMATION
---------------------
There are 4 groups of distinct atoms

 Group   1 Type C   : 7s4p1d contracted to 3s2p1d pattern {511/31/1}
 Group   2 Type H   : 4s1p contracted to 2s1p pattern {31/1}
 Group   3 Type N   : 7s4p1d contracted to 3s2p1d pattern {511/31/1}
 Group   4 Type O   : 7s4p1d contracted to 3s2p1d pattern {511/31/1}

Atom   0C    basis set group =>   1
Atom   1C    basis set group =>   1
Atom   2C    basis set group =>   1
Atom   3C    basis set group =>   1
Atom   4C    basis set group =>   1
Atom   5C    basis set group =>   1
Atom   6C    basis set group =>   1
Atom   7H    basis set group =>   2
Atom   8H    basis set group =>   2
Atom   9H    basis set group =>   2
Atom  10H    basis set group =>   2
Atom  11H    basis set group =>   2
Atom  12H    basis set group =>   2
Atom  13H    basis set group =>   2
Atom  14H    basis set group =>   2
Atom  15N    basis set group =>   3
Atom  16O    basis set group =>   4
Atom  17O    basis set group =>   4
---------------------------------
AUXILIARY/J BASIS SET INFORMATION
---------------------------------
There are 4 groups of distinct atoms

 Group   1 Type C   : 12s5p4d2f1g contracted to 6s4p3d1f1g pattern {711111/2111/211/2/1}
 Group   2 Type H   : 5s2p1d contracted to 3s1p1d pattern {311/2/1}
 Group   3 Type N   : 12s5p4d2f1g contracted to 6s4p3d1f1g pattern {711111/2111/211/2/1}
 Group   4 Type O   : 12s5p4d2f1g contracted to 6s4p3d1f1g pattern {711111/2111/211/2/1}

Atom   0C    basis set group =>   1
Atom   1C    basis set group =>   1
Atom   2C    basis set group =>   1
Atom   3C    basis set group =>   1
Atom   4C    basis set group =>   1
Atom   5C    basis set group =>   1
Atom   6C    basis set group =>   1
Atom   7H    basis set group =>   2
Atom   8H    basis set group =>   2
Atom   9H    basis set group =>   2
Atom  10H    basis set group =>   2
Atom  11H    basis set group =>   2
Atom  12H    basis set group =>   2
Atom  13H    basis set group =>   2
Atom  14H    basis set group =>   2
Atom  15N    basis set group =>   3
Atom  16O    basis set group =>   4
Atom  17O    basis set group =>   4
---------------------------------
AUXILIARY/C BASIS SET INFORMATION
---------------------------------
There are 4 groups of distinct atoms

 Group   1 Type C   : 8s6p5d3f1g contracted to 8s6p4d3f1g pattern {11111111/111111/2111/111/1}
 Group   2 Type H   : 4s3p2d contracted to 4s2p1d pattern {1111/21/2}
 Group   3 Type N   : 8s6p5d3f1g contracted to 8s6p4d3f1g pattern {11111111/111111/2111/111/1}
 Group   4 Type O   : 8s6p5d3f1g contracted to 8s6p4d3f1g pattern {11111111/111111/2111/111/1}

Atom   0C    basis set group =>   1
Atom   1C    basis set group =>   1
Atom   2C    basis set group =>   1
Atom   3C    basis set group =>   1
Atom   4C    basis set group =>   1
Atom   5C    basis set group =>   1
Atom   6C    basis set group =>   1
Atom   7H    basis set group =>   2
Atom   8H    basis set group =>   2
Atom   9H    basis set group =>   2
Atom  10H    basis set group =>   2
Atom  11H    basis set group =>   2
Atom  12H    basis set group =>   2
Atom  13H    basis set group =>   2
Atom  14H    basis set group =>   2
Atom  15N    basis set group =>   3
Atom  16O    basis set group =>   4
Atom  17O    basis set group =>   4
------------------------------------------------------------------------------
                           ORCA GTO INTEGRAL CALCULATION
                           -- RI-GTO INTEGRALS CHOSEN --
------------------------------------------------------------------------------
------------------------------------------------------------------------------
                   ___                                                        
                  /   \      - P O W E R E D   B Y -                         
                 /     \                                                     
                 |  |  |   _    _      __       _____    __    __             
                 |  |  |  | |  | |    /  \     |  _  \  |  |  /  |          
                  \  \/   | |  | |   /    \    | | | |  |  | /  /          
                 / \  \   | |__| |  /  /\  \   | |_| |  |  |/  /          
                |  |  |   |  __  | /  /__\  \  |    /   |      \           
                |  |  |   | |  | | |   __   |  |    \   |  |\   \          
                \     /   | |  | | |  |  |  |  | |\  \  |  | \   \       
                 \___/    |_|  |_| |__|  |__|  |_| \__\ |__|  \__/        
                                                                              
                      - O R C A' S   B I G   F R I E N D -                    
                                      &                                       
                       - I N T E G R A L  F E E D E R -                       
                                                                              
 v1 FN, 2020, v2 2021                                                         
------------------------------------------------------------------------------


Reading SHARK input file first_job.SHARKINP.tmp ... ok
----------------------
SHARK INTEGRAL PACKAGE
----------------------

Number of atoms                             ...     18
Number of basis functions                   ...    180
Number of shells                            ...     84
Maximum angular momentum                    ...      2
Integral batch strategy                     ... SHARK/LIBINT Hybrid
RI-J (if used) integral strategy            ... SPLIT-RIJ (Revised 2003 algorithm where possible)
Printlevel                                  ...      1
Contraction scheme used                     ... SEGMENTED contraction
Coulomb Range Separation                    ... NOT USED
Exchange Range Separation                   ... NOT USED
Finite Nucleus Model                        ... NOT USED
Auxiliary Coulomb fitting basis             ... AVAILABLE
   # of basis functions in Aux-J            ...    578
   # of shells in Aux-J                     ...    190
   Maximum angular momentum in Aux-J        ...      4
Auxiliary J/K fitting basis                 ... NOT available
Auxiliary Correlation fitting basis         ... AVAILABLE
   # of basis functions in Aux-C            ...    880
   # of shells in Aux-C                     ...    276
   Maximum angular momentum in Aux-C        ...      4
Auxiliary 'external' fitting basis          ... NOT available
Integral threshold                          ...     2.500000e-11
Primitive cut-off                           ...     2.500000e-12
Primitive pair pre-selection threshold      ...     2.500000e-12

Calculating pre-screening integrals         ... done (  0.1 sec) Dimension = 84
Organizing shell pair data                  ... done (  0.0 sec)
Shell pair information
Total number of shell pairs                 ...      3570
Shell pairs after pre-screening             ...      2301
Total number of primitive shell pairs       ...     13034
Primitive shell pairs kept                  ...      6360
          la=0 lb=0:    721 shell pairs
          la=1 lb=0:    837 shell pairs
          la=1 lb=1:    262 shell pairs
          la=2 lb=0:    279 shell pairs
          la=2 lb=1:    168 shell pairs
          la=2 lb=2:     34 shell pairs

Calculating one electron integrals          ... done (  0.0 sec)
Calculating RI/J V-Matrix + Cholesky decomp.... done (  0.0 sec)
Calculating RI/C V-Matrix + Cholesky decomp.... done (  0.1 sec)
Calculating Nuclear repulsion               ... done (  0.0 sec) ENN=    356.187175865595 Eh

SHARK setup successfully completed in   0.3 seconds

Maximum memory used throughout the entire GTOINT-calculation: 19.5 MB
-------------------------------------------------------------------------------
                                 ORCA SCF
-------------------------------------------------------------------------------

------------
SCF SETTINGS
------------
Hamiltonian:
 Ab initio Hamiltonian  Method          .... Hartree-Fock(GTOs)
 RI-approximation to the Coulomb term is turned on
   Number of AuxJ basis functions       .... 578
   RIJ-COSX (HFX calculated with COS-X)).... on


General Settings:
 Integral files         IntName         .... first_job
 Hartree-Fock type      HFTyp           .... RHF
 Total Charge           Charge          ....    1
 Multiplicity           Mult            ....    1
 Number of Electrons    NEL             ....   72
 Basis Dimension        Dim             ....  180
 Nuclear Repulsion      ENuc            ....    356.1871758656 Eh

Convergence Acceleration:
 DIIS                   CNVDIIS         .... on
   Start iteration      DIISMaxIt       ....    12
   Startup error        DIISStart       ....  0.200000
   # of expansion vecs  DIISMaxEq       ....     5
   Bias factor          DIISBfac        ....   1.050
   Max. coefficient     DIISMaxC        ....  10.000
 Trust-Rad. Augm. Hess. CNVTRAH         .... auto
   Auto Start mean grad. ratio tolernc. ....  1.125000
   Auto Start start iteration           ....    20
   Auto Start num. interpolation iter.  ....    10
   Max. Number of Micro iterations      ....    16
   Max. Number of Macro iterations      .... Maxiter - #DIIS iter
   Number of Davidson start vectors     ....     2
   Converg. threshold I  (grad. norm)   ....   1.000e-05
   Converg. threshold II (energy diff.) ....   1.000e-08
   Grad. Scal. Fac. for Micro threshold ....   0.100
   Minimum threshold for Micro iter.    ....   0.010
   NR start threshold (gradient norm)   ....   0.001
   Initial trust radius                 ....   0.400
   Minimum AH scaling param. (alpha)    ....   1.000
   Maximum AH scaling param. (alpha)    .... 1000.000
   Orbital update algorithm             .... Taylor
   White noise on init. David. guess    .... on
   Maximum white noise                  ....   0.010
   Quad. conv. algorithm                .... NR
 SOSCF                  CNVSOSCF        .... on
   Start iteration      SOSCFMaxIt      ....   150
   Startup grad/error   SOSCFStart      ....  0.003300
 Level Shifting         CNVShift        .... on
   Level shift para.    LevelShift      ....    0.2500
   Turn off err/grad.   ShiftErr        ....    0.0010
 Zerner damping         CNVZerner       .... off
 Static damping         CNVDamp         .... on
   Fraction old density DampFac         ....    0.7000
   Max. Damping (<1)    DampMax         ....    0.9800
   Min. Damping (>=0)   DampMin         ....    0.0000
   Turn off err/grad.   DampErr         ....    0.1000
 Fernandez-Rico         CNVRico         .... off

SCF Procedure:
 Maximum # iterations   MaxIter         ....   125
 SCF integral mode      SCFMode         .... Direct
   Integral package                     .... SHARK and LIBINT hybrid scheme
 Reset frequency        DirectResetFreq ....    20
 Integral Threshold     Thresh          ....  2.500e-11 Eh
 Primitive CutOff       TCut            ....  2.500e-12 Eh

Convergence Tolerance:
 Convergence Check Mode ConvCheckMode   .... Total+1el-Energy
 Convergence forced     ConvForced      .... 1
 Energy Change          TolE            ....  1.000e-08 Eh
 1-El. energy change                    ....  1.000e-05 Eh
 Orbital Gradient       TolG            ....  1.000e-05
 Orbital Rotation angle TolX            ....  1.000e-05
 DIIS Error             TolErr          ....  5.000e-07


Diagonalization of the overlap matrix:
Smallest eigenvalue                        ... 3.154e-04
Time for diagonalization                   ...    0.007 sec
Threshold for overlap eigenvalues          ... 1.000e-08
Number of eigenvalues below threshold      ... 0
Time for construction of square roots      ...    0.005 sec
Total time needed                          ...    0.012 sec

Time for model grid setup =    0.317 sec

------------------------------
INITIAL GUESS: MODEL POTENTIAL
------------------------------
Loading Hartree-Fock densities                     ... done
Calculating cut-offs                               ... done
Initializing the effective Hamiltonian             ... done
Setting up the integral package (SHARK)            ... done
Starting the Coulomb interaction                   ... done (   0.4 sec)
Reading the grid                                   ... done
Mapping shells                                     ... done
Starting the XC term evaluation                    ... done (   0.6 sec)
Transforming the Hamiltonian                       ... done (   0.0 sec)
Diagonalizing the Hamiltonian                      ... done (   0.0 sec)
Back transforming the eigenvectors                 ... done (   0.0 sec)
Now organizing SCF variables                       ... done
                      ------------------
                      INITIAL GUESS DONE (   1.4 sec)
                      ------------------
--------------------
COSX GRID GENERATION
--------------------

GRIDX 1
-------
General Integration Accuracy     IntAcc      ... 3.816
Radial Grid Type                 RadialGrid  ... OptM3 with GC (2021)
Angular Grid (max. ang.)         AngularGrid ... 1 (Lebedev-50)
Angular grid pruning method      GridPruning ... 4 (adaptive)
Weight generation scheme         WeightScheme... Becke
Basis function cutoff            BFCut       ... 1.0000e-11
Integration weight cutoff        WCut        ... 1.0000e-14
Angular grids for H and He will be reduced by one unit
Partially contracted basis set               ... on
Rotationally invariant grid construction     ... off

Total number of grid points                  ...    11047
Total number of batches                      ...      179
Average number of points per batch           ...       61
Average number of grid points per atom       ...      614
UseSFitting                                  ... on

GRIDX 2
-------
General Integration Accuracy     IntAcc      ... 4.020
Radial Grid Type                 RadialGrid  ... OptM3 with GC (2021)
Angular Grid (max. ang.)         AngularGrid ... 2 (Lebedev-110)
Angular grid pruning method      GridPruning ... 4 (adaptive)
Weight generation scheme         WeightScheme... Becke
Basis function cutoff            BFCut       ... 1.0000e-11
Integration weight cutoff        WCut        ... 1.0000e-14
Angular grids for H and He will be reduced by one unit
Partially contracted basis set               ... on
Rotationally invariant grid construction     ... off

Total number of grid points                  ...    24415
Total number of batches                      ...      390
Average number of points per batch           ...       62
Average number of grid points per atom       ...     1356
UseSFitting                                  ... on

GRIDX 3
-------
General Integration Accuracy     IntAcc      ... 4.338
Radial Grid Type                 RadialGrid  ... OptM3 with GC (2021)
Angular Grid (max. ang.)         AngularGrid ... 3 (Lebedev-194)
Angular grid pruning method      GridPruning ... 4 (adaptive)
Weight generation scheme         WeightScheme... Becke
Basis function cutoff            BFCut       ... 1.0000e-11
Integration weight cutoff        WCut        ... 1.0000e-14
Angular grids for H and He will be reduced by one unit
Partially contracted basis set               ... on
Rotationally invariant grid construction     ... off

Total number of grid points                  ...    53760
Total number of batches                      ...      850
Average number of points per batch           ...       63
Average number of grid points per atom       ...     2987
UseSFitting                                  ... on

Time for X-Grid setup             =    3.794 sec

--------------
SCF ITERATIONS
--------------
ITER       Energy         Delta-E        Max-DP      RMS-DP      [F,P]     Damp
               ***  Starting incremental Fock matrix formation  ***
  0   -472.6513565504   0.000000000000 0.07519011  0.00259584  0.1872646 0.7000
  1   -472.7771315310  -0.125774980594 0.04855915  0.00202482  0.1249621 0.7000
                               ***Turning on DIIS***
  2   -472.8519360631  -0.074804532132 0.10395006  0.00466287  0.0765646 0.0000
  3   -472.5007460385   0.351190024599 0.03473605  0.00088219  0.0471493 0.0000
  4   -473.0407647135  -0.540018675012 0.01855586  0.00039536  0.0165077 0.0000
  5   -473.0167905677   0.023974145780 0.00559630  0.00014822  0.0080485 0.0000
                      *** Initiating the SOSCF procedure ***
                           *** Shutting down DIIS ***
                      *** Re-Reading the Fockian *** 
                      *** Removing any level shift *** 
ITER      Energy       Delta-E        Grad      Rot      Max-DP    RMS-DP
  6   -473.00869222   0.0080983518  0.001798  0.001798  0.003301  0.000073
               *** Restarting incremental Fock matrix formation ***
  7   -473.00835645   0.0003357623  0.000766  0.000847  0.002183  0.000073
  8   -473.00836275  -0.0000062919  0.000325  0.000675  0.001371  0.000039
  9   -473.00836426  -0.0000015107  0.000203  0.000204  0.000332  0.000013
 10   -473.00836446  -0.0000002037  0.000088  0.000065  0.000136  0.000004
 11   -473.00836450  -0.0000000390  0.000016  0.000028  0.000034  0.000001
 12   -473.00836451  -0.0000000063  0.000008  0.000030  0.000020  0.000001
                 **** Energy Check signals convergence ****
              ***Rediagonalizing the Fockian in SOSCF/NRSCF***

               *****************************************************
               *                     SUCCESS                       *
               *           SCF CONVERGED AFTER  13 CYCLES          *
               *****************************************************

Old exchange energy                            =    -61.412229937 Eh
New exchange energy                            =    -61.412427881 Eh
Exchange energy change after final integration =     -0.000197944 Eh
Total energy after final integration           =   -473.008562454 Eh
Final COS-X integration done in                =    14.077 sec

----------------
TOTAL SCF ENERGY
----------------

Total Energy       :         -473.00856245 Eh          -12871.21734 eV

Components:
Nuclear Repulsion  :          356.18717587 Eh            9692.34580 eV
Electronic Energy  :         -829.19573832 Eh          -22563.56315 eV
One Electron Energy:        -1337.72316321 Eh          -36401.29788 eV
Two Electron Energy:          508.52742489 Eh           13837.73473 eV
Max COSX asymmetry :            0.00001038 Eh               0.00028 eV

Virial components:
Potential Energy   :         -943.51053854 Eh          -25674.22701 eV
Kinetic Energy     :          470.50197609 Eh           12803.00966 eV
Virial Ratio       :            2.00532747


---------------
SCF CONVERGENCE
---------------

  Last Energy change         ...   -4.8368e-09  Tolerance :   1.0000e-08
  Last MAX-Density change    ...    4.4409e-15  Tolerance :   1.0000e-07
  Last RMS-Density change    ...    5.4974e-17  Tolerance :   5.0000e-09
  Last Orbital Gradient      ...    3.0452e-06  Tolerance :   1.0000e-05
  Last Orbital Rotation      ...    5.8431e-06  Tolerance :   1.0000e-05

             **** THE GBW FILE WAS UPDATED (first_job.gbw) ****
             **** DENSITY first_job.scfp WAS UPDATED ****
             **** ENERGY FILE WAS UPDATED (first_job.en.tmp) ****
             **** THE GBW FILE WAS UPDATED (first_job.gbw) ****
             **** DENSITY first_job.scfp WAS UPDATED ****
----------------
ORBITAL ENERGIES
----------------

  NO   OCC          E(Eh)            E(eV) 
   0   2.0000     -21.116276      -574.6031 
   1   2.0000     -21.116122      -574.5989 
   2   2.0000     -16.322929      -444.1695 
   3   2.0000     -11.264935      -306.5345 
   4   2.0000     -11.258320      -306.3545 
   5   2.0000     -11.257860      -306.3419 
   6   2.0000     -11.255594      -306.2803 
   7   2.0000     -11.253972      -306.2361 
   8   2.0000     -11.253472      -306.2225 
   9   2.0000     -11.250650      -306.1458 
  10   2.0000      -2.075511       -56.4775 
  11   2.0000      -1.921864       -52.2966 
  12   2.0000      -1.266385       -34.4601 
  13   2.0000      -1.180748       -32.1298 
  14   2.0000      -1.178392       -32.0657 
  15   2.0000      -1.168488       -31.7962 
  16   2.0000      -1.154954       -31.4279 
  17   2.0000      -1.048739       -28.5376 
  18   2.0000      -1.020956       -27.7816 
  19   2.0000      -0.936806       -25.4918 
  20   2.0000      -0.921231       -25.0680 
  21   2.0000      -0.914969       -24.8976 
  22   2.0000      -0.831714       -22.6321 
  23   2.0000      -0.808249       -21.9936 
  24   2.0000      -0.707199       -19.2439 
  25   2.0000      -0.652969       -17.7682 
  26   2.0000      -0.645482       -17.5645 
  27   2.0000      -0.605489       -16.4762 
  28   2.0000      -0.589783       -16.0488 
  29   2.0000      -0.583060       -15.8659 
  30   2.0000      -0.558367       -15.1939 
  31   2.0000      -0.512638       -13.9496 
  32   2.0000      -0.502986       -13.6869 
  33   2.0000      -0.502575       -13.6758 
  34   2.0000      -0.357899        -9.7389 
  35   2.0000      -0.336374        -9.1532 
  36   0.0000      -0.339583        -9.2405 
  37   0.0000      -0.273663        -7.4467 
  38   0.0000       0.022053         0.6001 
  39   0.0000       0.108965         2.9651 
  40   0.0000       0.118244         3.2176 
  41   0.0000       0.163171         4.4401 
  42   0.0000       0.179737         4.8909 
  43   0.0000       0.197528         5.3750 
  44   0.0000       0.225321         6.1313 
  45   0.0000       0.235237         6.4011 
  46   0.0000       0.247613         6.7379 
  47   0.0000       0.255356         6.9486 
  48   0.0000       0.275618         7.4999 
  49   0.0000       0.339846         9.2477 
  50   0.0000       0.347686         9.4610 
  51   0.0000       0.371371        10.1055 
  52   0.0000       0.402869        10.9626 
  53   0.0000       0.435526        11.8513 
  54   0.0000       0.445014        12.1094 
  55   0.0000       0.452282        12.3072 
  56   0.0000       0.477123        12.9832 
  57   0.0000       0.509478        13.8636 
  58   0.0000       0.525273        14.2934 
  59   0.0000       0.530718        14.4416 
  60   0.0000       0.551360        15.0033 
  61   0.0000       0.558321        15.1927 
  62   0.0000       0.572481        15.5780 
  63   0.0000       0.573243        15.5987 
  64   0.0000       0.600827        16.3493 
  65   0.0000       0.614217        16.7137 
  66   0.0000       0.632820        17.2199 
  67   0.0000       0.667298        18.1581 
  68   0.0000       0.681273        18.5384 
  69   0.0000       0.688116        18.7246 
  70   0.0000       0.721405        19.6304 
  71   0.0000       0.741354        20.1733 
  72   0.0000       0.762072        20.7370 
  73   0.0000       0.781472        21.2649 
  74   0.0000       0.797981        21.7142 
  75   0.0000       0.822068        22.3696 
  76   0.0000       0.838909        22.8279 
  77   0.0000       0.842939        22.9375 
  78   0.0000       0.846557        23.0360 
  79   0.0000       0.850964        23.1559 
  80   0.0000       0.852273        23.1915 
  81   0.0000       0.860352        23.4114 
  82   0.0000       0.876973        23.8636 
  83   0.0000       0.890192        24.2234 
  84   0.0000       0.899207        24.4687 
  85   0.0000       0.913136        24.8477 
  86   0.0000       0.913775        24.8651 
  87   0.0000       0.920763        25.0552 
  88   0.0000       0.921449        25.0739 
  89   0.0000       0.944180        25.6925 
  90   0.0000       0.948636        25.8137 
  91   0.0000       0.957990        26.0682 
  92   0.0000       0.961251        26.1570 
  93   0.0000       0.981808        26.7163 
  94   0.0000       1.020249        27.7624 
  95   0.0000       1.058326        28.7985 
  96   0.0000       1.079545        29.3759 
  97   0.0000       1.143350        31.1121 
  98   0.0000       1.189036        32.3553 
  99   0.0000       1.229762        33.4635 
 100   0.0000       1.271074        34.5877 
 101   0.0000       1.308983        35.6192 
 102   0.0000       1.314578        35.7715 
 103   0.0000       1.355670        36.8897 
 104   0.0000       1.444628        39.3103 
 105   0.0000       1.481149        40.3041 
 106   0.0000       1.491341        40.5814 
 107   0.0000       1.493585        40.6425 
 108   0.0000       1.500793        40.8386 
 109   0.0000       1.532615        41.7046 
 110   0.0000       1.550131        42.1812 
 111   0.0000       1.631411        44.3929 
 112   0.0000       1.707557        46.4650 
 113   0.0000       1.739158        47.3249 
 114   0.0000       1.757741        47.8306 
 115   0.0000       1.761679        47.9377 
 116   0.0000       1.772091        48.2210 
 117   0.0000       1.798232        48.9324 
 118   0.0000       1.906461        51.8774 
 119   0.0000       1.931418        52.5566 
 120   0.0000       1.949417        53.0463 
 121   0.0000       1.953726        53.1636 
 122   0.0000       1.994400        54.2704 
 123   0.0000       2.009247        54.6744 
 124   0.0000       2.013097        54.7792 
 125   0.0000       2.020898        54.9914 
 126   0.0000       2.025852        55.1262 
 127   0.0000       2.030790        55.2606 
 128   0.0000       2.041528        55.5528 
 129   0.0000       2.060255        56.0624 
 130   0.0000       2.078569        56.5607 
 131   0.0000       2.090395        56.8825 
 132   0.0000       2.136379        58.1338 
 133   0.0000       2.185016        59.4573 
 134   0.0000       2.221797        60.4582 
 135   0.0000       2.258345        61.4527 
 136   0.0000       2.264831        61.6292 
 137   0.0000       2.309035        62.8320 
 138   0.0000       2.323448        63.2242 
 139   0.0000       2.327022        63.3215 
 140   0.0000       2.385017        64.8996 
 141   0.0000       2.429180        66.1014 
 142   0.0000       2.439685        66.3872 
 143   0.0000       2.456882        66.8552 
 144   0.0000       2.459891        66.9370 
 145   0.0000       2.496667        67.9378 
 146   0.0000       2.497659        67.9648 
 147   0.0000       2.535444        68.9929 
 148   0.0000       2.586683        70.3872 
 149   0.0000       2.590924        70.5026 
 150   0.0000       2.599068        70.7242 
 151   0.0000       2.619658        71.2845 
 152   0.0000       2.627312        71.4928 
 153   0.0000       2.656198        72.2788 
 154   0.0000       2.676753        72.8382 
 155   0.0000       2.762137        75.1616 
 156   0.0000       2.777631        75.5832 
 157   0.0000       2.798874        76.1612 
 158   0.0000       2.862445        77.8911 
 159   0.0000       2.904715        79.0413 
 160   0.0000       2.918883        79.4268 
 161   0.0000       2.933786        79.8324 
 162   0.0000       2.964049        80.6559 
 163   0.0000       3.052240        83.0557 
 164   0.0000       3.055597        83.1470 
 165   0.0000       3.064752        83.3961 
 166   0.0000       3.174273        86.3764 
 167   0.0000       3.190641        86.8217 
 168   0.0000       3.212977        87.4296 
 169   0.0000       3.219311        87.6019 
 170   0.0000       3.266734        88.8923 
 171   0.0000       3.305550        89.9486 
 172   0.0000       3.391032        92.2747 
 173   0.0000       3.403377        92.6106 
 174   0.0000       3.475963        94.5858 
 175   0.0000       3.519023        95.7575 
 176   0.0000       3.603005        98.0428 
 177   0.0000       3.621832        98.5551 
 178   0.0000       3.929474       106.9264 
 179   0.0000       3.975233       108.1716 

                    ********************************
                    * MULLIKEN POPULATION ANALYSIS *
                    ********************************

-----------------------
MULLIKEN ATOMIC CHARGES
-----------------------
   0 C :   -0.193504
   1 C :   -0.032818
   2 C :   -0.028701
   3 C :   -0.057213
   4 C :   -0.029171
   5 C :   -0.034482
   6 C :    0.059125
   7 H :    0.036692
   8 H :    0.047173
   9 H :    0.050316
  10 H :    0.030038
  11 H :    0.040296
  12 H :    0.039526
  13 H :    0.041338
  14 H :    0.031384
  15 N :    0.806518
  16 O :    0.096541
  17 O :    0.096942
Sum of atomic charges:    1.0000000

--------------------------------
MULLIKEN REDUCED ORBITAL CHARGES
--------------------------------
  0 C s       :     3.082594  s :     3.082594
      pz      :     1.063497  p :     3.058631
      px      :     0.973274
      py      :     1.021860
      dz2     :     0.013881  d :     0.052280
      dxz     :     0.008365
      dyz     :     0.015380
      dx2y2   :     0.007280
      dxy     :     0.007375
  1 C s       :     3.155005  s :     3.155005
      pz      :     0.915812  p :     2.835619
      px      :     0.991980
      py      :     0.927827
      dz2     :     0.012738  d :     0.042193
      dxz     :     0.008269
      dyz     :     0.012664
      dx2y2   :     0.004134
      dxy     :     0.004389
  2 C s       :     3.129947  s :     3.129947
      pz      :     0.934414  p :     2.854664
      px      :     0.969554
      py      :     0.950696
      dz2     :     0.011298  d :     0.044090
      dxz     :     0.007033
      dyz     :     0.013290
      dx2y2   :     0.006072
      dxy     :     0.006397
  3 C s       :     3.134688  s :     3.134688
      pz      :     0.933442  p :     2.880282
      px      :     0.995908
      py      :     0.950932
      dz2     :     0.010926  d :     0.042242
      dxz     :     0.005340
      dyz     :     0.012486
      dx2y2   :     0.006760
      dxy     :     0.006731
  4 C s       :     3.131772  s :     3.131772
      pz      :     0.950554  p :     2.853569
      px      :     0.967430
      py      :     0.935585
      dz2     :     0.013026  d :     0.043830
      dxz     :     0.008919
      dyz     :     0.013001
      dx2y2   :     0.004327
      dxy     :     0.004558
  5 C s       :     3.152741  s :     3.152741
      pz      :     0.896951  p :     2.839228
      px      :     0.994050
      py      :     0.948228
      dz2     :     0.011267  d :     0.042513
      dxz     :     0.006555
      dyz     :     0.012959
      dx2y2   :     0.005736
      dxy     :     0.005997
  6 C s       :     3.004694  s :     3.004694
      pz      :     0.895910  p :     2.899091
      px      :     1.012260
      py      :     0.990921
      dz2     :     0.010332  d :     0.037090
      dxz     :     0.004122
      dyz     :     0.009556
      dx2y2   :     0.005569
      dxy     :     0.007511
  7 H s       :     0.938090  s :     0.938090
      pz      :     0.010621  p :     0.025218
      px      :     0.005187
      py      :     0.009410
  8 H s       :     0.927385  s :     0.927385
      pz      :     0.003841  p :     0.025443
      px      :     0.016488
      py      :     0.005114
  9 H s       :     0.924242  s :     0.924242
      pz      :     0.003438  p :     0.025442
      px      :     0.008464
      py      :     0.013540
 10 H s       :     0.944660  s :     0.944660
      pz      :     0.002708  p :     0.025302
      px      :     0.006386
      py      :     0.016208
 11 H s       :     0.934446  s :     0.934446
      pz      :     0.012714  p :     0.025258
      px      :     0.005321
      py      :     0.007224
 12 H s       :     0.935268  s :     0.935268
      pz      :     0.016335  p :     0.025206
      px      :     0.003922
      py      :     0.004949
 13 H s       :     0.933399  s :     0.933399
      pz      :     0.002750  p :     0.025263
      px      :     0.006232
      py      :     0.016281
 14 H s       :     0.943291  s :     0.943291
      pz      :     0.012575  p :     0.025325
      px      :     0.005457
      py      :     0.007293
 15 N s       :     3.203498  s :     3.203498
      pz      :     0.943395  p :     2.856223
      px      :     0.966711
      py      :     0.946116
      dz2     :     0.025411  d :     0.133762
      dxz     :     0.050896
      dyz     :     0.050668
      dx2y2   :     0.003385
      dxy     :     0.003401
 16 O s       :     3.896079  s :     3.896079
      pz      :     1.191534  p :     3.969039
      px      :     1.289368
      py      :     1.488137
      dz2     :     0.013946  d :     0.038341
      dxz     :     0.011538
      dyz     :     0.009801
      dx2y2   :     0.001525
      dxy     :     0.001530
 17 O s       :     3.895882  s :     3.895882
      pz      :     1.103757  p :     3.968814
      px      :     1.392673
      py      :     1.472384
      dz2     :     0.015444  d :     0.038363
      dxz     :     0.010846
      dyz     :     0.011136
      dx2y2   :     0.000471
      dxy     :     0.000467


                     *******************************
                     * LOEWDIN POPULATION ANALYSIS *
                     *******************************

----------------------
LOEWDIN ATOMIC CHARGES
----------------------
   0 C :   -0.025452
   1 C :   -0.034691
   2 C :   -0.022262
   3 C :   -0.039167
   4 C :   -0.021356
   5 C :   -0.038056
   6 C :   -0.025727
   7 H :    0.022785
   8 H :    0.028386
   9 H :    0.029713
  10 H :    0.023759
  11 H :    0.026729
  12 H :    0.024045
  13 H :    0.027226
  14 H :    0.024069
  15 N :    0.626138
  16 O :    0.186715
  17 O :    0.187147

-------------------------------
LOEWDIN REDUCED ORBITAL CHARGES
-------------------------------
  0 C s       :     2.857796  s :     2.857796
      pz      :     1.049630  p :     3.057044
      px      :     0.957722
      py      :     1.049692
      dz2     :     0.030312  d :     0.110612
      dxz     :     0.016430
      dyz     :     0.034318
      dx2y2   :     0.014559
      dxy     :     0.014993
  1 C s       :     2.855843  s :     2.855843
      pz      :     1.056453  p :     3.082910
      px      :     0.998965
      py      :     1.027492
      dz2     :     0.031539  d :     0.095937
      dxz     :     0.017280
      dyz     :     0.030042
      dx2y2   :     0.008191
      dxy     :     0.008884
  2 C s       :     2.855817  s :     2.855817
      pz      :     1.053279  p :     3.067862
      px      :     0.974659
      py      :     1.039924
      dz2     :     0.026716  d :     0.098583
      dxz     :     0.014364
      dyz     :     0.032122
      dx2y2   :     0.012257
      dxy     :     0.013123
  3 C s       :     2.860067  s :     2.860067
      pz      :     1.039756  p :     3.085111
      px      :     1.000916
      py      :     1.044439
      dz2     :     0.025870  d :     0.093989
      dxz     :     0.010527
      dyz     :     0.029700
      dx2y2   :     0.013819
      dxy     :     0.014073
  4 C s       :     2.856734  s :     2.856734
      pz      :     1.067555  p :     3.066723
      px      :     0.972884
      py      :     1.026284
      dz2     :     0.031359  d :     0.097899
      dxz     :     0.018591
      dyz     :     0.030534
      dx2y2   :     0.008370
      dxy     :     0.009045
  5 C s       :     2.855313  s :     2.855313
      pz      :     1.049551  p :     3.085949
      px      :     1.000501
      py      :     1.035897
      dz2     :     0.026766  d :     0.096795
      dxz     :     0.013604
      dyz     :     0.032230
      dx2y2   :     0.011737
      dxy     :     0.012458
  6 C s       :     2.828523  s :     2.828523
      pz      :     1.010786  p :     3.112688
      px      :     1.056808
      py      :     1.045094
      dz2     :     0.023689  d :     0.084517
      dxz     :     0.009309
      dyz     :     0.022237
      dx2y2   :     0.012390
      dxy     :     0.016892
  7 H s       :     0.912940  s :     0.912940
      pz      :     0.026479  p :     0.064276
      px      :     0.014512
      py      :     0.023285
  8 H s       :     0.907404  s :     0.907404
      pz      :     0.012107  p :     0.064211
      px      :     0.037876
      py      :     0.014228
  9 H s       :     0.906115  s :     0.906115
      pz      :     0.011286  p :     0.064172
      px      :     0.020829
      py      :     0.032057
 10 H s       :     0.908814  s :     0.908814
      pz      :     0.010508  p :     0.067427
      px      :     0.018629
      py      :     0.038290
 11 H s       :     0.906212  s :     0.906212
      pz      :     0.030809  p :     0.067059
      px      :     0.016209
      py      :     0.020040
 12 H s       :     0.908165  s :     0.908165
      pz      :     0.038520  p :     0.067790
      px      :     0.013769
      py      :     0.015500
 13 H s       :     0.905587  s :     0.905587
      pz      :     0.010796  p :     0.067186
      px      :     0.018063
      py      :     0.038326
 14 H s       :     0.908365  s :     0.908365
      pz      :     0.030628  p :     0.067566
      px      :     0.016826
      py      :     0.020112
 15 N s       :     3.044662  s :     3.044662
      pz      :     1.174044  p :     3.091788
      px      :     0.976028
      py      :     0.941716
      dz2     :     0.052502  d :     0.237412
      dxz     :     0.092832
      dyz     :     0.082471
      dx2y2   :     0.004875
      dxy     :     0.004732
 16 O s       :     3.601739  s :     3.601739
      pz      :     1.330291  p :     4.149515
      px      :     1.344333
      py      :     1.474891
      dz2     :     0.026175  d :     0.062031
      dxz     :     0.020672
      dyz     :     0.011372
      dx2y2   :     0.002076
      dxy     :     0.001736
 17 O s       :     3.601524  s :     3.601524
      pz      :     1.274994  p :     4.149267
      px      :     1.409432
      py      :     1.464842
      dz2     :     0.032672  d :     0.062062
      dxz     :     0.014438
      dyz     :     0.013861
      dx2y2   :     0.000524
      dxy     :     0.000567


                      *****************************
                      * MAYER POPULATION ANALYSIS *
                      *****************************

  NA   - Mulliken gross atomic population
  ZA   - Total nuclear charge
  QA   - Mulliken gross atomic charge
  VA   - Mayer's total valence
  BVA  - Mayer's bonded valence
  FA   - Mayer's free valence

  ATOM       NA         ZA         QA         VA         BVA        FA
  0 C      6.1935     6.0000    -0.1935     3.8953     3.8953    -0.0000
  1 C      6.0328     6.0000    -0.0328     3.8882     3.8882    -0.0000
  2 C      6.0287     6.0000    -0.0287     3.8822     3.8822    -0.0000
  3 C      6.0572     6.0000    -0.0572     3.8694     3.8694    -0.0000
  4 C      6.0292     6.0000    -0.0292     3.8784     3.8784     0.0000
  5 C      6.0345     6.0000    -0.0345     3.9028     3.9028    -0.0000
  6 C      5.9409     6.0000     0.0591     3.9052     3.9052     0.0000
  7 H      0.9633     1.0000     0.0367     0.9890     0.9890     0.0000
  8 H      0.9528     1.0000     0.0472     0.9790     0.9790     0.0000
  9 H      0.9497     1.0000     0.0503     0.9777     0.9777     0.0000
 10 H      0.9700     1.0000     0.0300     0.9927     0.9927     0.0000
 11 H      0.9597     1.0000     0.0403     0.9849     0.9849    -0.0000
 12 H      0.9605     1.0000     0.0395     0.9853     0.9853     0.0000
 13 H      0.9587     1.0000     0.0413     0.9851     0.9851     0.0000
 14 H      0.9686     1.0000     0.0314     0.9928     0.9928    -0.0000
 15 N      6.1935     7.0000     0.8065     3.9891     3.9891     0.0000
 16 O      7.9035     8.0000     0.0965     2.3755     2.3755     0.0000
 17 O      7.9031     8.0000     0.0969     2.3763     2.3763     0.0000

  Mayer bond orders larger than 0.100000
B(  0-C ,  1-C ) :   1.3965 B(  0-C ,  5-C ) :   1.4319 B(  0-C ,  6-C ) :   1.0034 
B(  1-C ,  2-C ) :   1.4425 B(  1-C , 10-H ) :   1.0023 B(  2-C ,  3-C ) :   1.3991 
B(  2-C , 11-H ) :   0.9990 B(  3-C ,  4-C ) :   1.4231 B(  3-C , 12-H ) :   0.9981 
B(  4-C ,  5-C ) :   1.4158 B(  4-C , 13-H ) :   0.9982 B(  5-C , 14-H ) :   0.9989 
B(  6-C ,  7-H ) :   0.9886 B(  6-C ,  8-H ) :   0.9795 B(  6-C ,  9-H ) :   0.9773 
B( 15-N , 16-O ) :   1.9942 B( 15-N , 17-O ) :   1.9950 B( 16-O , 17-O ) :   0.3813 


-------
TIMINGS
-------

Total SCF time: 0 days 0 hours 1 min 36 sec 

Total time                  ....      96.902 sec
Sum of individual times     ....      96.422 sec  ( 99.5%)

Fock matrix formation       ....      90.864 sec  ( 93.8%)
  Split-RI-J                ....      10.057 sec  ( 11.1% of F)
  Chain of spheres X        ....      80.498 sec  ( 88.6% of F)
Diagonalization             ....       0.093 sec  (  0.1%)
Density matrix formation    ....       0.014 sec  (  0.0%)
Population analysis         ....       0.095 sec  (  0.1%)
Initial guess               ....       1.062 sec  (  1.1%)
Orbital Transformation      ....       0.000 sec  (  0.0%)
Orbital Orthonormalization  ....       0.000 sec  (  0.0%)
DIIS solution               ....       0.102 sec  (  0.1%)
SOSCF solution              ....       0.081 sec  (  0.1%)

Maximum memory used throughout the entire SCF-calculation: 68.7 MB


--------------------------------------------------------------------------------
                             ORCA-MATRIX DRIVEN CI
--------------------------------------------------------------------------------


Wavefunction type
-----------------
Correlation treatment                      ...      CCSD     
Single excitations                         ... ON
Orbital optimization                       ... OFF
Calculation of Z vector                    ... OFF
Calculation of Brueckner orbitals          ... OFF
Perturbative triple excitations            ... ON
Calculation of F12 correction              ... OFF
Frozen core treatment                      ... chemical core (20 el)
Reference Wavefunction                     ... RHF
  Internal Orbitals:    10 ...   35 ( 26 MO's/ 52 electrons)
  Virtual  Orbitals:    36 ...  179 (144 MO's              )
Number of AO's                             ...    180
Number of electrons                        ...     72
Number of correlated electrons             ...     52

Algorithmic settings
--------------------
Integral transformation                    ... All integrals via the RI transformation
K(C) Formation                             ... RI-DLPNO
   PNO-Integral Storage                    ... ON DISK
   PNO occupation number cut-off           ... 3.330e-07
   Singles PNO occupation number cut-off   ... 9.990e-09
   PNO Mulliken prescreening cut-off       ... 1.000e-03
   Domain cut-off (Mulliken population)    ... 1.000e-03
   PNO Normalization                       ...    1
Maximum number of iterations               ...        50
Convergence tolerance (max. residuum)      ... 1.000e-05
Level shift for amplitude update           ... 2.000e-01
Maximum number of DIIS vectors             ...         7
DIIS turned on at iteration                ...         0
Damping before turning on DIIS             ...     0.500
Damping after turning on DIIS              ...     0.000
Pair specific amplitude update             ... OFF
Natural orbital iterations                 ... OFF
Perturbative natural orbital generation    ... OFF
Printlevel                                 ... 2

Singles Fock matrix elements calculated using PNOs.

Memory handling:
----------------
Maximum memory for working arrays          ...    512 MB
Data storage in matrix containers          ... UNCOMPRESSED
Data type for integral storage             ... DOUBLE
In-Core Storage of quantities:
   Amplitudes+Sigma Vector      ... NO
   J+K operators                ... NO
   DIIS vectors                 ... NO
   3-external integrals         ... NO
   4-external integrals         ... NO

Localization treatment:
-----------------------
Localization option                        ...    6
Localization threshhold                    ... -1.0e+00
Using relative localization threshhold     ... 1.0e-08
Neglect threshold for strong pairs         ... 1.000e-04 Eh
Prescreening threshold for very weak pairs ... 1.000e-06 Eh

Initializing the integral package          ... done
Localizing the valence orbitals
------------------------------------------------------------------------------
                           ORCA ORBITAL LOCALIZATION
------------------------------------------------------------------------------

Input orbitals are from                  ... first_job.gbw
Output orbitals are to                   ... first_job.loc
Max. number of iterations                ... 128
Localizations seeded randomly            ... off
Convergence tolerance                    ... 1.000e-06
Using relative localization threshhold   ... 1.000e-08
Treshold for strong local MOs            ... 9.500e-01
Treshold for bond MOs                    ... 8.500e-01
Operator                                 ... 0
Orbital range for localization           ... 10 to 35
Localization criterion                   ... FOSTER-BOYS (AUGMENTED HESSIAN)
Doing the dipole integrals     ... o.k.
Initial value of the localization sum : 22584.830141
ITERATION   0 : L=22660.1781681015 DL=  7.53e+01 (AVERGE_DL)=    0.4814977486 
ITERATION   1 : L=22673.3158989132 DL=  1.31e+01 (AVERGE_DL)=    0.2010566764 
ITERATION   2 : L=22674.2409334330 DL=  9.25e-01 (AVERGE_DL)=    0.0533503520 
ITERATION   3 : L=22674.6669556155 DL=  4.26e-01 (AVERGE_DL)=    0.0362054897 
ITERATION   4 : L=22674.7758207172 DL=  1.09e-01 (AVERGE_DL)=    0.0183021732 
ITERATION   5 : L=22674.8005471783 DL=  2.47e-02 (AVERGE_DL)=    0.0087224663 
ITERATION   6 : L=22674.8075339985 DL=  6.99e-03 (AVERGE_DL)=    0.0046365837 
ITERATION   7 : L=22674.8102492618 DL=  2.72e-03 (AVERGE_DL)=    0.0028904422 
ITERATION   8 : L=22674.8116591142 DL=  1.41e-03 (AVERGE_DL)=    0.0020827884 
ITERATION   9 : L=22674.8125229135 DL=  8.64e-04 (AVERGE_DL)=    0.0016302896 
ITERATION  10 : L=22674.8130881852 DL=  5.65e-04 (AVERGE_DL)=    0.0013188243 
ITERATION  11 : L=22674.8134659829 DL=  3.78e-04 (AVERGE_DL)=    0.0010781717 
ITERATION  12 : L=22674.8137199304 DL=  2.54e-04 (AVERGE_DL)=    0.0008839554 
ITERATION  13 : L=22674.8138908549 DL=  1.71e-04 (AVERGE_DL)=    0.0007252045 
ITERATION  14 : L=22674.8140059442 DL=  1.15e-04 (AVERGE_DL)=    0.0005950805 
ITERATION  15 : L=22674.8140834736 DL=  7.75e-05 (AVERGE_DL)=    0.0004884177 
ITERATION  16 : L=22674.8141357339 DL=  5.23e-05 (AVERGE_DL)=    0.0004010001 
ITERATION  17 : L=22674.8141709910 DL=  3.53e-05 (AVERGE_DL)=    0.0003293683 
ITERATION  18 : L=22674.8141948000 DL=  2.38e-05 (AVERGE_DL)=    0.0002706626 
ITERATION  19 : L=22674.8142108942 DL=  1.61e-05 (AVERGE_DL)=    0.0002225327 
ITERATION  20 : L=22674.8142217843 DL=  1.09e-05 (AVERGE_DL)=    0.0001830518 
ITERATION  21 : L=22674.8142291614 DL=  7.38e-06 (AVERGE_DL)=    0.0001506607 
ITERATION  22 : L=22674.8142341628 DL=  5.00e-06 (AVERGE_DL)=    0.0001240522 
ITERATION  23 : L=22674.8142375568 DL=  3.39e-06 (AVERGE_DL)=    0.0001021920 
ITERATION  24 : L=22674.8142398626 DL=  2.31e-06 (AVERGE_DL)=    0.0000842295 
ITERATION  25 : L=22674.8142414300 DL=  1.57e-06 (AVERGE_DL)=    0.0000694468 
ITERATION  26 : L=22674.8142424964 DL=  1.07e-06 (AVERGE_DL)=    0.0000572831 
ITERATION  27 : L=22674.8142432219 DL=  7.25e-07 (AVERGE_DL)=    0.0000472458 
LOCALIZATION SUM CONVERGED

------------------------------------------------------
AUGMENTED HESSIAN OPTIMIZATION OF FOSTER-BOYS ORBITALS
------------------------------------------------------

Spin operator:           0
Orbital window:          10 to 35
Number of iterations:    128
Gradient tolerance:      1.000e-06
Number of pairs:         325
Davidson threshold:      2000
Diagonalization method:  LAPACK
Iter:    0   L: 22674.8142432219   Grad. norm: 1.695147e-03
   *** Likely close to a maximum now. ***
       Augmented Hessian eigenvalues:  3.13e-06 -1.37e-01 -1.59e-01 -1.48e+00 ... 
Iter:    1   L: 22674.8142447872   Grad. norm: 8.271104e-06
Iter:    2   L: 22674.8142447872   Grad. norm: 3.282676e-12
LOCALIZATION HAS CONVERGED.

Eigenvalues of the Hessian:
  0 -1.373e-01
  1 -1.590e-01
  2 -1.476e+00
  3 -1.502e+00
  4 -1.912e+00
  5 -1.913e+00
  6 -2.745e+00
  7 -3.287e+00
  8 -3.436e+00
  9 -3.890e+00
    ...


--------------------------------------------------------------------------------
                    LOCALIZED MOLECULAR ORBITAL COMPOSITIONS
--------------------------------------------------------------------------------

The Mulliken populations for each LMO on each atom are computed
The LMO`s will be ordered according to atom index and type
  (A) Strongly localized MO`s have populations of >=0.950 on one atom
  (B) Two center bond orbitals have populations of >=0.850 on two atoms
  (C) Other MO`s are considered to be `delocalized`

FOUND  -   2 strongly local MO`s
       -  24 two center bond MO`s
       -   0 significantly delocalized MO`s

Rather strongly localized orbitals:
MO  11:  17O  -   0.984143
MO  10:  16O  -   0.984119
Bond-like localized orbitals:
MO  35:  17O  -   0.475263  and  15N  -   0.507970
MO  34:  17O  -   0.739035  and  15N  -   0.260991
MO  33:  17O  -   0.738878  and  15N  -   0.261150
MO  32:  16O  -   0.739077  and  15N  -   0.260944
MO  31:  16O  -   0.739285  and  15N  -   0.260731
MO  30:  16O  -   0.475058  and  15N  -   0.508170
MO  29:  14H  -   0.492775  and   5C  -   0.533991
MO  28:  13H  -   0.489712  and   4C  -   0.535976
MO  27:  12H  -   0.490819  and   3C  -   0.534748
MO  26:  11H  -   0.490345  and   2C  -   0.535873
MO  25:  10H  -   0.493573  and   1C  -   0.534995
MO  24:   9H  -   0.489713  and   6C  -   0.521894
MO  23:   8H  -   0.491174  and   6C  -   0.521657
MO  22:   7H  -   0.493921  and   6C  -   0.522585
MO  21:   6C  -   0.433474  and   0C  -   0.587495
MO  20:   5C  -   0.516746  and   4C  -   0.513650
MO  19:   5C  -   0.471723  and   0C  -   0.464063
MO  18:   5C  -   0.469347  and   0C  -   0.466476
MO  17:   4C  -   0.459248  and   3C  -   0.479549
MO  16:   4C  -   0.458835  and   3C  -   0.480041
MO  15:   3C  -   0.513830  and   2C  -   0.517210
MO  14:   2C  -   0.459705  and   1C  -   0.481658
MO  13:   2C  -   0.459421  and   1C  -   0.481132
MO  12:   1C  -   0.490508  and   0C  -   0.535727
Localized MO's were stored in: first_job.loc

Localizing the core orbitals
------------------------------------------------------------------------------
                           ORCA ORBITAL LOCALIZATION
------------------------------------------------------------------------------

Input orbitals are from                  ... first_job.loc
Output orbitals are to                   ... first_job.loc
Max. number of iterations                ... 128
Localizations seeded randomly            ... off
Convergence tolerance                    ... 1.000e-06
Using relative localization threshhold   ... 1.000e-08
Treshold for strong local MOs            ... 9.500e-01
Treshold for bond MOs                    ... 8.500e-01
Operator                                 ... 0
Orbital range for localization           ... 0 to 9
Localization criterion                   ... FOSTER-BOYS (AUGMENTED HESSIAN)
Doing the dipole integrals     ... o.k.
Initial value of the localization sum :  8503.077724
ITERATION   0 : L= 8503.0777284572 DL=  4.02e-06 (AVERGE_DL)=    0.0002989330 
ITERATION   1 : L= 8503.0777284572 DL=  0.00e+00 (AVERGE_DL)=    0.0000000000 
LOCALIZATION SUM CONVERGED

------------------------------------------------------
AUGMENTED HESSIAN OPTIMIZATION OF FOSTER-BOYS ORBITALS
------------------------------------------------------

Spin operator:           0
Orbital window:          0 to 9
Number of iterations:    128
Gradient tolerance:      1.000e-06
Number of pairs:         45
Davidson threshold:      2000
Diagonalization method:  LAPACK
Iter:    0   L: 8503.0777284572   Grad. norm: 1.693757e-06
   *** Likely close to a maximum now. ***
[...]

Calculating integrals (1.2 sec, 12.951 MB)
Sorting integrals (0.2 sec, 12.941 MB)
Total time for the integral transformation: 1.4 sec
--------------------------------
INITIAL GUESS AND PNO GENERATION
--------------------------------

PNO truncation parameters                   .... 
    PAOOverlapThresh   =        1.000e-08

    TCutPairs          =        1.000e-04
    TCutPNO            =        3.330e-07
    TCutPNOSingles     =        9.990e-09
    TCutMP2Pairs       =        1.000e-05
    TCutMKN            =        1.000e-03
    TCutDO             =        1.000e-02

Pair selection                          .... not used
Type of local MP2 treatment                 .... semi-local MP2
Strategy for PNO selection                  .... occupation number selection
Pair density normalization                  .... MP2 norm
Spin component scaling                      .... not used

   .... Finished loop over pairs

 PNO Occupation Number Statistics: 
  | Av. % of trace(Dij) retained        ...  99.245612840137
  | sigma^2 in % of trace(Dij) retained ...   1.74e+00
  | Av. % of trace(Di) retained         ...  99.999641690305
  | sigma^2 in % of trace(Di) retained  ...   5.33e-08
 Distributions of % trace(Dij) recovered:
  |       >= 99.9  ...    86 ( 41.7 % of all pairs)
  |   [90.0, 99.0) ...    45 ( 21.8 % of all pairs)
  |   [99.0, 99.9) ...    75 ( 36.4 % of all pairs)
 Distributions of % trace(Di) recovered :
  |       >= 99.9  ...    26 (100.0 % of all I-pairs )

Making pair pair interaction lists          ... done

                       ===========================
                        190 OF  206 PAIRS ARE KEPT
                       ===========================

Total time spent in the initial guess                 ...     5.891 sec
SL-MP2 correlation energy (all non-screened pairs)    ...      -1.440546798554 Eh

Initial PNO correlation energy                        ...      -1.438591551529 Eh
sum of pair energies estimated for screened out pairs ...      -0.000009129673 Eh
sum of MP2 pair energies for pairs that were not kept ...      -0.000637656976 Eh
sum of PNO error estimates for the kept pairs         ...      -0.001317590049 Eh
                                                          --------------------
sum of all corrections                                         -0.001964376698
Initial total correlation energy                               -1.440555928227
Thresholds for map construction and integral transformation for fine MP2 and CCSD(T) calculation:
   TCutMKN   ...     1.0e-03
   TCutDO    ...     1.0e-02
   TCutPairs ...     1.0e-04
   TCutCMO   ...     1.0e-03
   TCutCPAO  ...     1.0e-03

Time for aux screen maps:            0.004
Time for maps after fine MP2:            0.016
-----------------------------
LOCAL RI TRANSFORMATION (IJV)
-----------------------------

Orbital window:      10 to 35
Basis functions:    180 (84 shells)
Aux. functions:     880 (276 shells)
Use SHARK:           on

Processing maps (0.0 sec)
Average map sizes:
   Aux shells -> MOs(i)           15.6
   Aux shells -> MOs(j)           15.6
   MOs        -> AO shells        49.4

Calculating integrals (1.0 sec, 1.729 MB)
Sorting integrals (0.1 sec, 1.719 MB)
Total time for the integral transformation: 1.1 sec
--------------------------------
LOCAL RI TRANSFORMATION (VABPAO)
--------------------------------

Number of PAOs:     180
Basis functions:    180 (84 shells)
Aux. functions:     880 (276 shells)
Use SHARK:           on

Processing maps (0.0 sec)
Average map sizes:
   Aux shells -> PAOs            115.0
   PAOs       -> AO shells        54.8

Calculating integrals (2.5 sec, 97.810 MB)
Finished


-------------------------------------
Pair Pair Term precalculation with     
RI-(ij|mn) and (im|jn) transformation  
ON THE FLY                             
-------------------------------------

   IBatch   1 (of  45)              ... done (    2.713 sec)
   IBatch   2 (of  45)              ... done (    1.857 sec)
   IBatch   3 (of  45)              ... done (    1.765 sec)
   IBatch   4 (of  45)              ... done (    1.728 sec)
   IBatch   5 (of  45)              ... done (    1.770 sec)
   IBatch   6 (of  45)              ... done (    1.636 sec)
   IBatch   7 (of  45)              ... done (    2.714 sec)
   IBatch   8 (of  45)              ... done (    1.730 sec)
   IBatch   9 (of  45)              ... done (    2.722 sec)
   IBatch  10 (of  45)              ... done (    1.619 sec)
   IBatch  11 (of  45)              ... done (    1.752 sec)
   IBatch  12 (of  45)              ... done (    1.488 sec)
   IBatch  13 (of  45)              ... done (    1.716 sec)
   IBatch  14 (of  45)              ... done (    1.454 sec)
   IBatch  15 (of  45)              ... done (    2.645 sec)
   IBatch  16 (of  45)              ... done (    2.353 sec)
   IBatch  17 (of  45)              ... done (    2.462 sec)
   IBatch  18 (of  45)              ... done (    2.243 sec)
   IBatch  19 (of  45)              ... done (    3.171 sec)
   IBatch  20 (of  45)              ... done (    3.241 sec)
   IBatch  21 (of  45)              ... done (    2.141 sec)
   IBatch  22 (of  45)              ... done (    3.351 sec)
   IBatch  23 (of  45)              ... done (    4.079 sec)
   IBatch  24 (of  45)              ... done (    3.009 sec)
   IBatch  25 (of  45)              ... done (    3.403 sec)
   IBatch  26 (of  45)              ... done (    3.497 sec)
   IBatch  27 (of  45)              ... done (    3.348 sec)
   IBatch  28 (of  45)              ... done (    3.541 sec)
   IBatch  29 (of  45)              ... done (    3.321 sec)
   IBatch  30 (of  45)              ... done (    3.298 sec)
   IBatch  31 (of  45)              ... done (    3.329 sec)
   IBatch  32 (of  45)              ... done (    3.953 sec)
   IBatch  33 (of  45)              ... done (    3.120 sec)
   IBatch  34 (of  45)              ... done (    3.500 sec)
   IBatch  35 (of  45)              ... done (    3.750 sec)
   IBatch  36 (of  45)              ... done (    3.704 sec)
   IBatch  37 (of  45)              ... done (    3.673 sec)
   IBatch  38 (of  45)              ... done (    3.189 sec)
   IBatch  39 (of  45)              ... done (    3.569 sec)
   IBatch  40 (of  45)              ... done (    3.759 sec)
   IBatch  41 (of  45)              ... done (    3.872 sec)
   IBatch  42 (of  45)              ... done (    3.964 sec)
   IBatch  43 (of  45)              ... done (    4.481 sec)
   IBatch  44 (of  45)              ... done (    4.835 sec)
   IBatch  45 (of  45)              ... done (    1.738 sec)
Total EXT                           ...         130.203 sec

---------------------
RI-PNO TRANSFORMATION
---------------------

Total Number of PNOs                   ...  4959
Average number of PNOs per pair        ...    26
Maximal number of PNOs per pair        ...    49
   #pairs with  1 -  5 PNOs   :    0
   #pairs with  6 - 10 PNOs   :    0
   #pairs with 11 - 15 PNOs   :   19
   #pairs with 16 - 20 PNOs   :   20
   #pairs with 21 - 25 PNOs   :   61
   #pairs with 26 - 30 PNOs   :   53
   #pairs with 31 - 35 PNOs   :   16
   #pairs with 36 - 40 PNOs   :    4
   #pairs with 41 - 45 PNOs   :    2
   #pairs with 46 - 50 PNOs   :   15

Generation of (ij|ab)[P] integrals            ... on
Generation of (ia|bc)[P],(ja|bc)[P] integrals ... on
Storage of 3 and 4 external integrals         ... on
Generation of ALL (ka|bc)[P] integrals        ... on
Keep RI integrals in memory                   ... off

Ibatch:  1 (of  3)
Starting 2-4 index PNO integral generation ... done

Ibatch:  2 (of  3)
Starting 2-4 index PNO integral generation ... done

Ibatch:  3 (of  3)
Starting 2-4 index PNO integral generation ... done

Timings:
Total PNO integral transformation time     ...         29.725 sec
Size of the 3-external file                ...        36 MB
Size of the 4-external file                ...       163 MB
Size of the IKJL file                      ...         0 MB
Size of the all 3-external file            ...       308 MB
Size of the 1-external file                ...         1 MB

Making pair/pair overlap matrices          ... done (    3.813 sec)
Size of the pair overlap file              ... 100 MB
Redoing the guess amplitudes               ... done (    0.003 sec)

-------------------------
FINAL STARTUP INFORMATION
-------------------------

E(0)                                       ...   -472.985640876
E(SL-MP2)                                  ...     -1.440546799
E(SL-MP2) including corrections            ...     -1.440555928
Initial E(tot)                             ...   -474.426196804
<T|T>                                      ...      0.459502299
Number of pairs included                   ... 190
Total number of pairs                      ... 351

------------------------------------------------
                  RHF COUPLED CLUSTER ITERATIONS
------------------------------------------------

Number of PNO amplitudes to be optimized   ...       143833
Number of non-PNO amplitudes               ...      3939840
Untruncated number of regular amplitudes   ...      7278336

Iter       E(tot)           E(Corr)          Delta-E          Residual     Time
  0   -474.426218112     -1.438612859      0.001933939      0.021770699   25.60
                           *** Turning on DIIS ***
  1   -474.464643393     -1.477038140     -0.038425281      0.014866259   26.48
  2   -474.512339572     -1.524734320     -0.047696179      0.005798053   30.54
  3   -474.525157176     -1.537551923     -0.012817604      0.003339194   27.81
  4   -474.529350815     -1.541745562     -0.004193639      0.001854619   26.70
  5   -474.531324642     -1.543719389     -0.001973828      0.000915520   26.26
  6   -474.531764119     -1.544158867     -0.000439477      0.000436589   32.43
  7   -474.531806779     -1.544201527     -0.000042660      0.000179707   25.96
  8   -474.531839106     -1.544233853     -0.000032327      0.000087524   29.31
  9   -474.531817744     -1.544212492      0.000021362      0.000035118   25.82
 10   -474.531821977     -1.544216724     -0.000004233      0.000016611   26.96
 11   -474.531817756     -1.544212503      0.000004221      0.000006498   27.99
               --- The Coupled-Cluster iterations have converged ---

----------------------
COUPLED CLUSTER ENERGY
----------------------

E(0)                                       ...   -472.985640876
E(CORR)(strong-pairs)                      ...     -1.544212503
E(CORR)(weak-pairs)                        ...     -0.001964377
E(CORR)(corrected)                         ...     -1.546176880
E(TOT)                                     ...   -474.531817756
Singles Norm <S|S>**1/2                    ...      0.115787524  
T1 diagnostic                              ...      0.016056841  

------------------
LARGEST AMPLITUDES
------------------
  30-> 36  30-> 36       0.069985
  35-> 36  35-> 36       0.069558
  32-> 37  32-> 37       0.043211
  31-> 37  31-> 37       0.043125
  33-> 37  33-> 37       0.043039
  34-> 37  34-> 37       0.042985
  32-> 37  31-> 37       0.038497
  13-> 37  13-> 37       0.038285
  34-> 37  33-> 37       0.038203
  14-> 37  14-> 37       0.038186
  27-> 37  27-> 37       0.037352
  19-> 36  19-> 36       0.036483
  29-> 37  29-> 37       0.036141
  18-> 36  18-> 36       0.035933
  26-> 37  26-> 37       0.035460
  22-> 36  22-> 36       0.034866


-------------------------------------------
DLPNO BASED TRIPLES CORRECTION
-------------------------------------------

Singles multiplier          ...  1.000000
TCutTNO                     ... 1.000e-09
TCutMP2Pairs                ... 1.000e-05
TCutDOStrong                ... 2.000e-02
TCutMKNStrong               ... 1.000e-02
TCutDOWeak                  ... 4.000e-02
TCutMKNWeak                 ... 1.000e-01

Fragment selection                          .... not used
Number of Triples that are to be computed   ...      1144

 . . . . .             (     13.214 sec)
 . . . . .             (     11.391 sec)
 . . . . .             (     12.222 sec)
 . . . . .
10% done               (     12.022 sec)
 . . . . . . .             (     11.976 sec)
 . . . . . . .             (     12.819 sec)
 . . . . . . .
20% done               (     13.666 sec)
 . . . . . . .             (     11.976 sec)
 . . . . . . . . .             (     12.793 sec)
 . . . . . . . . .
30% done               (     12.310 sec)
 . . . . . . . . .             (     12.588 sec)
 . . . . . . .
40% done               (     12.734 sec)
 . . . . . . . . .             (     13.670 sec)
 . . . . . . . . .
50% done               (     12.770 sec)
 . . . . . . . . .             (     12.455 sec)
 . . . . . . . . .
60% done               (     16.180 sec)
 . . . . . . . . .
70% done               (     17.213 sec)
 . . . . . . . . .             (     14.695 sec)
 . . . . . . .             (     20.110 sec)
 . . . . . . .
80% done               (     14.484 sec)
 . . . . . . .
90% done               (     15.138 sec)
 . . . . . . .             (     14.058 sec)
 . . . . . . .             (      3.702 sec)
Triples timings:
Total time for T0               ...   315.754 sec
Total time for Iterative (T)    ...     0.000 sec
Total time of overall (T)       ...   315.754 sec

Triples List generation         ...     0.000 sec
TNO generation                  ...    11.552 sec
Pair density generation         ...     0.003 sec
Look up tables                  ...     0.000 sec
Generating 3-index integrals    ...   160.716 sec
  Make 4-ind.int. from 3-ind.int...    58.802 sec
  Projecting amplitudes (D + S) ...    19.199 sec
  Downprojecting integrals      ...     0.008 sec
  Energy contr. (sum over a,b,c)...    24.834 sec
Fitting ET(->0)                 ...     0.000 sec

Everything after 3-index        ...   143.470 sec

Timing details:
 TNO integrals                  ...   211.505 sec
   Reading 3-index integrals    ...     2.875 sec
   Sorting integrals            ...    58.181 sec
       Sorting integrals 1      ...     0.003 sec
       Sorting integrals 2      ...    34.207 sec
       Sorting integrals 3      ...     5.661 sec
       Sorting integrals 4      ...     0.165 sec
       Sorting integrals 5      ...     0.531 sec
       Sorting integrals 6      ...    17.614 sec
   Calculating local VM**-1/2   ...     4.076 sec
   Orthogonal. integrals        ...     5.190 sec
   Multipl. 3-index integrals   ...   141.183 sec
   All concerning IRIab (w/TNO) ...    27.836 sec

 Calculate W0/W1                ...    38.592 sec
 W 3-ext contribution           ...    14.539 sec
 W 3-int contribution           ...     5.017 sec
 Sorting W                      ...    17.509 sec

 V exchange contribution        ...    11.424 sec

 Timings for Triples without generation
     of 3-index integrals       ...   143.088 sec
       0 weak pairs             ...   131.218 sec
       1 weak pair              ...    11.870 sec
       2 weak pairs             ...     0.000 sec
       3 weak pairs             ...     0.000 sec
  Extra time for extrapolation  ...     0.000 sec

Number of Triples   (0, 1, 2, 3 weak pairs; overall):    976     168       0       0  (  1144)
Number of Atoms     (0, 1, 2, 3 weak pairs; overall):   11.5    11.5     0.0     0.0  (    18)
Number of PAOs      (0, 1, 2, 3 weak pairs; overall):  113.5   115.4     0.0     0.0  (   180)
Number of AuxFcns   (0, 1, 2, 3 weak pairs; overall):  414.2   317.6     0.0     0.0  (   880)
Number of TNOs      (0, 1, 2, 3 weak pairs         ):   59.9    52.5     0.0     0.0
Aver. Number of NTNO, Atoms, PAOs, AuxFcns / Triples:   1144    58.8    11.5   113.8   400.0

Triples Correction (T)                     ...     -0.069561129
Final correlation energy                   ...     -1.615738009
E(CCSD)                                    ...   -474.531817756
E(CCSD(T))                                 ...   -474.601378885



--------------------------------------------------------------------------------
                                    TIMINGS
--------------------------------------------------------------------------------


Total execution time                   ...      846.226 sec

Localization of occupied MO's          ...        0.951 sec (  0.1%)
Fock Matrix Formation                  ...       12.230 sec (  1.4%)
Global overlap, Fock, MKN matrices     ...        0.426 sec (  0.1%)
Differential overlap integrals         ...        3.004 sec (  0.4%)
Organizing maps                        ...        0.039 sec (  0.0%)
RI 3-index integral generations        ...        7.196 sec (  0.9%)
RI-PNO integral transformation         ...      163.899 sec ( 19.4%)
Initial Guess                          ...       10.342 sec (  1.2%)
DIIS Solver                            ...        1.471 sec (  0.2%)
State Vector Update                    ...        0.017 sec (  0.0%)
Sigma-vector construction              ...      330.371 sec ( 39.0%)
  <D|H|D>(0-ext)                       ...       27.712 sec (  8.4% of sigma)
  <D|H|D>(2-ext Fock)                  ...        0.189 sec (  0.1% of sigma)
  <D|H|D>(2-ext)                       ...       33.692 sec ( 10.2% of sigma)
  <D|H|D>(4-ext)                       ...       36.274 sec ( 11.0% of sigma)
  <D|H|D>(4-ext-corr)                  ...      110.327 sec ( 33.4% of sigma)
  CCSD doubles correction              ...        3.438 sec (  1.0% of sigma)
  <S|H|S>                              ...       10.335 sec (  3.1% of sigma)
  <S|H|D>(1-ext)                       ...        6.048 sec (  1.8% of sigma)
  <D|H|S>(1-ext)                       ...        0.271 sec (  0.1% of sigma)
  <S|H|D>(3-ext)                       ...        1.961 sec (  0.6% of sigma)
  Fock-dressing                        ...       61.556 sec ( 18.6% of sigma)
  Singles amplitudes                   ...        1.313 sec (  0.4% of sigma)
  (ik|jl)-dressing                     ...       19.251 sec (  5.8% of sigma)
  (ij|ab),(ia|jb)-dressing             ...       17.781 sec (  5.4% of sigma)
  Pair energies                        ...        0.029 sec (  0.0% of sigma)
Total Time for computing (T)           ...      315.762 sec ( 37.3% of ALL)


Maximum memory used throughout the entire MDCI-calculation: 519.1 MB

-------------------------   --------------------
FINAL SINGLE POINT ENERGY      -474.601378885180
-------------------------   --------------------


----------------------------------------------------------------------------
                           ORCA NUMERICAL GRADIENT
----------------------------------------------------------------------------

I state                        ... 1
Number of atoms                ... 18
Derivative's order of accuracy ... 2
Central differences            ... used
Number of displacements        ... 108
Numerical increment            ... 5.000e-03 bohr
Translation invariance         ... used

The output will be reduced. Please look at the following files:
SCF program output             ... >first_job.lastscf
Integral program output        ... >first_job.lastint
Gradient program output        ... >first_job.lastgrad

	<< Calculating on displaced geometry   1 (of 102) >>
	<< Calculating on displaced geometry   2 (of 102) >>
	<< Calculating on displaced geometry   3 (of 102) >>
	<< Calculating on displaced geometry   4 (of 102) >>
	<< Calculating on displaced geometry   5 (of 102) >>
	<< Calculating on displaced geometry   6 (of 102) >>
	<< Calculating on displaced geometry   7 (of 102) >>
	<< Calculating on displaced geometry   8 (of 102) >>
