
                                 *****************
                                 * O   R   C   A *
                                 *****************

                                            #,                                       
                                            ###                                      
                                            ####                                     
                                            #####                                    
                                            ######                                   
                                           ########,                                 
                                     ,,################,,,,,                         
                               ,,#################################,,                 
                          ,,##########################################,,             
                       ,#########################################, ''#####,          
                    ,#############################################,,   '####,        
                  ,##################################################,,,,####,       
                ,###########''''           ''''###############################       
              ,#####''   ,,,,##########,,,,          '''####'''          '####       
            ,##' ,,,,###########################,,,                        '##       
           ' ,,###''''                  '''############,,,                           
         ,,##''                                '''############,,,,        ,,,,,,###''
      ,#''                                            '''#######################'''  
     '                                                          ''''####''''         
             ,#######,   #######,   ,#######,      ##                                
            ,#'     '#,  ##    ##  ,#'     '#,    #''#        ######   ,####,        
            ##       ##  ##   ,#'  ##            #'  '#       #        #'  '#        
            ##       ##  #######   ##           ,######,      #####,   #    #        
            '#,     ,#'  ##    ##  '#,     ,#' ,#      #,         ##   #,  ,#        
             '#######'   ##     ##  '#######'  #'      '#     #####' # '####'        



                  #######################################################
                  #                        -***-                        #
                  #          Department of theory and spectroscopy      #
                  #    Directorship and core code : Frank Neese         #
                  #        Max Planck Institute fuer Kohlenforschung    #
                  #                Kaiser Wilhelm Platz 1               #
                  #                 D-45470 Muelheim/Ruhr               #
                  #                      Germany                        #
                  #                                                     #
                  #                  All rights reserved                #
                  #                        -***-                        #
                  #######################################################



                         Program Version 5.0.4 -  RELEASE  -

 With contributions from (in alphabetic order):
   Daniel Aravena         : Magnetic Suceptibility
   Michael Atanasov       : Ab Initio Ligand Field Theory (pilot matlab implementation)
   Alexander A. Auer      : GIAO ZORA, VPT2 properties, NMR spectrum
   Ute Becker             : Parallelization
   Giovanni Bistoni       : ED, misc. LED, open-shell LED, HFLD
   Martin Brehm           : Molecular dynamics
   Dmytro Bykov           : SCF Hessian
   Vijay G. Chilkuri      : MRCI spin determinant printing, contributions to CSF-ICE
   Dipayan Datta          : RHF DLPNO-CCSD density
   Achintya Kumar Dutta   : EOM-CC, STEOM-CC
   Dmitry Ganyushin       : Spin-Orbit,Spin-Spin,Magnetic field MRCI
   Miquel Garcia          : C-PCM and meta-GGA Hessian, CC/C-PCM, Gaussian charge scheme
   Yang Guo               : DLPNO-NEVPT2, F12-NEVPT2, CIM, IAO-localization
   Andreas Hansen         : Spin unrestricted coupled pair/coupled cluster methods
   Benjamin Helmich-Paris : MC-RPA, TRAH-SCF, COSX integrals
   Lee Huntington         : MR-EOM, pCC
   Robert Izsak           : Overlap fitted RIJCOSX, COSX-SCS-MP3, EOM
   Marcus Kettner         : VPT2
   Christian Kollmar      : KDIIS, OOCD, Brueckner-CCSD(T), CCSD density, CASPT2, CASPT2-K
   Simone Kossmann        : Meta GGA functionals, TD-DFT gradient, OOMP2, MP2 Hessian
   Martin Krupicka        : Initial AUTO-CI
   Lucas Lang             : DCDCAS
   Marvin Lechner         : AUTO-CI (C++ implementation), FIC-MRCC
   Dagmar Lenk            : GEPOL surface, SMD
   Dimitrios Liakos       : Extrapolation schemes; Compound Job, initial MDCI parallelization
   Dimitrios Manganas     : Further ROCIS development; embedding schemes
   Dimitrios Pantazis     : SARC Basis sets
   Anastasios Papadopoulos: AUTO-CI, single reference methods and gradients
   Taras Petrenko         : DFT Hessian,TD-DFT gradient, ASA, ECA, R-Raman, ABS, FL, XAS/XES, NRVS
   Peter Pinski           : DLPNO-MP2, DLPNO-MP2 Gradient
   Christoph Reimann      : Effective Core Potentials
   Marius Retegan         : Local ZFS, SOC
   Christoph Riplinger    : Optimizer, TS searches, QM/MM, DLPNO-CCSD(T), (RO)-DLPNO pert. Triples
   Tobias Risthaus        : Range-separated hybrids, TD-DFT gradient, RPA, STAB
   Michael Roemelt        : Original ROCIS implementation
   Masaaki Saitow         : Open-shell DLPNO-CCSD energy and density
   Barbara Sandhoefer     : DKH picture change effects
   Avijit Sen             : IP-ROCIS
   Kantharuban Sivalingam : CASSCF convergence, NEVPT2, FIC-MRCI
   Bernardo de Souza      : ESD, SOC TD-DFT
   Georgi Stoychev        : AutoAux, RI-MP2 NMR, DLPNO-MP2 response
   Willem Van den Heuvel  : Paramagnetic NMR
   Boris Wezisla          : Elementary symmetry handling
   Frank Wennmohs         : Technical directorship


 We gratefully acknowledge several colleagues who have allowed us to
 interface, adapt or use parts of their codes:
   Stefan Grimme, W. Hujo, H. Kruse, P. Pracht,  : VdW corrections, initial TS optimization,
                  C. Bannwarth, S. Ehlert          DFT functionals, gCP, sTDA/sTD-DF
   Ed Valeev, F. Pavosevic, A. Kumar             : LibInt (2-el integral package), F12 methods
   Garnet Chan, S. Sharma, J. Yang, R. Olivares  : DMRG
   Ulf Ekstrom                                   : XCFun DFT Library
   Mihaly Kallay                                 : mrcc  (arbitrary order and MRCC methods)
   Jiri Pittner, Ondrej Demel                    : Mk-CCSD
   Frank Weinhold                                : gennbo (NPA and NBO analysis)
   Christopher J. Cramer and Donald G. Truhlar   : smd solvation model
   Lars Goerigk                                  : TD-DFT with DH, B97 family of functionals
   V. Asgeirsson, H. Jonsson                     : NEB implementation
   FAccTs GmbH                                   : IRC, NEB, NEB-TS, DLPNO-Multilevel, CI-OPT
                                                   MM, QMMM, 2- and 3-layer-ONIOM, Crystal-QMMM,
                                                   LR-CPCM, SF, NACMEs, symmetry and pop. for TD-DFT,
                                                   nearIR, NL-DFT gradient (VV10), updates on ESD,
                                                   ML-optimized integration grids
   S Lehtola, MJT Oliveira, MAL Marques          : LibXC Library
   Liviu Ungur et al                             : ANISO software


 Your calculation uses the libint2 library for the computation of 2-el integrals
 For citations please refer to: http://libint.valeyev.net

 Your ORCA version has been built with support for libXC version: 5.1.0
 For citations please refer to: https://tddft.org/programs/libxc/

 This ORCA versions uses:
   CBLAS   interface :  Fast vector & matrix operations
   LAPACKE interface :  Fast linear algebra routines
   Shared memory     :  Shared parallel matrices


Your calculation utilizes the atom-pairwise dispersion correction
based on tight binding partial charges (D4)
Cite in your paper:
E.Caldeweyher, C.Bannwarth, S.Grimme, J.Chem.Phys., (2017), 147, 034112.
E.Caldeweyher, S.Ehlert, A.Hansen, H.Neugebauer, S.Grimme, J.Chem.Phys., (2018), in progress.
   

================================================================================

----- Orbital basis set information -----
Your calculation utilizes the basis: def2-TZVP
   F. Weigend and R. Ahlrichs, Phys. Chem. Chem. Phys. 7, 3297 (2005).

----- AuxJ basis set information -----
Your calculation utilizes the auxiliary basis: def2/J
   F. Weigend, Phys. Chem. Chem. Phys. 8, 1057 (2006).

================================================================================
                                        WARNINGS
                       Please study these warnings very carefully!
================================================================================


INFO   : the flag for use of the SHARK integral package has been found!

================================================================================
                                       INPUT FILE
================================================================================
NAME = ir_s.inp
|  1> !B3LYP DEF2-TZVP D4 FREQ 
|  2> 
|  3> %maxCore 3000
|  4> 
|  5> * xyz 0 1
|  6>   C   -0.69067567207445      1.60201142405628     -0.76257837038720
|  7>   C   -1.83005964990777      0.84365998729405     -1.44674143633121
|  8>   C   -1.23514305587821     -0.43199922577436     -2.08108062190079
|  9>   H   -2.28942507824166      1.47097173567601     -2.22222994620445
| 10>   H   -2.59612849146592      0.54760894594073     -0.72185375189903
| 11>   C   -0.54856604816688     -1.27335836753255     -1.00269156709142
| 12>   C   0.52430220234575     -0.41345138349468     -0.34090247632865
| 13>   O   -0.08272174214664      0.74234763027464      0.27769272520332
| 14>   C   -1.05399044481207      2.86992515869720     -0.01874362598378
| 15>   H   0.07957380773651      1.85276248379409     -1.49148004291119
| 16>   O   0.24491032503748      3.46716620500277      0.36449147244350
| 17>   H   -1.63772956801468      2.62291971892350      0.87453150434144
| 18>   H   -1.62504904266361      3.54237769134960     -0.67205275395695
| 19>   H   0.09516557491999      4.34852554635896      0.79302116999051
| 20>   O   -2.26108656194192     -1.30946944343499     -2.64653987214506
| 21>   H   -0.47267843897758     -0.16736303353928     -2.82242624843409
| 22>   H   -2.58709326736215     -0.89412271255351     -3.48916491962660
| 23>   N   0.04380126479759     -2.47681135859277     -1.62052057935962
| 24>   H   -1.30832455088926     -1.48845778277112     -0.23467889086270
| 25>   H   -0.56927101487059     -2.77246381198371     -2.38927138012338
| 26>   H   0.12262175613775     -3.24148785224604     -0.94232578326688
| 27>   O   1.43968350660378      0.01417903955494     -1.38654867064098
| 28>   H   1.07675449490769     -0.92932371427034      0.44525103673399
| 29>   C   2.91828586928574      1.94942812402290     -1.60156320122752
| 30>   C   3.19676393351592      1.58794971648510     -3.05661575637669
| 31>   C   4.43628494335929      0.72128705725092     -3.10742392255985
| 32>   O   4.15748685530257     -0.54624709103057     -2.42028606191037
| 33>   C   3.80984999702082     -0.35157715839531     -1.00749192107022
| 34>   C   2.64284154094591      0.64229657652790     -0.83375388608407
| 35>   C   3.41303543982966     -1.74960882564518     -0.55488411030907
| 36>   H   4.67710446353401      0.01330782783505     -0.44169085034318
| 37>   H   2.50249135555813      0.84371221492977      0.23229217733482
| 38>   O   3.05106936550630     -1.61392304891373      0.86649077944212
| 39>   H   4.26640322682899     -2.42304622411846     -0.69995186475347
| 40>   H   2.56180476813411     -2.06574846330785     -1.16822922478593
| 41>   H   2.87247431010855     -2.52542744372851      1.22089838412663
| 42>   N   3.45189905466873      2.82751176544003     -3.83900184526930
| 43>   H   2.34822102047108      1.00238802763824     -3.42409660335043
| 44>   H   2.80621727260136      3.54934521531470     -3.49524040843653
| 45>   H   3.30252831662669      2.64163767089407     -4.83549188351744
| 46>   O   4.67082927940304      0.43939767328790     -4.47322179317580
| 47>   H   5.28137466537885      1.24032162778244     -2.64564417093257
| 48>   C   6.02088486787015     -0.03308826919022     -4.79014442609054
| 49>   C   6.43181098460161     -1.32078431961364     -4.07365829749136
| 50>   C   7.68973856753682     -1.84874095438205     -4.78400680211477
| 51>   C   7.13468449402244      0.99020195152808     -4.53377470680812
| 52>   H   5.97737257734339     -0.20969094091420     -5.86756280468966
| 53>   C   6.76389474363311      2.43950678543102     -4.85781893281760
| 54>   O   8.26756616278114      0.52394150352966     -5.34637898639151
| 55>   H   7.42723123477467      0.98923055972665     -3.47389077318299
| 56>   O   6.14729632707600      3.02471960092180     -3.67952812460043
| 57>   H   6.12075251819990      2.47478928289901     -5.74895671398049
| 58>   H   7.69596169780233      2.97004979622514     -5.08440683094490
| 59>   H   5.11797181232889      3.07055249471601     -3.78599388442382
| 60>   N   8.23895411421560     -3.07096749258095     -4.16368675686061
| 61>   H   7.48095026418454     -3.76320144095720     -4.11043791666976
| 62>   H   8.55551974308029     -2.86865689151149     -3.20522491372191
| 63>   O   1.82956636076895      2.89902200868128     -1.66427879732443
| 64>   H   3.82410209184334      2.40795589544406     -1.17164418746213
| 65>   H   1.43073226317315      3.14089474075423     -0.76045442864826
| 66>   C   8.77088320703593     -0.75051608443555     -4.81777284500321
| 67>   H   7.39579034582379     -2.09580547345339     -5.80965967146710
| 68>   H   9.59210928649485     -1.05389810874217     -5.46847699214996
| 69>   H   9.15520089630024     -0.60768623005580     -3.79352606370197
| 70>   O   5.42696975139426     -2.35396231797792     -4.11176486301890
| 71>   H   6.70443794243146     -1.06341925802789     -3.03480584448207
| 72>   H   4.67197176212958     -1.97365896101332     -3.57113624401294
| 73> **                         ****END OF INPUT****
================================================================================

                       ****************************
                       * Single Point Calculation *
                       ****************************

---------------------------------
CARTESIAN COORDINATES (ANGSTROEM)
---------------------------------
  C     -0.690676    1.602011   -0.762578
  C     -1.830060    0.843660   -1.446741
  C     -1.235143   -0.431999   -2.081081
  H     -2.289425    1.470972   -2.222230
  H     -2.596128    0.547609   -0.721854
  C     -0.548566   -1.273358   -1.002692
  C      0.524302   -0.413451   -0.340902
  O     -0.082722    0.742348    0.277693
  C     -1.053990    2.869925   -0.018744
  H      0.079574    1.852762   -1.491480
  O      0.244910    3.467166    0.364491
  H     -1.637730    2.622920    0.874532
  H     -1.625049    3.542378   -0.672053
  H      0.095166    4.348526    0.793021
  O     -2.261087   -1.309469   -2.646540
  H     -0.472678   -0.167363   -2.822426
  H     -2.587093   -0.894123   -3.489165
  N      0.043801   -2.476811   -1.620521
  H     -1.308325   -1.488458   -0.234679
  H     -0.569271   -2.772464   -2.389271
  H      0.122622   -3.241488   -0.942326
  O      1.439684    0.014179   -1.386549
  H      1.076754   -0.929324    0.445251
  C      2.918286    1.949428   -1.601563
  C      3.196764    1.587950   -3.056616
  C      4.436285    0.721287   -3.107424
  O      4.157487   -0.546247   -2.420286
  C      3.809850   -0.351577   -1.007492
  C      2.642842    0.642297   -0.833754
  C      3.413035   -1.749609   -0.554884
  H      4.677104    0.013308   -0.441691
  H      2.502491    0.843712    0.232292
  O      3.051069   -1.613923    0.866491
  H      4.266403   -2.423046   -0.699952
  H      2.561805   -2.065748   -1.168229
  H      2.872474   -2.525427    1.220898
  N      3.451899    2.827512   -3.839002
  H      2.348221    1.002388   -3.424097
  H      2.806217    3.549345   -3.495240
  H      3.302528    2.641638   -4.835492
  O      4.670829    0.439398   -4.473222
  H      5.281375    1.240322   -2.645644
  C      6.020885   -0.033088   -4.790144
  C      6.431811   -1.320784   -4.073658
  C      7.689739   -1.848741   -4.784007
  C      7.134684    0.990202   -4.533775
  H      5.977373   -0.209691   -5.867563
  C      6.763895    2.439507   -4.857819
  O      8.267566    0.523942   -5.346379
  H      7.427231    0.989231   -3.473891
  O      6.147296    3.024720   -3.679528
  H      6.120753    2.474789   -5.748957
  H      7.695962    2.970050   -5.084407
  H      5.117972    3.070552   -3.785994
  N      8.238954   -3.070967   -4.163687
  H      7.480950   -3.763201   -4.110438
  H      8.555520   -2.868657   -3.205225
  O      1.829566    2.899022   -1.664279
  H      3.824102    2.407956   -1.171644
  H      1.430732    3.140895   -0.760454
  C      8.770883   -0.750516   -4.817773
  H      7.395790   -2.095805   -5.809660
  H      9.592109   -1.053898   -5.468477
  H      9.155201   -0.607686   -3.793526
  O      5.426970   -2.353962   -4.111765
  H      6.704438   -1.063419   -3.034806
  H      4.671972   -1.973659   -3.571136

----------------------------
CARTESIAN COORDINATES (A.U.)
----------------------------
  NO LB      ZA    FRAG     MASS         X           Y           Z
   0 C     6.0000    0    12.011   -1.305188    3.027363   -1.441064
   1 C     6.0000    0    12.011   -3.458312    1.594286   -2.733945
   2 C     6.0000    0    12.011   -2.334082   -0.816360   -3.932672
   3 H     1.0000    0     1.008   -4.326386    2.779734   -4.199406
   4 H     1.0000    0     1.008   -4.905972    1.034831   -1.364106
   5 C     6.0000    0    12.011   -1.036640   -2.406299   -1.894812
   6 C     6.0000    0    12.011    0.990788   -0.781310   -0.644212
   7 O     8.0000    0    15.999   -0.156321    1.402834    0.524763
   8 C     6.0000    0    12.011   -1.991753    5.423373   -0.035420
   9 H     1.0000    0     1.008    0.150373    3.501214   -2.818489
  10 O     8.0000    0    15.999    0.462813    6.551995    0.688789
  11 H     1.0000    0     1.008   -3.094860    4.956600    1.652625
  12 H     1.0000    0     1.008   -3.070898    6.694124   -1.269996
  13 H     1.0000    0     1.008    0.179837    8.217522    1.498593
  14 O     8.0000    0    15.999   -4.272834   -2.474539   -5.001236
  15 H     1.0000    0     1.008   -0.893233   -0.316270   -5.333613
  16 H     1.0000    0     1.008   -4.888898   -1.689647   -6.593566
  17 N     7.0000    0    14.007    0.082772   -4.680495   -3.062340
  18 H     1.0000    0     1.008   -2.472375   -2.812778   -0.443479
  19 H     1.0000    0     1.008   -1.075766   -5.239197   -4.515069
  20 H     1.0000    0     1.008    0.231722   -6.125524   -1.780738
  21 O     8.0000    0    15.999    2.720608    0.026795   -2.620197
  22 H     1.0000    0     1.008    2.034771   -1.756167    0.841403
  23 C     6.0000    0    12.011    5.514761    3.683885   -3.026516
  24 C     6.0000    0    12.011    6.041008    3.000790   -5.776167
  25 C     6.0000    0    12.011    8.383364    1.363035   -5.872180
  26 O     8.0000    0    15.999    7.856512   -1.032257   -4.573678
  27 C     6.0000    0    12.011    7.199573   -0.664385   -1.903884
  28 C     6.0000    0    12.011    4.994247    1.213765   -1.575567
  29 C     6.0000    0    12.011    6.449702   -3.306282   -1.048579
  30 H     1.0000    0     1.008    8.838447    0.025148   -0.834675
  31 H     1.0000    0     1.008    4.729023    1.594385    0.438969
  32 O     8.0000    0    15.999    5.765686   -3.049873    1.637430
  33 H     1.0000    0     1.008    8.062334   -4.578894   -1.322717
  34 H     1.0000    0     1.008    4.841109   -3.903699   -2.207633
  35 H     1.0000    0     1.008    5.428190   -4.772366    2.307164
  36 N     7.0000    0    14.007    6.523144    5.343223   -7.254662
  37 H     1.0000    0     1.008    4.437495    1.894239   -6.470605
  38 H     1.0000    0     1.008    5.302982    6.707290   -6.605047
  39 H     1.0000    0     1.008    6.240874    4.991972   -9.137755
  40 O     8.0000    0    15.999    8.826588    0.830341   -8.453164
  41 H     1.0000    0     1.008    9.980352    2.343868   -4.999543
  42 C     6.0000    0    12.011   11.377823   -0.062528   -9.052061
  43 C     6.0000    0    12.011   12.154361   -2.495921   -7.698099
  44 C     6.0000    0    12.011   14.531500   -3.493614   -9.040463
  45 C     6.0000    0    12.011   13.482600    1.871211   -8.567593
  46 H     1.0000    0     1.008   11.295597   -0.396258  -11.088087
  47 C     6.0000    0    12.011   12.781909    4.610000   -9.179947
  48 O     8.0000    0    15.999   15.623436    0.990106  -10.103192
  49 H     1.0000    0     1.008   14.035433    1.869375   -6.564702
  50 O     8.0000    0    15.999   11.616707    5.715892   -6.953300
  51 H     1.0000    0     1.008   11.566546    4.676674  -10.863954
  52 H     1.0000    0     1.008   14.543260    5.612581   -9.608136
  53 H     1.0000    0     1.008    9.671565    5.802503   -7.154492
  54 N     7.0000    0    14.007   15.569367   -5.803288   -7.868228
  55 H     1.0000    0     1.008   14.136947   -7.111420   -7.767602
  56 H     1.0000    0     1.008   16.167589   -5.420976   -6.056997
  57 O     8.0000    0    15.999    3.457379    5.478358   -3.145031
  58 H     1.0000    0     1.008    7.226506    4.550377   -2.214087
  59 H     1.0000    0     1.008    2.703692    5.935431   -1.437051
  60 C     6.0000    0    12.011   16.574567   -1.418270   -9.104271
  61 H     1.0000    0     1.008   13.976018   -3.960498  -10.978666
  62 H     1.0000    0     1.008   18.126460   -1.991579  -10.333924
  63 H     1.0000    0     1.008   17.300822   -1.148361   -7.168725
  64 O     8.0000    0    15.999   10.255487   -4.448344   -7.770110
  65 H     1.0000    0     1.008   12.669552   -2.009571   -5.734952
  66 H     1.0000    0     1.008    8.828747   -3.729675   -6.748469

--------------------------------
INTERNAL COORDINATES (ANGSTROEM)
--------------------------------
 C      0   0   0     0.000000000000     0.00000000     0.00000000
 C      1   0   0     1.530154192029     0.00000000     0.00000000
 C      2   1   0     1.543897141680   107.83505899     0.00000000
 H      2   1   3     1.098143458457   110.12796626   239.88638042
 H      2   1   3     1.095431350717   111.02662572   118.79165962
 C      3   2   1     1.530423518661   109.73052233    57.60650176
 C      6   3   2     1.525926310412   108.13240502   302.29630504
 O      7   6   3     1.444648556839   109.94590664    61.02309442
 C      1   2   3     1.514230163998   117.12704004   182.39366332
 H      1   2   3     1.089705466315   109.95573810    58.94373967
 O      9   1   2     1.480104461845   104.74432143   187.58181148
 H      9   1   2     1.095309777959   109.85634691    69.08436521
 H      9   1   2     1.097776456089   110.20541217   307.40337348
 H     11   9   1     0.991390680037   109.76086803   175.19786674
 O      3   2   1     1.463645525461   112.58066648   174.02761163
 H      3   2   1     1.095891392541   110.27423243   299.62489815
 H     15   3   2     0.994389385239   107.86455263    74.07817565
 N      6   3   2     1.476790717590   109.46073871   181.23426251
 H      6   3   2     1.101519047381   106.81109498    57.16769131
 H     18   6   3     1.026764718409   107.96141768   325.57897638
 H     18   6   3     1.025129743617   111.21909173   205.97561400
 O      7   6   3     1.454017425818   107.24634792   301.79893899
 H      7   6   3     1.090580186560   113.71785179   180.22188166
 C     22   7   6     2.444930513169   132.59147542   154.09881059
 C     24  22   7     1.524924460299    90.38519347   189.11084603
 C     25  24  22     1.513306964401   108.50394218   267.40945657
 O     26  25  24     1.468512727388   108.85071292    65.01345328
 C     27  26  25     1.467901581272   112.38581295   299.07962991
 C     22   7   6     1.465504339703   111.81698934   190.36476324
 C     28  27  26     1.522106489637   103.06911054   173.72580016
 H     28  27  26     1.097908108404   110.67094624   292.43279186
 H     29  22   7     1.093947276272   109.94800159   348.19356458
 O     30  28  27     1.473002595444   105.44960547   180.01751628
 H     30  28  27     1.096722008045   108.77216426    59.66620027
 H     30  28  27     1.095778333601   107.52177738   299.76083256
 H     33  30  28     0.994153512209   107.67905751   185.53245351
 N     25  24  22     1.487862895346   109.60773737   148.96323089
 H     25  24  22     1.094508903397   107.79468325    24.72431165
 H     37  25  24     1.027677195672   107.55010405   321.36624628
 H     37  25  24     1.024623439481   109.58931249   200.39588175
 O     26  25  24     1.414169895642   106.40524541   181.33899240
 H     26  25  24     1.093989973758   110.29445159   302.98607551
 C     41  26  25     1.465036864056   115.21695453   162.22299055
 C     43  41  26     1.529828017838   114.68802132    59.43998745
 C     44  43  41     1.538088102199   106.99629512   165.75158496
 C     43  41  26     1.534078849342   114.69447342   295.35146470
 H     43  41  26     1.092662887459   103.22258952   178.67587960
 C     46  43  41     1.530677693369   114.85510717   323.00092718
 O     46  43  41     1.470083465649   104.80706616   200.03197656
 H     46  43  41     1.099517390442   110.71249818    82.50746205
 O     48  46  43     1.452940768044   108.20905632    87.65509165
 H     48  46  43     1.099546871115   110.09915177   323.29399820
 H     48  46  43     1.096160010644   107.22084853   205.66117296
 H     51  48  46     1.035830376475   110.86591448   257.43695785
 N     45  44  43     1.476574544659   113.22279517   177.70986689
 H     55  45  44     1.027907152873   107.75289834    53.86587386
 H     55  45  44     1.029462229242   110.05011843   296.19926699
 O     24  22   7     1.446019349801    93.91526642   293.75604066
 H     24  22   7     1.102533947146   142.34978407    66.86109964
 H     58  24  22     1.017088759813   114.38504378    80.16223047
 C     49  46  43     1.468671046652   109.89935832   293.11325205
 H     45  44  43     1.095175895481   106.88448677   296.31860169
 H     61  49  46     1.090811080513   106.53781501   178.92959923
 H     61  49  46     1.103259680488   109.94891475   297.04712332
 O     44  43  41     1.441740195248   113.80384773    46.33094174
 H     44  43  41     1.104434992285   108.10097786   282.09284140
 H     65  44  43     1.003459969705   103.80152443   294.25948600

---------------------------
INTERNAL COORDINATES (A.U.)
---------------------------
 C      0   0   0     0.000000000000     0.00000000     0.00000000
 C      1   0   0     2.891572365607     0.00000000     0.00000000
 C      2   1   0     2.917542776719   107.83505899     0.00000000
 H      2   1   3     2.075190392241   110.12796626   239.88638042
 H      2   1   3     2.070065251367   111.02662572   118.79165962
 C      3   2   1     2.892081319181   109.73052233    57.60650176
 C      6   3   2     2.883582827224   108.13240502   302.29630504
 O      7   6   3     2.729990132189   109.94590664    61.02309442
 C      1   2   3     2.861480313679   117.12704004   182.39366332
 H      1   2   3     2.059244897972   109.95573810    58.94373967
 O      9   1   2     2.796992082483   104.74432143   187.58181148
 H      9   1   2     2.069835512149   109.85634691    69.08436521
 H      9   1   2     2.074496858275   110.20541217   307.40337348
 H     11   9   1     1.873456876991   109.76086803   175.19786674
 O      3   2   1     2.765889200261   112.58066648   174.02761163
 H      3   2   1     2.070934604425   110.27423243   299.62489815
 H     15   3   2     1.879123608580   107.86455263    74.07817565
 N      6   3   2     2.790730013363   109.46073871   181.23426251
 H      6   3   2     2.081569330848   106.81109498    57.16769131
 H     18   6   3     1.940304121765   107.96141768   325.57897638
 H     18   6   3     1.937214467173   111.21909173   205.97561400
 O      7   6   3     2.747694728745   107.24634792   301.79893899
 H      7   6   3     2.060897879679   113.71785179   180.22188166
 C     22   7   6     4.620249086357   132.59147542   154.09881059
 C     24  22   7     2.881689604884    90.38519347   189.11084603
 C     25  24  22     2.859735719274   108.50394218   267.40945657
 O     26  25  24     2.775086878942   108.85071292    65.01345328
 C     27  26  25     2.773931980154   112.38581295   299.07962991
 C     22   7   6     2.769401850112   111.81698934   190.36476324
 C     28  27  26     2.876364412078   103.06911054   173.72580016
 H     28  27  26     2.074745645095   110.67094624   292.43279186
 H     29  22   7     2.067260757102   109.94800159   348.19356458
 O     30  28  27     2.783571499944   105.44960547   180.01751628
 H     30  28  27     2.072504240249   108.77216426    59.66620027
 H     30  28  27     2.070720953990   107.52177738   299.76083256
 H     33  30  28     1.878677873151   107.67905751   185.53245351
 N     25  24  22     2.811653397027   109.60773737   148.96323089
 H     25  24  22     2.068322078560   107.79468325    24.72431165
 H     37  25  24     1.942028453897   107.55010405   321.36624628
 H     37  25  24     1.936257691016   109.58931249   200.39588175
 O     26  25  24     2.672393809600   106.40524541   181.33899240
 H     26  25  24     2.067341443658   110.29445159   302.98607551
 C     41  26  25     2.768518449165   115.21695453   162.22299055
 C     43  41  26     2.890955985714   114.68802132    59.43998745
 C     44  43  41     2.906565282999   106.99629512   165.75158496
 C     43  41  26     2.898988893098   114.69447342   295.35146470
 H     43  41  26     2.064833613997   103.22258952   178.67587960
 C     46  43  41     2.892561639770   114.85510717   323.00092718
 O     46  43  41     2.778055144082   104.80706616   200.03197656
 H     46  43  41     2.077786747418   110.71249818    82.50746205
 O     48  46  43     2.745660140412   108.20905632    87.65509165
 H     48  46  43     2.077842457817   110.09915177   323.29399820
 H     48  46  43     2.071442219073   107.22084853   205.66117296
 H     51  48  46     1.957435732734   110.86591448   257.43695785
 N     45  44  43     2.790321505725   113.22279517   177.70986689
 H     55  45  44     1.942463010029   107.75289834    53.86587386
 H     55  45  44     1.945401678484   110.05011843   296.19926699
 O     24  22   7     2.732580555475    93.91526642   293.75604066
 H     24  22   7     2.083487213458   142.34978407    66.86109964
 H     58  24  22     1.922019209937   114.38504378    80.16223047
 C     49  46  43     2.775386058991   109.89935832   293.11325205
 H     45  44  43     2.069582510931   106.88448677   296.31860169
 H     61  49  46     2.061334206016   106.53781501   178.92959923
 H     61  49  46     2.084858650719   109.94891475   297.04712332
 O     44  43  41     2.724494125285   113.80384773    46.33094174
 H     44  43  41     2.087079668138   108.10097786   282.09284140
 H     65  44  43     1.896264529096   103.80152443   294.25948600

---------------------
BASIS SET INFORMATION
---------------------
There are 4 groups of distinct atoms

 Group   1 Type C   : 11s6p2d1f contracted to 5s3p2d1f pattern {62111/411/11/1}
 Group   2 Type H   : 5s1p contracted to 3s1p pattern {311/1}
 Group   3 Type O   : 11s6p2d1f contracted to 5s3p2d1f pattern {62111/411/11/1}
 Group   4 Type N   : 11s6p2d1f contracted to 5s3p2d1f pattern {62111/411/11/1}

Atom   0C    basis set group =>   1
Atom   1C    basis set group =>   1
Atom   2C    basis set group =>   1
Atom   3H    basis set group =>   2
Atom   4H    basis set group =>   2
Atom   5C    basis set group =>   1
Atom   6C    basis set group =>   1
Atom   7O    basis set group =>   3
Atom   8C    basis set group =>   1
Atom   9H    basis set group =>   2
Atom  10O    basis set group =>   3
Atom  11H    basis set group =>   2
Atom  12H    basis set group =>   2
Atom  13H    basis set group =>   2
Atom  14O    basis set group =>   3
Atom  15H    basis set group =>   2
Atom  16H    basis set group =>   2
Atom  17N    basis set group =>   4
Atom  18H    basis set group =>   2
Atom  19H    basis set group =>   2
Atom  20H    basis set group =>   2
Atom  21O    basis set group =>   3
Atom  22H    basis set group =>   2
Atom  23C    basis set group =>   1
Atom  24C    basis set group =>   1
Atom  25C    basis set group =>   1
Atom  26O    basis set group =>   3
Atom  27C    basis set group =>   1
Atom  28C    basis set group =>   1
Atom  29C    basis set group =>   1
Atom  30H    basis set group =>   2
Atom  31H    basis set group =>   2
Atom  32O    basis set group =>   3
Atom  33H    basis set group =>   2
Atom  34H    basis set group =>   2
Atom  35H    basis set group =>   2
Atom  36N    basis set group =>   4
Atom  37H    basis set group =>   2
Atom  38H    basis set group =>   2
Atom  39H    basis set group =>   2
Atom  40O    basis set group =>   3
Atom  41H    basis set group =>   2
Atom  42C    basis set group =>   1
Atom  43C    basis set group =>   1
Atom  44C    basis set group =>   1
Atom  45C    basis set group =>   1
Atom  46H    basis set group =>   2
Atom  47C    basis set group =>   1
Atom  48O    basis set group =>   3
Atom  49H    basis set group =>   2
Atom  50O    basis set group =>   3
Atom  51H    basis set group =>   2
Atom  52H    basis set group =>   2
Atom  53H    basis set group =>   2
Atom  54N    basis set group =>   4
Atom  55H    basis set group =>   2
Atom  56H    basis set group =>   2
Atom  57O    basis set group =>   3
Atom  58H    basis set group =>   2
Atom  59H    basis set group =>   2
Atom  60C    basis set group =>   1
Atom  61H    basis set group =>   2
Atom  62H    basis set group =>   2
Atom  63H    basis set group =>   2
Atom  64O    basis set group =>   3
Atom  65H    basis set group =>   2
Atom  66H    basis set group =>   2
---------------------------------
AUXILIARY/J BASIS SET INFORMATION
---------------------------------
There are 4 groups of distinct atoms

 Group   1 Type C   : 12s5p4d2f1g contracted to 6s4p3d1f1g pattern {711111/2111/211/2/1}
 Group   2 Type H   : 5s2p1d contracted to 3s1p1d pattern {311/2/1}
 Group   3 Type O   : 12s5p4d2f1g contracted to 6s4p3d1f1g pattern {711111/2111/211/2/1}
 Group   4 Type N   : 12s5p4d2f1g contracted to 6s4p3d1f1g pattern {711111/2111/211/2/1}

Atom   0C    basis set group =>   1
Atom   1C    basis set group =>   1
Atom   2C    basis set group =>   1
Atom   3H    basis set group =>   2
Atom   4H    basis set group =>   2
Atom   5C    basis set group =>   1
Atom   6C    basis set group =>   1
Atom   7O    basis set group =>   3
Atom   8C    basis set group =>   1
Atom   9H    basis set group =>   2
Atom  10O    basis set group =>   3
Atom  11H    basis set group =>   2
Atom  12H    basis set group =>   2
Atom  13H    basis set group =>   2
Atom  14O    basis set group =>   3
Atom  15H    basis set group =>   2
Atom  16H    basis set group =>   2
Atom  17N    basis set group =>   4
Atom  18H    basis set group =>   2
Atom  19H    basis set group =>   2
Atom  20H    basis set group =>   2
Atom  21O    basis set group =>   3
Atom  22H    basis set group =>   2
Atom  23C    basis set group =>   1
Atom  24C    basis set group =>   1
Atom  25C    basis set group =>   1
Atom  26O    basis set group =>   3
Atom  27C    basis set group =>   1
Atom  28C    basis set group =>   1
Atom  29C    basis set group =>   1
Atom  30H    basis set group =>   2
Atom  31H    basis set group =>   2
Atom  32O    basis set group =>   3
Atom  33H    basis set group =>   2
Atom  34H    basis set group =>   2
Atom  35H    basis set group =>   2
Atom  36N    basis set group =>   4
Atom  37H    basis set group =>   2
Atom  38H    basis set group =>   2
Atom  39H    basis set group =>   2
Atom  40O    basis set group =>   3
Atom  41H    basis set group =>   2
Atom  42C    basis set group =>   1
Atom  43C    basis set group =>   1
Atom  44C    basis set group =>   1
Atom  45C    basis set group =>   1
Atom  46H    basis set group =>   2
Atom  47C    basis set group =>   1
Atom  48O    basis set group =>   3
Atom  49H    basis set group =>   2
Atom  50O    basis set group =>   3
Atom  51H    basis set group =>   2
Atom  52H    basis set group =>   2
Atom  53H    basis set group =>   2
Atom  54N    basis set group =>   4
Atom  55H    basis set group =>   2
Atom  56H    basis set group =>   2
Atom  57O    basis set group =>   3
Atom  58H    basis set group =>   2
Atom  59H    basis set group =>   2
Atom  60C    basis set group =>   1
Atom  61H    basis set group =>   2
Atom  62H    basis set group =>   2
Atom  63H    basis set group =>   2
Atom  64O    basis set group =>   3
Atom  65H    basis set group =>   2
Atom  66H    basis set group =>   2
------------------------------------------------------------------------------
                           ORCA GTO INTEGRAL CALCULATION
                           -- RI-GTO INTEGRALS CHOSEN --
------------------------------------------------------------------------------
------------------------------------------------------------------------------
                   ___                                                        
                  /   \      - P O W E R E D   B Y -                         
                 /     \                                                     
                 |  |  |   _    _      __       _____    __    __             
                 |  |  |  | |  | |    /  \     |  _  \  |  |  /  |          
                  \  \/   | |  | |   /    \    | | | |  |  | /  /          
                 / \  \   | |__| |  /  /\  \   | |_| |  |  |/  /          
                |  |  |   |  __  | /  /__\  \  |    /   |      \           
                |  |  |   | |  | | |   __   |  |    \   |  |\   \          
                \     /   | |  | | |  |  |  |  | |\  \  |  | \   \       
                 \___/    |_|  |_| |__|  |__|  |_| \__\ |__|  \__/        
                                                                              
                      - O R C A' S   B I G   F R I E N D -                    
                                      &                                       
                       - I N T E G R A L  F E E D E R -                       
                                                                              
 v1 FN, 2020, v2 2021                                                         
------------------------------------------------------------------------------


Reading SHARK input file ir_s.SHARKINP.tmp ... ok
----------------------
SHARK INTEGRAL PACKAGE
----------------------

Number of atoms                             ...     67
Number of basis functions                   ...   1202
Number of shells                            ...    492
Maximum angular momentum                    ...      3
Integral batch strategy                     ... SHARK/LIBINT Hybrid
RI-J (if used) integral strategy            ... SPLIT-RIJ (Revised 2003 algorithm where possible)
Printlevel                                  ...      1
Contraction scheme used                     ... SEGMENTED contraction
Coulomb Range Separation                    ... NOT USED
Exchange Range Separation                   ... NOT USED
Finite Nucleus Model                        ... NOT USED
Auxiliary Coulomb fitting basis             ... AVAILABLE
   # of basis functions in Aux-J            ...   1953
   # of shells in Aux-J                     ...    655
   Maximum angular momentum in Aux-J        ...      4
Auxiliary J/K fitting basis                 ... NOT available
Auxiliary Correlation fitting basis         ... NOT available
Auxiliary 'external' fitting basis          ... NOT available
Integral threshold                          ...     1.000000e-10
Primitive cut-off                           ...     1.000000e-11
Primitive pair pre-selection threshold      ...     1.000000e-11

Calculating pre-screening integrals         ... done (  3.4 sec) Dimension = 492
Organizing shell pair data                  ... done (  5.1 sec)
Shell pair information
Total number of shell pairs                 ...    121278
Shell pairs after pre-screening             ...     70994
Total number of primitive shell pairs       ...    362484
Primitive shell pairs kept                  ...    136350
          la=0 lb=0:  20610 shell pairs
          la=1 lb=0:  21353 shell pairs
          la=1 lb=1:   5604 shell pairs
          la=2 lb=0:   9402 shell pairs
          la=2 lb=1:   4950 shell pairs
          la=2 lb=2:   1101 shell pairs
          la=3 lb=0:   4382 shell pairs
          la=3 lb=1:   2346 shell pairs
          la=3 lb=2:   1001 shell pairs
          la=3 lb=3:    245 shell pairs

Calculating one electron integrals          ... done (  3.0 sec)
Calculating RI/J V-Matrix + Cholesky decomp.... done (  0.8 sec)
Calculating Nuclear repulsion               ... done (  0.0 sec) ENN=   3948.300494980173 Eh

SHARK setup successfully completed in  20.1 seconds

Maximum memory used throughout the entire GTOINT-calculation: 733.6 MB
-------------------------------------------------------------------------------
                                 ORCA SCF
-------------------------------------------------------------------------------

------------
SCF SETTINGS
------------
Hamiltonian:
 Density Functional     Method          .... DFT(GTOs)
 Exchange Functional    Exchange        .... B88
   X-Alpha parameter    XAlpha          ....  0.666667
   Becke's b parameter  XBeta           ....  0.004200
 Correlation Functional Correlation     .... LYP
 LDA part of GGA corr.  LDAOpt          .... VWN-5
 Gradients option       PostSCFGGA      .... off
 Hybrid DFT is turned on
   Fraction HF Exchange ScalHFX         ....  0.200000
   Scaling of DF-GGA-X  ScalDFX         ....  0.720000
   Scaling of DF-GGA-C  ScalDFC         ....  0.810000
   Scaling of DF-LDA-C  ScalLDAC        ....  1.000000
   Perturbative correction              ....  0.000000
   Density functional embedding theory  .... OFF
   NL short-range parameter             ....  4.800000
 RI-approximation to the Coulomb term is turned on
   Number of AuxJ basis functions       .... 1953
   RIJ-COSX (HFX calculated with COS-X)).... on


General Settings:
 Integral files         IntName         .... ir_s
 Hartree-Fock type      HFTyp           .... RHF
 Total Charge           Charge          ....    0
 Multiplicity           Mult            ....    1
 Number of Electrons    NEL             ....  252
 Basis Dimension        Dim             .... 1202
 Nuclear Repulsion      ENuc            ....   3948.3004949802 Eh

Convergence Acceleration:
 DIIS                   CNVDIIS         .... on
   Start iteration      DIISMaxIt       ....    12
   Startup error        DIISStart       ....  0.200000
   # of expansion vecs  DIISMaxEq       ....     5
   Bias factor          DIISBfac        ....   1.050
   Max. coefficient     DIISMaxC        ....  10.000
 Trust-Rad. Augm. Hess. CNVTRAH         .... auto
   Auto Start mean grad. ratio tolernc. ....  1.125000
   Auto Start start iteration           ....    20
   Auto Start num. interpolation iter.  ....    10
   Max. Number of Micro iterations      ....    16
   Max. Number of Macro iterations      .... Maxiter - #DIIS iter
   Number of Davidson start vectors     ....     2
   Converg. threshold I  (grad. norm)   ....   5.000e-05
   Converg. threshold II (energy diff.) ....   1.000e-06
   Grad. Scal. Fac. for Micro threshold ....   0.100
   Minimum threshold for Micro iter.    ....   0.010
   NR start threshold (gradient norm)   ....   0.001
   Initial trust radius                 ....   0.400
   Minimum AH scaling param. (alpha)    ....   1.000
   Maximum AH scaling param. (alpha)    .... 1000.000
   Orbital update algorithm             .... Taylor
   White noise on init. David. guess    .... on
   Maximum white noise                  ....   0.010
   Quad. conv. algorithm                .... NR
 SOSCF                  CNVSOSCF        .... on
   Start iteration      SOSCFMaxIt      ....   150
   Startup grad/error   SOSCFStart      ....  0.003300
 Level Shifting         CNVShift        .... on
   Level shift para.    LevelShift      ....    0.2500
   Turn off err/grad.   ShiftErr        ....    0.0010
 Zerner damping         CNVZerner       .... off
 Static damping         CNVDamp         .... on
   Fraction old density DampFac         ....    0.7000
   Max. Damping (<1)    DampMax         ....    0.9800
   Min. Damping (>=0)   DampMin         ....    0.0000
   Turn off err/grad.   DampErr         ....    0.1000
 Fernandez-Rico         CNVRico         .... off

SCF Procedure:
 Maximum # iterations   MaxIter         ....   125
 SCF integral mode      SCFMode         .... Direct
   Integral package                     .... SHARK and LIBINT hybrid scheme
 Reset frequency        DirectResetFreq ....    20
 Integral Threshold     Thresh          ....  1.000e-10 Eh
 Primitive CutOff       TCut            ....  1.000e-11 Eh

Convergence Tolerance:
 Convergence Check Mode ConvCheckMode   .... Total+1el-Energy
 Convergence forced     ConvForced      .... 0
 Energy Change          TolE            ....  1.000e-06 Eh
 1-El. energy change                    ....  1.000e-03 Eh
 Orbital Gradient       TolG            ....  5.000e-05
 Orbital Rotation angle TolX            ....  5.000e-05
 DIIS Error             TolErr          ....  1.000e-06


Diagonalization of the overlap matrix:
Smallest eigenvalue                        ... 2.280e-05
Time for diagonalization                   ...    1.680 sec
Threshold for overlap eigenvalues          ... 1.000e-08
Number of eigenvalues below threshold      ... 0
Time for construction of square roots      ...    0.791 sec
Total time needed                          ...    2.477 sec

Time for model grid setup =   16.533 sec

------------------------------
INITIAL GUESS: MODEL POTENTIAL
------------------------------
Loading Hartree-Fock densities                     ... done
Calculating cut-offs                               ... done
Initializing the effective Hamiltonian             ... done
Setting up the integral package (SHARK)            ... done
Starting the Coulomb interaction                   ... done (  41.1 sec)
Reading the grid                                   ... done
Mapping shells                                     ... done
Starting the XC term evaluation                    ... done (  13.8 sec)
  promolecular density results
     # of electrons  =    251.976072079
     EX              =   -212.867954271
     EC              =     -8.747262656
     EX+EC           =   -221.615216927
Transforming the Hamiltonian                       ... done (   0.5 sec)
Diagonalizing the Hamiltonian                      ... done (   1.4 sec)
Back transforming the eigenvectors                 ... done (   0.3 sec)
Now organizing SCF variables                       ... done
                      ------------------
                      INITIAL GUESS DONE (  73.9 sec)
                      ------------------
-------------------
DFT GRID GENERATION
-------------------

General Integration Accuracy     IntAcc      ... 4.388
Radial Grid Type                 RadialGrid  ... OptM3 with GC (2021)
Angular Grid (max. ang.)         AngularGrid ... 4 (Lebedev-302)
Angular grid pruning method      GridPruning ... 4 (adaptive)
Weight generation scheme         WeightScheme... Becke
Basis function cutoff            BFCut       ... 1.0000e-10
Integration weight cutoff        WCut        ... 1.0000e-14
Angular grids for H and He will be reduced by one unit
Partially contracted basis set               ... off
Rotationally invariant grid construction     ... off

Total number of grid points                  ...   300208
Total number of batches                      ...     4721
Average number of points per batch           ...       63
Average number of grid points per atom       ...     4481
Time for grid setup =   45.007 sec

--------------------
COSX GRID GENERATION
--------------------

GRIDX 1
-------
General Integration Accuracy     IntAcc      ... 3.816
Radial Grid Type                 RadialGrid  ... OptM3 with GC (2021)
Angular Grid (max. ang.)         AngularGrid ... 1 (Lebedev-50)
Angular grid pruning method      GridPruning ... 4 (adaptive)
Weight generation scheme         WeightScheme... Becke
Basis function cutoff            BFCut       ... 1.0000e-10
Integration weight cutoff        WCut        ... 1.0000e-14
Angular grids for H and He will be reduced by one unit
Partially contracted basis set               ... on
Rotationally invariant grid construction     ... off

Total number of grid points                  ...    38055
Total number of batches                      ...      630
Average number of points per batch           ...       60
Average number of grid points per atom       ...      568
UseSFitting                                  ... on

GRIDX 2
-------
General Integration Accuracy     IntAcc      ... 4.020
Radial Grid Type                 RadialGrid  ... OptM3 with GC (2021)
Angular Grid (max. ang.)         AngularGrid ... 2 (Lebedev-110)
Angular grid pruning method      GridPruning ... 4 (adaptive)
Weight generation scheme         WeightScheme... Becke
Basis function cutoff            BFCut       ... 1.0000e-10
Integration weight cutoff        WCut        ... 1.0000e-14
Angular grids for H and He will be reduced by one unit
Partially contracted basis set               ... on
Rotationally invariant grid construction     ... off

Total number of grid points                  ...    80346
Total number of batches                      ...     1294
Average number of points per batch           ...       62
Average number of grid points per atom       ...     1199
UseSFitting                                  ... on

GRIDX 3
-------
General Integration Accuracy     IntAcc      ... 4.338
Radial Grid Type                 RadialGrid  ... OptM3 with GC (2021)
Angular Grid (max. ang.)         AngularGrid ... 3 (Lebedev-194)
Angular grid pruning method      GridPruning ... 4 (adaptive)
Weight generation scheme         WeightScheme... Becke
Basis function cutoff            BFCut       ... 1.0000e-10
Integration weight cutoff        WCut        ... 1.0000e-14
Angular grids for H and He will be reduced by one unit
Partially contracted basis set               ... on
Rotationally invariant grid construction     ... off

Total number of grid points                  ...   174609
Total number of batches                      ...     2761
Average number of points per batch           ...       63
Average number of grid points per atom       ...     2606
UseSFitting                                  ... on

Time for X-Grid setup             =   71.483 sec

--------------
SCF ITERATIONS
--------------
ITER       Energy         Delta-E        Max-DP      RMS-DP      [F,P]     Damp
               ***  Starting incremental Fock matrix formation  ***
  0  -1697.3822118826   0.000000000000 0.39532758  0.00118429  0.2683633 0.7000
  1  -1697.8436438156  -0.461431933047 0.31510855  0.00095985  0.1195212 0.7000
                               ***Turning on DIIS***
  2  -1698.0094363327  -0.165792517082 0.29482154  0.00121584  0.0323929 0.0000
  3  -1698.2926401794  -0.283203846717 0.30329660  0.00086386  0.0715720 0.0000
  4  -1698.3469940220  -0.054353842569 0.06785320  0.00024268  0.0114048 0.0000
  5  -1698.3494218302  -0.002427808211 0.02099881  0.00007633  0.0042482 0.0000
                      *** Initiating the SOSCF procedure ***
                           *** Shutting down DIIS ***
                      *** Re-Reading the Fockian *** 
                      *** Removing any level shift *** 
ITER      Energy       Delta-E        Grad      Rot      Max-DP    RMS-DP
  6  -1698.34967229  -0.0002504586  0.000158  0.000158  0.011122  0.000038
               *** Restarting incremental Fock matrix formation ***
  7  -1698.34966674   0.0000055442  0.000154  0.000252  0.003913  0.000015
  8  -1698.34965641   0.0000103392  0.000238  0.000161  0.003035  0.000009
                  ***Gradient check signals convergence***
              ***Rediagonalizing the Fockian in SOSCF/NRSCF***

               *****************************************************
               *                     SUCCESS                       *
               *           SCF CONVERGED AFTER   9 CYCLES          *
               *****************************************************

Old exchange energy                            =    -43.224060889 Eh
New exchange energy                            =    -43.224098677 Eh
Exchange energy change after final integration =     -0.000037788 Eh
Total energy after final integration           =  -1698.349711468 Eh
Final COS-X integration done in                =  2080.581 sec

----------------
TOTAL SCF ENERGY
----------------

Total Energy       :        -1698.34971147 Eh          -46214.44515 eV

Components:
Nuclear Repulsion  :         3948.30049498 Eh          107438.71855 eV
Electronic Energy  :        -5646.65020645 Eh         -153653.16369 eV
One Electron Energy:       -10187.87551625 Eh         -277226.18670 eV
Two Electron Energy:         4541.22530980 Eh          123573.02301 eV
Max COSX asymmetry :            0.00000275 Eh               0.00007 eV

Virial components:
Potential Energy   :        -3388.43315115 Eh          -92203.95360 eV
Kinetic Energy     :         1690.08343968 Eh           45989.50846 eV
Virial Ratio       :            2.00489104


DFT components:
N(Alpha)           :      126.000388994204 electrons
N(Beta)            :      126.000388994204 electrons
N(Total)           :      252.000777988408 electrons
E(X)               :     -171.903350402150 Eh       
E(C)               :      -10.259961775367 Eh       
E(XC)              :     -182.163312177517 Eh       
DFET-embed. en.    :        0.000000000000 Eh       

---------------
SCF CONVERGENCE
---------------

  Last Energy change         ...   -1.7274e-05  Tolerance :   1.0000e-06
  Last MAX-Density change    ...    2.5535e-15  Tolerance :   1.0000e-05
  Last RMS-Density change    ...    1.2349e-17  Tolerance :   1.0000e-06
  Last Orbital Gradient      ...    1.0160e-05  Tolerance :   5.0000e-05
  Last Orbital Rotation      ...    1.5827e-05  Tolerance :   5.0000e-05

             **** THE GBW FILE WAS UPDATED (ir_s.gbw) ****
             **** DENSITY ir_s.scfp WAS UPDATED ****
             **** ENERGY FILE WAS UPDATED (ir_s.en.tmp) ****
             **** THE GBW FILE WAS UPDATED (ir_s.gbw) ****
             **** DENSITY ir_s.scfp WAS UPDATED ****
----------------
ORBITAL ENERGIES
----------------

  NO   OCC          E(Eh)            E(eV) 
   0   2.0000     -19.163810      -521.4738 
   1   2.0000     -19.144156      -520.9390 
   2   2.0000     -19.143393      -520.9182 
   3   2.0000     -19.140756      -520.8464 
   4   2.0000     -19.139519      -520.8128 
   5   2.0000     -19.134027      -520.6633 
   6   2.0000     -19.133976      -520.6619 
   7   2.0000     -19.122754      -520.3566 
   8   2.0000     -19.120151      -520.2858 
   9   2.0000     -19.105302      -519.8817 
  10   2.0000     -19.082675      -519.2660 
  11   2.0000     -14.315270      -389.5383 
  12   2.0000     -14.297737      -389.0612 
  13   2.0000     -14.286661      -388.7598 
  14   2.0000     -10.268448      -279.4187 
  15   2.0000     -10.264751      -279.3181 
  16   2.0000     -10.242393      -278.7097 
  17   2.0000     -10.237464      -278.5756 
  18   2.0000     -10.233014      -278.4545 
  19   2.0000     -10.232831      -278.4495 
  20   2.0000     -10.232334      -278.4360 
  21   2.0000     -10.225553      -278.2514 
  22   2.0000     -10.222383      -278.1652 
  23   2.0000     -10.214120      -277.9403 
  24   2.0000     -10.210864      -277.8517 
  25   2.0000     -10.209661      -277.8190 
  26   2.0000     -10.208541      -277.7885 
  27   2.0000     -10.205376      -277.7024 
  28   2.0000     -10.203175      -277.6425 
  29   2.0000     -10.198182      -277.5066 
  30   2.0000     -10.191638      -277.3286 
  31   2.0000     -10.184205      -277.1263 
  32   2.0000      -1.066908       -29.0320 
  33   2.0000      -1.059091       -28.8193 
  34   2.0000      -1.038988       -28.2723 
  35   2.0000      -1.022446       -27.8222 
  36   2.0000      -1.020261       -27.7627 
  37   2.0000      -1.013320       -27.5738 
  38   2.0000      -1.008473       -27.4419 
  39   2.0000      -1.002689       -27.2845 
  40   2.0000      -0.991058       -26.9681 
  41   2.0000      -0.990358       -26.9490 
  42   2.0000      -0.963486       -26.2178 
  43   2.0000      -0.893878       -24.3237 
  44   2.0000      -0.883572       -24.0432 
  45   2.0000      -0.871362       -23.7110 
  46   2.0000      -0.801963       -21.8225 
  47   2.0000      -0.792423       -21.5629 
  48   2.0000      -0.780888       -21.2490 
  49   2.0000      -0.759345       -20.6628 
  50   2.0000      -0.758270       -20.6336 
  51   2.0000      -0.739965       -20.1355 
  52   2.0000      -0.700623       -19.0649 
  53   2.0000      -0.687726       -18.7140 
  54   2.0000      -0.667347       -18.1594 
  55   2.0000      -0.653009       -17.7693 
  56   2.0000      -0.644771       -17.5451 
  57   2.0000      -0.615748       -16.7554 
  58   2.0000      -0.611411       -16.6373 
  59   2.0000      -0.603653       -16.4262 
  60   2.0000      -0.589233       -16.0338 
  61   2.0000      -0.579964       -15.7816 
  62   2.0000      -0.576354       -15.6834 
  63   2.0000      -0.566520       -15.4158 
  64   2.0000      -0.543236       -14.7822 
  65   2.0000      -0.535405       -14.5691 
  66   2.0000      -0.528786       -14.3890 
  67   2.0000      -0.523522       -14.2458 
  68   2.0000      -0.518922       -14.1206 
  69   2.0000      -0.511067       -13.9069 
  70   2.0000      -0.502242       -13.6667 
  71   2.0000      -0.501135       -13.6366 
  72   2.0000      -0.497700       -13.5431 
  73   2.0000      -0.491725       -13.3805 
  74   2.0000      -0.489670       -13.3246 
  75   2.0000      -0.488870       -13.3028 
  76   2.0000      -0.480507       -13.0753 
  77   2.0000      -0.473555       -12.8861 
  78   2.0000      -0.466822       -12.7029 
  79   2.0000      -0.463334       -12.6080 
  80   2.0000      -0.453865       -12.3503 
  81   2.0000      -0.450497       -12.2587 
  82   2.0000      -0.443529       -12.0690 
  83   2.0000      -0.436263       -11.8713 
  84   2.0000      -0.433285       -11.7903 
  85   2.0000      -0.431133       -11.7317 
  86   2.0000      -0.426001       -11.5921 
  87   2.0000      -0.423680       -11.5289 
  88   2.0000      -0.416832       -11.3426 
  89   2.0000      -0.415898       -11.3172 
  90   2.0000      -0.409120       -11.1327 
  91   2.0000      -0.407883       -11.0991 
  92   2.0000      -0.398907       -10.8548 
  93   2.0000      -0.396357       -10.7854 
  94   2.0000      -0.394444       -10.7334 
  95   2.0000      -0.392072       -10.6688 
  96   2.0000      -0.388173       -10.5627 
  97   2.0000      -0.385267       -10.4837 
  98   2.0000      -0.375782       -10.2255 
  99   2.0000      -0.374424       -10.1886 
 100   2.0000      -0.368419       -10.0252 
 101   2.0000      -0.364575        -9.9206 
 102   2.0000      -0.361359        -9.8331 
 103   2.0000      -0.355841        -9.6829 
 104   2.0000      -0.340935        -9.2773 
 105   2.0000      -0.340578        -9.2676 
 106   2.0000      -0.334731        -9.1085 
 107   2.0000      -0.329004        -8.9527 
 108   2.0000      -0.322360        -8.7719 
 109   2.0000      -0.316966        -8.6251 
 110   2.0000      -0.315964        -8.5978 
 111   2.0000      -0.313204        -8.5227 
 112   2.0000      -0.308312        -8.3896 
 113   2.0000      -0.297639        -8.0992 
 114   2.0000      -0.295587        -8.0433 
 115   2.0000      -0.294485        -8.0134 
 116   2.0000      -0.291221        -7.9245 
 117   2.0000      -0.287477        -7.8226 
 118   2.0000      -0.269524        -7.3341 
 119   2.0000      -0.267882        -7.2894 
 120   2.0000      -0.264423        -7.1953 
 121   2.0000      -0.260972        -7.1014 
 122   2.0000      -0.249957        -6.8017 
 123   2.0000      -0.244969        -6.6660 
 124   2.0000      -0.237263        -6.4563 
 125   2.0000      -0.231766        -6.3067 
 126   0.0000       0.002051         0.0558 
 127   0.0000       0.005551         0.1511 
 128   0.0000       0.014512         0.3949 
 129   0.0000       0.027453         0.7470 
 130   0.0000       0.035819         0.9747 
 131   0.0000       0.037069         1.0087 
 132   0.0000       0.044996         1.2244 
 133   0.0000       0.047622         1.2958 
 134   0.0000       0.053844         1.4652 
 135   0.0000       0.061504         1.6736 
 136   0.0000       0.066267         1.8032 
 137   0.0000       0.068163         1.8548 
 138   0.0000       0.072435         1.9711 
 139   0.0000       0.074696         2.0326 
 140   0.0000       0.081118         2.2073 
 141   0.0000       0.085986         2.3398 
 142   0.0000       0.091466         2.4889 
 143   0.0000       0.094632         2.5751 
 144   0.0000       0.097968         2.6658 
 145   0.0000       0.103047         2.8041 
 146   0.0000       0.106455         2.8968 
 147   0.0000       0.108739         2.9590 
 148   0.0000       0.112980         3.0743 
 149   0.0000       0.116956         3.1825 
 150   0.0000       0.118160         3.2153 
 151   0.0000       0.119496         3.2517 
 152   0.0000       0.121245         3.2993 
 153   0.0000       0.123821         3.3693 
 154   0.0000       0.127589         3.4719 
 155   0.0000       0.130366         3.5474 
 156   0.0000       0.135239         3.6800 
 157   0.0000       0.138724         3.7749 
 158   0.0000       0.142529         3.8784 
 159   0.0000       0.143989         3.9181 
 160   0.0000       0.149457         4.0669 
 161   0.0000       0.151758         4.1295 
 162   0.0000       0.155565         4.2332 
 163   0.0000       0.157877         4.2961 
 164   0.0000       0.162906         4.4329 
 165   0.0000       0.164260         4.4698 
 166   0.0000       0.167489         4.5576 
 167   0.0000       0.170725         4.6457 
 168   0.0000       0.172697         4.6993 
 169   0.0000       0.175025         4.7627 
 170   0.0000       0.177309         4.8248 
 171   0.0000       0.181220         4.9313 
 172   0.0000       0.187054         5.0900 
 173   0.0000       0.195646         5.3238 
 174   0.0000       0.198558         5.4030 
 175   0.0000       0.200666         5.4604 
 176   0.0000       0.201748         5.4899 
 177   0.0000       0.205465         5.5910 
 178   0.0000       0.210310         5.7228 
 179   0.0000       0.212111         5.7718 
 180   0.0000       0.217252         5.9117 
 181   0.0000       0.218986         5.9589 
 182   0.0000       0.221332         6.0227 
 183   0.0000       0.224235         6.1017 
 184   0.0000       0.228437         6.2161 
 185   0.0000       0.234254         6.3744 
 186   0.0000       0.236609         6.4385 
 187   0.0000       0.238469         6.4891 
 188   0.0000       0.242646         6.6027 
 189   0.0000       0.249079         6.7778 
 190   0.0000       0.250585         6.8188 
 191   0.0000       0.255647         6.9565 
 192   0.0000       0.260376         7.0852 
 193   0.0000       0.267583         7.2813 
 194   0.0000       0.268470         7.3054 
 195   0.0000       0.275974         7.5096 
 196   0.0000       0.276657         7.5282 
 197   0.0000       0.277536         7.5521 
 198   0.0000       0.282930         7.6989 
 199   0.0000       0.288042         7.8380 
 200   0.0000       0.294636         8.0174 
 201   0.0000       0.297391         8.0924 
 202   0.0000       0.302268         8.2251 
 203   0.0000       0.305456         8.3119 
 204   0.0000       0.312095         8.4925 
 205   0.0000       0.317301         8.6342 
 206   0.0000       0.318178         8.6581 
 207   0.0000       0.319802         8.7023 
 208   0.0000       0.321859         8.7582 
 209   0.0000       0.324351         8.8260 
 210   0.0000       0.330656         8.9976 
 211   0.0000       0.333999         9.0886 
 212   0.0000       0.334837         9.1114 
 213   0.0000       0.336386         9.1535 
 214   0.0000       0.342718         9.3258 
 215   0.0000       0.346220         9.4211 
 216   0.0000       0.351255         9.5581 
 217   0.0000       0.355213         9.6658 
 218   0.0000       0.355592         9.6762 
 219   0.0000       0.358302         9.7499 
 220   0.0000       0.361343         9.8326 
 221   0.0000       0.364030         9.9058 
 222   0.0000       0.364546         9.9198 
 223   0.0000       0.372995        10.1497 
 224   0.0000       0.374847        10.2001 
 225   0.0000       0.375572        10.2198 
 226   0.0000       0.378066        10.2877 
 227   0.0000       0.380133        10.3440 
 228   0.0000       0.382959        10.4208 
 229   0.0000       0.386692        10.5224 
 230   0.0000       0.390925        10.6376 
 231   0.0000       0.391968        10.6660 
 232   0.0000       0.394998        10.7484 
 233   0.0000       0.397145        10.8069 
 234   0.0000       0.399820        10.8797 
 235   0.0000       0.401712        10.9312 
 236   0.0000       0.405826        11.0431 
 237   0.0000       0.409800        11.1512 
 238   0.0000       0.412502        11.2247 
 239   0.0000       0.415759        11.3134 
 240   0.0000       0.417953        11.3731 
 241   0.0000       0.420940        11.4544 
 242   0.0000       0.424003        11.5377 
 243   0.0000       0.425672        11.5831 
 244   0.0000       0.430804        11.7228 
 245   0.0000       0.432519        11.7694 
 246   0.0000       0.433118        11.7857 
 247   0.0000       0.434872        11.8335 
 248   0.0000       0.436314        11.8727 
 249   0.0000       0.438454        11.9309 
 250   0.0000       0.442555        12.0425 
 251   0.0000       0.446106        12.1392 
 252   0.0000       0.447150        12.1676 
 253   0.0000       0.449296        12.2260 
 254   0.0000       0.452824        12.3220 
 255   0.0000       0.454521        12.3681 
 256   0.0000       0.458725        12.4825 
 257   0.0000       0.461562        12.5597 
 258   0.0000       0.463123        12.6022 
 259   0.0000       0.467101        12.7105 
 260   0.0000       0.468788        12.7564 
 261   0.0000       0.471398        12.8274 
 262   0.0000       0.475106        12.9283 
 263   0.0000       0.477658        12.9977 
 264   0.0000       0.479998        13.0614 
 265   0.0000       0.485594        13.2137 
 266   0.0000       0.486176        13.2295 
 267   0.0000       0.487426        13.2635 
 268   0.0000       0.494527        13.4568 
 269   0.0000       0.498459        13.5638 
 270   0.0000       0.501317        13.6415 
 271   0.0000       0.502676        13.6785 
 272   0.0000       0.505197        13.7471 
 273   0.0000       0.510417        13.8891 
 274   0.0000       0.514230        13.9929 
 275   0.0000       0.519926        14.1479 
 276   0.0000       0.520477        14.1629 
 277   0.0000       0.524543        14.2735 
 278   0.0000       0.525868        14.3096 
 279   0.0000       0.530960        14.4482 
 280   0.0000       0.538584        14.6556 
 281   0.0000       0.543714        14.7952 
 282   0.0000       0.545362        14.8401 
 283   0.0000       0.548108        14.9148 
 284   0.0000       0.555280        15.1099 
 285   0.0000       0.558118        15.1872 
 286   0.0000       0.559296        15.2192 
 287   0.0000       0.566022        15.4023 
 288   0.0000       0.567906        15.4535 
 289   0.0000       0.574926        15.6445 
 290   0.0000       0.576863        15.6972 
 291   0.0000       0.580103        15.7854 
 292   0.0000       0.586141        15.9497 
 293   0.0000       0.589906        16.0522 
 294   0.0000       0.596917        16.2429 
 295   0.0000       0.598829        16.2950 
 296   0.0000       0.607040        16.5184 
 297   0.0000       0.612568        16.6688 
 298   0.0000       0.620062        16.8728 
 299   0.0000       0.623063        16.9544 
 300   0.0000       0.628321        17.0975 
 301   0.0000       0.631565        17.1857 
 302   0.0000       0.632285        17.2054 
 303   0.0000       0.636975        17.3330 
 304   0.0000       0.646025        17.5792 
 305   0.0000       0.654577        17.8120 
 306   0.0000       0.657566        17.8933 
 307   0.0000       0.660346        17.9689 
 308   0.0000       0.667797        18.1717 
 309   0.0000       0.670647        18.2492 
 310   0.0000       0.677205        18.4277 
 311   0.0000       0.682589        18.5742 
 312   0.0000       0.685344        18.6492 
 313   0.0000       0.692428        18.8419 
 314   0.0000       0.696842        18.9620 
 315   0.0000       0.702607        19.1189 
 316   0.0000       0.705573        19.1996 
 317   0.0000       0.708614        19.2824 
 318   0.0000       0.717073        19.5125 
 319   0.0000       0.721713        19.6388 
 320   0.0000       0.725805        19.7502 
 321   0.0000       0.731315        19.9001 
 322   0.0000       0.733681        19.9645 
 323   0.0000       0.738904        20.1066 
 324   0.0000       0.754245        20.5240 
 325   0.0000       0.754954        20.5433 
 326   0.0000       0.760306        20.6890 
 327   0.0000       0.765710        20.8360 
 328   0.0000       0.770102        20.9555 
 329   0.0000       0.775233        21.0952 
 330   0.0000       0.782968        21.3057 
 331   0.0000       0.784700        21.3528 
 332   0.0000       0.787984        21.4421 
 333   0.0000       0.792230        21.5577 
 334   0.0000       0.798712        21.7341 
 335   0.0000       0.801498        21.8099 
 336   0.0000       0.804545        21.8928 
 337   0.0000       0.812544        22.1104 
 338   0.0000       0.815942        22.2029 
 339   0.0000       0.821817        22.3628 
 340   0.0000       0.822400        22.3786 
 341   0.0000       0.829723        22.5779 
 342   0.0000       0.838846        22.8262 
 343   0.0000       0.840801        22.8794 
 344   0.0000       0.843717        22.9587 
 345   0.0000       0.848261        23.0824 
 346   0.0000       0.852702        23.2032 
 347   0.0000       0.855294        23.2737 
 348   0.0000       0.857002        23.3202 
 349   0.0000       0.863327        23.4923 
 350   0.0000       0.867780        23.6135 
 351   0.0000       0.873366        23.7655 
 352   0.0000       0.880102        23.9488 
 353   0.0000       0.882622        24.0174 
 354   0.0000       0.890043        24.2193 
 355   0.0000       0.891949        24.2712 
 356   0.0000       0.897852        24.4318 
 357   0.0000       0.901921        24.5425 
 358   0.0000       0.907791        24.7023 
 359   0.0000       0.912325        24.8256 
 360   0.0000       0.914698        24.8902 
 361   0.0000       0.918369        24.9901 
 362   0.0000       0.927479        25.2380 
 363   0.0000       0.934430        25.4271 
 364   0.0000       0.936460        25.4824 
 365   0.0000       0.946186        25.7470 
 366   0.0000       0.949143        25.8275 
 367   0.0000       0.950953        25.8767 
 368   0.0000       0.954216        25.9655 
 369   0.0000       0.965064        26.2607 
 370   0.0000       0.973335        26.4858 
 371   0.0000       0.984522        26.7902 
 372   0.0000       0.988318        26.8935 
 373   0.0000       0.993555        27.0360 
 374   0.0000       0.998234        27.1633 
 375   0.0000       1.001217        27.2445 
 376   0.0000       1.004040        27.3213 
 377   0.0000       1.012612        27.5546 
 378   0.0000       1.017779        27.6952 
 379   0.0000       1.018528        27.7156 
 380   0.0000       1.020352        27.7652 
 381   0.0000       1.021498        27.7964 
 382   0.0000       1.038632        28.2626 
 383   0.0000       1.049506        28.5585 
 384   0.0000       1.056251        28.7421 
 385   0.0000       1.057764        28.7832 
 386   0.0000       1.067117        29.0377 
 387   0.0000       1.073776        29.2189 
 388   0.0000       1.077721        29.3263 
 389   0.0000       1.085391        29.5350 
 390   0.0000       1.088846        29.6290 
 391   0.0000       1.091682        29.7062 
 392   0.0000       1.095989        29.8234 
 393   0.0000       1.099887        29.9294 
 394   0.0000       1.102823        30.0094 
 395   0.0000       1.110107        30.2076 
 396   0.0000       1.115445        30.3528 
 397   0.0000       1.117067        30.3969 
 398   0.0000       1.121121        30.5073 
 399   0.0000       1.124854        30.6088 
 400   0.0000       1.131816        30.7983 
 401   0.0000       1.134598        30.8740 
 402   0.0000       1.145356        31.1667 
 403   0.0000       1.150857        31.3164 
 404   0.0000       1.154286        31.4097 
 405   0.0000       1.160071        31.5671 
 406   0.0000       1.167880        31.7796 
 407   0.0000       1.170756        31.8579 
 408   0.0000       1.183414        32.2023 
 409   0.0000       1.188459        32.3396 
 410   0.0000       1.193829        32.4857 
 411   0.0000       1.201550        32.6958 
 412   0.0000       1.207711        32.8635 
 413   0.0000       1.215730        33.0817 
 414   0.0000       1.220546        33.2127 
 415   0.0000       1.224750        33.3272 
 416   0.0000       1.233256        33.5586 
 417   0.0000       1.236964        33.6595 
 418   0.0000       1.248866        33.9834 
 419   0.0000       1.252366        34.0786 
 420   0.0000       1.256987        34.2044 
 421   0.0000       1.260163        34.2908 
 422   0.0000       1.264536        34.4098 
 423   0.0000       1.271284        34.5934 
 424   0.0000       1.275896        34.7189 
 425   0.0000       1.283065        34.9140 
 426   0.0000       1.284049        34.9408 
 427   0.0000       1.288749        35.0686 
 428   0.0000       1.294922        35.2366 
 429   0.0000       1.301157        35.4063 
 430   0.0000       1.306167        35.5426 
 431   0.0000       1.312774        35.7224 
 432   0.0000       1.319211        35.8976 
 433   0.0000       1.322476        35.9864 
 434   0.0000       1.325352        36.0647 
 435   0.0000       1.331981        36.2450 
 436   0.0000       1.338232        36.4152 
 437   0.0000       1.342344        36.5270 
 438   0.0000       1.349445        36.7203 
 439   0.0000       1.351370        36.7726 
 440   0.0000       1.358743        36.9733 
 441   0.0000       1.369148        37.2564 
 442   0.0000       1.374401        37.3993 
 443   0.0000       1.378927        37.5225 
 444   0.0000       1.384016        37.6610 
 445   0.0000       1.396246        37.9938 
 446   0.0000       1.399836        38.0915 
 447   0.0000       1.407065        38.2882 
 448   0.0000       1.411385        38.4057 
 449   0.0000       1.423752        38.7423 
 450   0.0000       1.429125        38.8885 
 451   0.0000       1.429728        38.9049 
 452   0.0000       1.431985        38.9663 
 453   0.0000       1.436190        39.0807 
 454   0.0000       1.449341        39.4386 
 455   0.0000       1.452477        39.5239 
 456   0.0000       1.458079        39.6763 
 457   0.0000       1.468623        39.9633 
 458   0.0000       1.473564        40.0977 
 459   0.0000       1.477812        40.2133 
 460   0.0000       1.482662        40.3453 
 461   0.0000       1.485887        40.4330 
 462   0.0000       1.493191        40.6318 
 463   0.0000       1.496931        40.7336 
 464   0.0000       1.497967        40.7618 
 465   0.0000       1.503916        40.9236 
 466   0.0000       1.507038        41.0086 
 467   0.0000       1.511470        41.1292 
 468   0.0000       1.519508        41.3479 
 469   0.0000       1.531027        41.6614 
 470   0.0000       1.533165        41.7196 
 471   0.0000       1.538353        41.8607 
 472   0.0000       1.550802        42.1995 
 473   0.0000       1.553109        42.2622 
 474   0.0000       1.556860        42.3643 
 475   0.0000       1.565825        42.6083 
 476   0.0000       1.569218        42.7006 
 477   0.0000       1.574677        42.8491 
 478   0.0000       1.576251        42.8920 
 479   0.0000       1.585441        43.1421 
 480   0.0000       1.587375        43.1947 
 481   0.0000       1.592667        43.3387 
 482   0.0000       1.596069        43.4312 
 483   0.0000       1.598142        43.4877 
 484   0.0000       1.604429        43.6587 
 485   0.0000       1.614357        43.9289 
 486   0.0000       1.616949        43.9994 
 487   0.0000       1.618765        44.0488 
 488   0.0000       1.622849        44.1600 
 489   0.0000       1.624691        44.2101 
 490   0.0000       1.632351        44.4185 
 491   0.0000       1.639380        44.6098 
 492   0.0000       1.647521        44.8313 
 493   0.0000       1.650310        44.9072 
 494   0.0000       1.666152        45.3383 
 495   0.0000       1.674222        45.5579 
 496   0.0000       1.677143        45.6374 
 497   0.0000       1.681294        45.7503 
 498   0.0000       1.689274        45.9675 
 499   0.0000       1.690603        46.0036 
 500   0.0000       1.694096        46.0987 
 501   0.0000       1.701802        46.3084 
 502   0.0000       1.713019        46.6136 
 503   0.0000       1.715079        46.6697 
 504   0.0000       1.717113        46.7250 
 505   0.0000       1.723365        46.8952 
 506   0.0000       1.733213        47.1631 
 507   0.0000       1.736379        47.2493 
 508   0.0000       1.740885        47.3719 
 509   0.0000       1.746165        47.5156 
 510   0.0000       1.754687        47.7475 
 511   0.0000       1.756798        47.8049 
 512   0.0000       1.763228        47.9799 
 513   0.0000       1.775743        48.3204 
 514   0.0000       1.777261        48.3617 
[...]
      f+2     :     0.001150
      f-2     :     0.000795
      f+3     :     0.000833
      f-3     :     0.000762
 49 H s       :     0.802755  s :     0.802755
      pz      :     0.034736  p :     0.057695
      px      :     0.011042
      py      :     0.011916
 50 O s       :     3.408902  s :     3.408902
      pz      :     1.541482  p :     4.638048
      px      :     1.381554
      py      :     1.715012
      dz2     :     0.017316  d :     0.058396
      dxz     :     0.011045
      dyz     :     0.011467
      dx2y2   :     0.014126
      dxy     :     0.004443
      f0      :     0.000567  f :     0.003589
      f+1     :     0.000772
      f-1     :     0.000529
      f+2     :     0.000511
      f-2     :     0.000512
      f+3     :     0.000616
      f-3     :     0.000083
 51 H s       :     0.825552  s :     0.825552
      pz      :     0.026810  p :     0.057994
      px      :     0.019517
      py      :     0.011667
 52 H s       :     0.817032  s :     0.817032
      pz      :     0.011081  p :     0.057771
      px      :     0.030095
      py      :     0.016595
 53 H s       :     0.653710  s :     0.653710
      pz      :     0.025409  p :     0.193341
      px      :     0.134688
      py      :     0.033244
 54 N s       :     3.099695  s :     3.099695
      pz      :     1.273864  p :     3.904984
      px      :     1.421717
      py      :     1.209402
      dz2     :     0.040673  d :     0.131735
      dxz     :     0.012929
      dyz     :     0.019202
      dx2y2   :     0.017687
      dxy     :     0.041244
      f0      :     0.001189  f :     0.009742
      f+1     :     0.001048
      f-1     :     0.001956
      f+2     :     0.000887
      f-2     :     0.001074
      f+3     :     0.001211
      f-3     :     0.002377
 55 H s       :     0.735044  s :     0.735044
      pz      :     0.021854  p :     0.106262
      px      :     0.048765
      py      :     0.035643
 56 H s       :     0.746204  s :     0.746204
      pz      :     0.053060  p :     0.105392
      px      :     0.031214
      py      :     0.021119
 57 O s       :     3.381332  s :     3.381332
      pz      :     1.500653  p :     4.605597
      px      :     1.514942
      py      :     1.590002
      dz2     :     0.012736  d :     0.060089
      dxz     :     0.013095
      dyz     :     0.008623
      dx2y2   :     0.010784
      dxy     :     0.014851
      f0      :     0.000567  f :     0.003604
      f+1     :     0.000630
      f-1     :     0.000307
      f+2     :     0.000048
      f-2     :     0.000530
      f+3     :     0.000730
      f-3     :     0.000792
 58 H s       :     0.796778  s :     0.796778
      pz      :     0.015482  p :     0.056471
      px      :     0.027170
      py      :     0.013820
 59 H s       :     0.648269  s :     0.648269
      pz      :     0.095622  p :     0.181962
      px      :     0.050102
      py      :     0.036239
 60 C s       :     2.815396  s :     2.815396
      pz      :     1.027893  p :     2.892334
      px      :     1.005554
      py      :     0.858887
      dz2     :     0.081613  d :     0.488894
      dxz     :     0.090201
      dyz     :     0.090429
      dx2y2   :     0.115393
      dxy     :     0.111257
      f0      :     0.006767  f :     0.060640
      f+1     :     0.003046
      f-1     :     0.008472
      f+2     :     0.008526
      f-2     :     0.009932
      f+3     :     0.010271
      f-3     :     0.013627
 61 H s       :     0.794319  s :     0.794319
      pz      :     0.031459  p :     0.056619
      px      :     0.013508
      py      :     0.011653
 62 H s       :     0.810863  s :     0.810863
      pz      :     0.020750  p :     0.058598
      px      :     0.026172
      py      :     0.011676
 63 H s       :     0.824482  s :     0.824482
      pz      :     0.033086  p :     0.057655
      px      :     0.015237
      py      :     0.009331
 64 O s       :     3.386561  s :     3.386561
      pz      :     1.687112  p :     4.598844
      px      :     1.345755
      py      :     1.565976
      dz2     :     0.005276  d :     0.061207
      dxz     :     0.013550
      dyz     :     0.007405
      dx2y2   :     0.014552
      dxy     :     0.020424
      f0      :     0.000436  f :     0.003981
      f+1     :     0.000297
      f-1     :     0.000298
      f+2     :     0.000193
      f-2     :     0.000993
      f+3     :     0.000725
      f-3     :     0.001038
 65 H s       :     0.810682  s :     0.810682
      pz      :     0.032123  p :     0.056580
      px      :     0.012861
      py      :     0.011596
 66 H s       :     0.658441  s :     0.658441
      pz      :     0.056253  p :     0.155903
      px      :     0.055734
      py      :     0.043916


                      *****************************
                      * MAYER POPULATION ANALYSIS *
                      *****************************

  NA   - Mulliken gross atomic population
  ZA   - Total nuclear charge
  QA   - Mulliken gross atomic charge
  VA   - Mayer's total valence
  BVA  - Mayer's bonded valence
  FA   - Mayer's free valence

  ATOM       NA         ZA         QA         VA         BVA        FA
  0 C      6.0383     6.0000    -0.0383     3.8508     3.8508    -0.0000
  1 C      6.1689     6.0000    -0.1689     3.8710     3.8710    -0.0000
  2 C      5.9859     6.0000     0.0141     4.0073     4.0073    -0.0000
  3 H      0.9167     1.0000     0.0833     0.9820     0.9820    -0.0000
  4 H      0.9157     1.0000     0.0843     0.9990     0.9990    -0.0000
  5 C      5.8952     6.0000     0.1048     3.8773     3.8773    -0.0000
  6 C      5.7002     6.0000     0.2998     3.6919     3.6919    -0.0000
  7 O      8.3560     8.0000    -0.3560     2.0095     2.0095     0.0000
  8 C      5.9914     6.0000     0.0086     3.8861     3.8861    -0.0000
  9 H      0.8577     1.0000     0.1423     1.0095     1.0095    -0.0000
 10 O      8.4875     8.0000    -0.4875     1.9384     1.9384     0.0000
 11 H      0.9024     1.0000     0.0976     0.9756     0.9756    -0.0000
 12 H      0.9011     1.0000     0.0989     0.9580     0.9580    -0.0000
 13 H      0.6859     1.0000     0.3141     0.9138     0.9138     0.0000
 14 O      8.4717     8.0000    -0.4717     1.9439     1.9439    -0.0000
 15 H      0.8825     1.0000     0.1175     0.9744     0.9744    -0.0000
 16 H      0.6981     1.0000     0.3019     0.9217     0.9217     0.0000
 17 N      7.5408     7.0000    -0.5408     2.8925     2.8925    -0.0000
 18 H      0.9282     1.0000     0.0718     0.9896     0.9896     0.0000
 19 H      0.7689     1.0000     0.2311     0.9657     0.9657    -0.0000
 20 H      0.7997     1.0000     0.2003     0.9488     0.9488    -0.0000
 21 O      8.4106     8.0000    -0.4106     1.9599     1.9599     0.0000
 22 H      0.8900     1.0000     0.1100     1.0312     1.0312    -0.0000
 23 C      5.8889     6.0000     0.1111     3.9540     3.9540     0.0000
 24 C      5.8427     6.0000     0.1573     3.7038     3.7038     0.0000
 25 C      5.9262     6.0000     0.0738     4.0660     4.0660    -0.0000
 26 O      8.4135     8.0000    -0.4135     1.9542     1.9542    -0.0000
 27 C      5.8352     6.0000     0.1648     3.7582     3.7582    -0.0000
 28 C      5.9002     6.0000     0.0998     3.7084     3.7084    -0.0000
 29 C      6.1376     6.0000    -0.1376     3.8488     3.8488     0.0000
 30 H      0.9373     1.0000     0.0627     0.9883     0.9883    -0.0000
 31 H      0.8883     1.0000     0.1117     1.0042     1.0042     0.0000
 32 O      8.4761     8.0000    -0.4761     1.9328     1.9328     0.0000
 33 H      0.8875     1.0000     0.1125     0.9661     0.9661     0.0000
 34 H      0.8311     1.0000     0.1689     0.9917     0.9917     0.0000
 35 H      0.6948     1.0000     0.3052     0.9179     0.9179     0.0000
 36 N      7.5579     7.0000    -0.5579     2.9157     2.9157    -0.0000
 37 H      0.8993     1.0000     0.1007     1.0256     1.0256     0.0000
 38 H      0.7561     1.0000     0.2439     0.9623     0.9623    -0.0000
 39 H      0.7675     1.0000     0.2325     0.9451     0.9451    -0.0000
 40 O      8.3288     8.0000    -0.3288     1.9757     1.9757     0.0000
 41 H      0.8797     1.0000     0.1203     1.0121     1.0121    -0.0000
 42 C      5.9151     6.0000     0.0849     3.9290     3.9290     0.0000
 43 C      5.8851     6.0000     0.1149     3.8465     3.8465    -0.0000
 44 C      5.9219     6.0000     0.0781     3.8667     3.8667     0.0000
 45 C      5.9258     6.0000     0.0742     3.7592     3.7592    -0.0000
 46 H      0.9358     1.0000     0.0642     1.0088     1.0088     0.0000
 47 C      6.0244     6.0000    -0.0244     3.9436     3.9436    -0.0000
 48 O      8.3343     8.0000    -0.3343     1.9983     1.9983     0.0000
 49 H      0.9330     1.0000     0.0670     0.9965     0.9965    -0.0000
 50 O      8.5130     8.0000    -0.5130     1.8771     1.8771    -0.0000
 51 H      0.9198     1.0000     0.0802     0.9711     0.9711     0.0000
 52 H      0.9028     1.0000     0.0972     0.9726     0.9726    -0.0000
 53 H      0.6552     1.0000     0.3448     0.9472     0.9472     0.0000
 54 N      7.4942     7.0000    -0.4942     2.9128     2.9128    -0.0000
 55 H      0.7768     1.0000     0.2232     0.9602     0.9602    -0.0000
 56 H      0.8107     1.0000     0.1893     0.9647     0.9647    -0.0000
 57 O      8.5297     8.0000    -0.5297     1.8890     1.8890     0.0000
 58 H      0.9108     1.0000     0.0892     0.9906     0.9906     0.0000
 59 H      0.6614     1.0000     0.3386     0.9448     0.9448    -0.0000
 60 C      6.0151     6.0000    -0.0151     3.9674     3.9674     0.0000
 61 H      0.9275     1.0000     0.0725     0.9887     0.9887     0.0000
 62 H      0.8849     1.0000     0.1151     0.9663     0.9663    -0.0000
 63 H      0.9390     1.0000     0.0610     0.9808     0.9808     0.0000
 64 O      8.4989     8.0000    -0.4989     1.9163     1.9163     0.0000
 65 H      0.9721     1.0000     0.0279     1.0124     1.0124    -0.0000
 66 H      0.6705     1.0000     0.3295     0.9412     0.9412     0.0000

  Mayer bond orders larger than 0.100000
B(  0-C ,  1-C ) :   0.9726 B(  0-C ,  7-O ) :   0.9016 B(  0-C ,  8-C ) :   0.9530 
B(  0-C ,  9-H ) :   0.9533 B(  1-C ,  2-C ) :   0.9614 B(  1-C ,  3-H ) :   0.9536 
B(  1-C ,  4-H ) :   0.9456 B(  2-C ,  5-C ) :   0.9349 B(  2-C , 14-O ) :   1.0508 
B(  2-C , 15-H ) :   0.9866 B(  5-C ,  6-C ) :   0.9252 B(  5-C , 17-N ) :   1.0438 
B(  5-C , 18-H ) :   0.9817 B(  6-C ,  7-O ) :   1.0099 B(  6-C , 21-O ) :   0.9583 
B(  6-C , 22-H ) :   0.9238 B(  8-C , 10-O ) :   0.9864 B(  8-C , 11-H ) :   0.9549 
B(  8-C , 12-H ) :   0.9670 B( 10-O , 13-H ) :   0.8867 B( 10-O , 59-H ) :   0.1151 
B( 14-O , 16-H ) :   0.8959 B( 17-N , 19-H ) :   0.9179 B( 17-N , 20-H ) :   0.9307 
B( 21-O , 28-C ) :   0.8064 B( 22-H , 32-O ) :   0.1137 B( 23-C , 24-C ) :   0.9450 
B( 23-C , 28-C ) :   0.9338 B( 23-C , 57-O ) :   0.9733 B( 23-C , 58-H ) :   0.9807 
B( 24-C , 25-C ) :   0.9504 B( 24-C , 36-N ) :   0.8930 B( 24-C , 37-H ) :   0.9503 
B( 25-C , 26-O ) :   0.8794 B( 25-C , 40-O ) :   1.0245 B( 25-C , 41-H ) :   0.9469 
B( 26-O , 27-C ) :   0.9297 B( 27-C , 28-C ) :   0.9376 B( 27-C , 29-C ) :   0.8815 
B( 27-C , 30-H ) :   0.9638 B( 28-C , 31-H ) :   0.9497 B( 29-C , 32-O ) :   1.0221 
B( 29-C , 33-H ) :   0.9602 B( 29-C , 34-H ) :   0.9738 B( 32-O , 35-H ) :   0.8951 
B( 36-N , 38-H ) :   0.9019 B( 36-N , 39-H ) :   0.9235 B( 36-N , 53-H ) :   0.1596 
B( 40-O , 42-C ) :   0.9215 B( 42-C , 43-C ) :   0.9717 B( 42-C , 45-C ) :   0.9521 
B( 42-C , 46-H ) :   0.9398 B( 43-C , 44-C ) :   0.9582 B( 43-C , 64-O ) :   0.9905 
B( 43-C , 65-H ) :   0.9356 B( 44-C , 54-N ) :   0.9693 B( 44-C , 60-C ) :   0.9921 
B( 44-C , 61-H ) :   0.9326 B( 45-C , 47-C ) :   0.8935 B( 45-C , 48-O ) :   0.9623 
B( 45-C , 49-H ) :   0.9512 B( 47-C , 50-O ) :   1.0408 B( 47-C , 51-H ) :   0.9768 
B( 47-C , 52-H ) :   0.9734 B( 48-O , 60-C ) :   0.9956 B( 50-O , 53-H ) :   0.7685 
B( 54-N , 55-H ) :   0.9337 B( 54-N , 56-H ) :   0.9336 B( 57-O , 59-H ) :   0.8001 
B( 60-C , 62-H ) :   0.9717 B( 60-C , 63-H ) :   0.9437 B( 64-O , 66-H ) :   0.8481 


-------
TIMINGS
-------

Total SCF time: 0 days 2 hours 33 min 25 sec 

Total time                  ....    9205.869 sec
Sum of individual times     ....    9177.339 sec  ( 99.7%)

Fock matrix formation       ....    8960.749 sec  ( 97.3%)
  Split-RI-J                ....     672.794 sec  (  7.5% of F)
  Chain of spheres X        ....    7829.377 sec  ( 87.4% of F)
  XC integration            ....     456.238 sec  (  5.1% of F)
    Basis function eval.    ....     107.491 sec  ( 23.6% of XC)
    Density eval.           ....     200.647 sec  ( 44.0% of XC)
    XC-Functional eval.     ....       6.404 sec  (  1.4% of XC)
    XC-Potential eval.      ....     132.863 sec  ( 29.1% of XC)
Diagonalization             ....      13.324 sec  (  0.1%)
Density matrix formation    ....       2.651 sec  (  0.0%)
Population analysis         ....       1.245 sec  (  0.0%)
Initial guess               ....      57.330 sec  (  0.6%)
Orbital Transformation      ....       0.000 sec  (  0.0%)
Orbital Orthonormalization  ....       0.000 sec  (  0.0%)
DIIS solution               ....       5.793 sec  (  0.1%)
SOSCF solution              ....       3.224 sec  (  0.0%)
Grid generation             ....     133.023 sec  (  1.4%)

Maximum memory used throughout the entire SCF-calculation: 981.7 MB


-------------------------------------------------------------------------------
                          DFT DISPERSION CORRECTION                            
                                                                               
                                 DFTD4 V2.5                                    
-------------------------------------------------------------------------------
The B3LYP functional is recognized
Active option DFTDOPT                   ...         5   

Starting D4
-------------------------   ----------------
Dispersion correction           -0.136727408
-------------------------   ----------------


-------------------------   --------------------
FINAL SINGLE POINT ENERGY     -1698.486438875924
-------------------------   --------------------


                            ***************************************
                            *     ORCA property calculations      *
                            ***************************************

                                    ---------------------
                                    Active property flags
                                    ---------------------
   (+) Dipole Moment


------------------------------------------------------------------------------
                       ORCA ELECTRIC PROPERTIES CALCULATION
------------------------------------------------------------------------------

Dipole Moment Calculation                       ... on
Quadrupole Moment Calculation                   ... off
Polarizability Calculation                      ... off
GBWName                                         ... ir_s.gbw
Electron density                                ... ir_s.scfp
The origin for moment calculation is the CENTER OF MASS  = ( 6.049361,  0.486548 -4.550377)

-------------
DIPOLE MOMENT
-------------
                                X             Y             Z
Electronic contribution:     -0.96766       0.99517       0.42707
Nuclear contribution   :     -1.88421      -0.38218       1.20471
                        -----------------------------------------
Total Dipole Moment    :     -2.85187       0.61299       1.63178
                        -----------------------------------------
Magnitude (a.u.)       :      3.34240
Magnitude (Debye)      :      8.49570



--------------------
Rotational spectrum 
--------------------
 
Rotational constants in cm-1:     0.007954     0.002572     0.002253 
Rotational constants in MHz :   238.446086    77.112974    67.539559 

 Dipole components along the rotational axes: 
x,y,z [a.u.] :    -3.324409     0.252822     0.236668 
x,y,z [Debye]:    -8.449977     0.642622     0.601562 

 

-------------------------------------------------------------------------------
                               ORCA SCF HESSIAN
-------------------------------------------------------------------------------

                   --------- SHARK INITIALIZATION DONE ---------

Hessian of the Kohn-Sham DFT energy:
Kohn-Sham wavefunction type                      ... RKS
Hartree-Fock exchange scaling                    ...    0.200
Number of operators                              ...    1
Number of atoms                                  ...   67
Basis set dimensions                             ... 1202
Integral neglect threshold                       ... 1.0e-10
Integral primitive cutoff                        ... 1.0e-11

Setting up DFT Hessian calculations              ... 

HESS GRID
---------

General Integration Accuracy     IntAcc      ... 4.629
Radial Grid Type                 RadialGrid  ... OptM3 with GC (2021)
Angular Grid (max. ang.)         AngularGrid ... 5 (Lebedev-434)
Angular grid pruning method      GridPruning ... 4 (adaptive)
Weight generation scheme         WeightScheme... Becke
Basis function cutoff            BFCut       ... 1.0000e-10
Integration weight cutoff        WCut        ... 1.0000e-14
Angular grids for H and He will be reduced by one unit
Partially contracted basis set               ... off
Rotationally invariant grid construction     ... off

Total number of grid points                  ...   462216
Total number of batches                      ...     7256
Average number of points per batch           ...       63
Average number of grid points per atom       ...     6899

Building densities                               ... done   (      0.3 sec)
Calculating rho(r) on the grid                   ... done   (     53.6 sec)
Building xc-kernel on the grid                   ... done   (      2.6 sec)
                                                     done   (    140.1 sec)

Nuclear repulsion Hessian  (SHARK)               ... done   (      0.0 sec)

----------------------------------------------
Forming right-hand sides of CP-SCF equations     ...
----------------------------------------------

One electron integral derivatives  (SHARK)       ... 
IBatch  1 (of  3):                                                32.4 sec
IBatch  2 (of  3):                                                36.0 sec
IBatch  3 (of  3):                                                 0.8 sec
                                                 ... done   (     69.2 sec)

Transforming the overlap derivative matrices     ... 
IBatch  1 (of  2):                                                96.0 sec
IBatch  2 (of  2):                                                 0.8 sec
                                                 ... done   (     96.7 sec)

Making the Q(x) pseudodensities                  ... 
IBatch  1 (of  2):                                               105.8 sec
IBatch  2 (of  2):                                                 1.0 sec
                                                 ... done   (    106.8 sec)

Adding the E*S(x)*S(y) terms to the Hessian      ... done   (    128.4 sec)

Calculating energy weighted overlap derivatives  ... done   (     15.4 sec)

Two electron integral derivatives (SHARK-RI)     ... 
IBatch  1 (of  3):                                             72758.4 sec
IBatch  2 (of  3):                                   