
                                 *****************
                                 * O   R   C   A *
                                 *****************

           --- An Ab Initio, DFT and Semiempirical electronic structure package ---

                  #######################################################
                  #                        -***-                        #
                  #          Department of theory and spectroscopy      #
                  #               Directorship: Frank Neese             #
                  #        Max Planck Institute fuer Kohlenforschung    #
                  #                Kaiser Wilhelm Platz 1               #
                  #                 D-45470 Muelheim/Ruhr               #
                  #                      Germany                        #
                  #                                                     #
                  #                  All rights reserved                #
                  #                        -***-                        #
                  #######################################################


                         Program Version 4.2.1 -  RELEASE  -


 With contributions from (in alphabetic order):
   Daniel Aravena         : Magnetic Suceptibility
   Michael Atanasov       : Ab Initio Ligand Field Theory (pilot matlab implementation)
   Alexander A. Auer      : GIAO ZORA, VPT2
   Ute Becker             : Parallelization
   Giovanni Bistoni       : ED, misc. LED, open-shell LED, HFLD
   Martin Brehm           : Molecular dynamics
   Dmytro Bykov           : SCF Hessian
   Vijay G. Chilkuri      : MRCI spin determinant printing, contributions to CSF-ICE
   Dipayan Datta          : RHF DLPNO-CCSD density
   Achintya Kumar Dutta   : EOM-CC, STEOM-CC
   Dmitry Ganyushin       : Spin-Orbit,Spin-Spin,Magnetic field MRCI
   Miquel Garcia          : C-PCM Hessian, Gaussian charge scheme
   Yang Guo               : DLPNO-NEVPT2, CIM, IAO-localization
   Andreas Hansen         : Spin unrestricted coupled pair/coupled cluster methods
   Benjamin Helmich-Paris : CASSCF linear response (MC-RPA)
   Lee Huntington         : MR-EOM, pCC
   Robert Izsak           : Overlap fitted RIJCOSX, COSX-SCS-MP3, EOM
   Christian Kollmar      : KDIIS, OOCD, Brueckner-CCSD(T), CCSD density
   Simone Kossmann        : Meta GGA functionals, TD-DFT gradient, OOMP2, MP2 Hessian
   Martin Krupicka        : AUTO-CI
   Lucas Lang             : DCDCAS
   Dagmar Lenk            : GEPOL surface, SMD
   Dimitrios Liakos       : Extrapolation schemes; Compound Job, initial MDCI parallelization
   Dimitrios Manganas     : Further ROCIS development; embedding schemes
   Dimitrios Pantazis     : SARC Basis sets
   Taras Petrenko         : DFT Hessian,TD-DFT gradient, ASA, ECA, R-Raman, ABS, FL, XAS/XES, NRVS
   Peter Pinski           : DLPNO-MP2, DLPNO-MP2 Gradient
   Christoph Reimann      : Effective Core Potentials
   Marius Retegan         : Local ZFS, SOC
   Christoph Riplinger    : Optimizer, TS searches, QM/MM, DLPNO-CCSD(T), (RO)-DLPNO pert. Triples
   Tobias Risthaus        : Range-separated hybrids, TD-DFT gradient, RPA, STAB
   Michael Roemelt        : Original ROCIS implementation
   Masaaki Saitow         : Open-shell DLPNO-CCSD energy and density
   Barbara Sandhoefer     : DKH picture change effects
   Avijit Sen             : IP-ROCIS
   Kantharuban Sivalingam : CASSCF convergence, NEVPT2, FIC-MRCI
   Bernardo de Souza      : ESD, SOC TD-DFT
   Georgi Stoychev        : AutoAux, RI-MP2 NMR
   Willem Van den Heuvel  : Paramagnetic NMR
   Boris Wezisla          : Elementary symmetry handling
   Frank Wennmohs         : Technical directorship


 We gratefully acknowledge several colleagues who have allowed us to
 interface, adapt or use parts of their codes:
   Stefan Grimme, W. Hujo, H. Kruse,             : VdW corrections, initial TS optimization,
                  C. Bannwarth                     DFT functionals, gCP, sTDA/sTD-DF
   Ed Valeev, F. Pavosevic, A. Kumar             : LibInt (2-el integral package), F12 methods
   Garnet Chan, S. Sharma, J. Yang, R. Olivares  : DMRG
   Ulf Ekstrom                                   : XCFun DFT Library
   Mihaly Kallay                                 : mrcc  (arbitrary order and MRCC methods)
   Andreas Klamt, Michael Diedenhofen            : otool_cosmo (COSMO solvation model)
   Jiri Pittner, Ondrej Demel                    : Mk-CCSD
   Frank Weinhold                                : gennbo (NPA and NBO analysis)
   Christopher J. Cramer and Donald G. Truhlar   : smd solvation model
   Lars Goerigk                                  : TD-DFT with DH, B97 family of functionals
   V. Asgeirsson, H. Jonsson                     : NEB implementation
   FAccTs GmbH                                   : IRC, NEB, NEB-TS, Multilevel, MM, QM/MM, CI optimization
   S Lehtola, MJT Oliveira, MAL Marques          : LibXC Library


 Your calculation uses the libint2 library for the computation of 2-el integrals
 For citations please refer to: http://libint.valeyev.net

 Your ORCA version has been built with support for libXC version: 4.2.3
 For citations please refer to: https://tddft.org/programs/libxc/

 This ORCA versions uses:
   CBLAS   interface :  Fast vector & matrix operations
   LAPACKE interface :  Fast linear algebra routines


Your calculation utilizes the atom-pairwise dispersion correction
based on tight binding partial charges (D4)
Cite in your paper:
E.Caldeweyher, C.Bannwarth, S.Grimme, J.Chem.Phys., (2017), 147, 034112.
E.Caldeweyher, S.Ehlert, A.Hansen, H.Neugebauer, S.Grimme, J.Chem.Phys., (2018), in progress.
   

----- Orbital basis set information -----
Your calculation utilizes the basis: def2-SVP
   F. Weigend and R. Ahlrichs, Phys. Chem. Chem. Phys. 7, 3297 (2005).

================================================================================
                                        WARNINGS
                       Please study these warnings very carefully!
================================================================================


WARNING: Geometry Optimization
  ===> : Switching off AutoStart
         For restart on a previous wavefunction, please use MOREAD

INFO   : the flag for use of LIBINT has been found!

================================================================================
                                       INPUT FILE
================================================================================
NAME = products4.inp
|  1> !B3LYP DEF2-SVP D4 OPT FREQ
|  2> 
|  3> * xyz 0 1
|  4>    C       -6.32747        0.33008       -0.61134
|  5>    C       -6.46825        0.10555       -2.02147
|  6>    C       -6.05566       -1.14447       -2.55057
|  7>    C       -5.49728       -2.12790       -1.73454
|  8>    C       -5.36934       -1.90287       -0.36322
|  9>    C       -5.78941       -0.69006        0.19694
| 10>    C       -6.74956        1.61339        0.07438
| 11>    H       -5.89835        2.40324       -0.12907
| 12>    H       -6.87150        1.48495        1.24668
| 13>    H       -7.77333        1.95735       -0.35324
| 14>    H       -6.17442       -1.36990       -3.60464
| 15>    H       -5.16993       -3.07119       -2.16719
| 16>    H       -4.94941       -2.67315        0.27097
| 17>    H       -5.69737       -0.55127        1.27370
| 18>    N       -7.01573        1.08622       -2.91826
| 19>    O       -7.73516        0.63787       -3.93230
| 20>    O       -6.77332        2.47640       -2.64987
| 21> **                         ****END OF INPUT****
================================================================================

                       *****************************
                       * Geometry Optimization Run *
                       *****************************

Geometry optimization settings:
Update method            Update   .... BFGS
Choice of coordinates    CoordSys .... Z-matrix Internals
Initial Hessian          InHess   .... Almoef's Model

Convergence Tolerances:
Energy Change            TolE     ....  5.0000e-06 Eh
Max. Gradient            TolMAXG  ....  3.0000e-04 Eh/bohr
RMS Gradient             TolRMSG  ....  1.0000e-04 Eh/bohr
Max. Displacement        TolMAXD  ....  4.0000e-03 bohr
RMS Displacement         TolRMSD  ....  2.0000e-03 bohr
Strict Convergence                ....  False
------------------------------------------------------------------------------
                        ORCA OPTIMIZATION COORDINATE SETUP
------------------------------------------------------------------------------

The optimization will be done in new redundant internal coordinates
Making redundant internal coordinates   ...  (new redundants) done
Evaluating the initial hessian          ...  (Almloef) done
Evaluating the coordinates              ...  done
Calculating the B-matrix                .... done
Calculating the G-matrix                .... done
Diagonalizing the G-matrix              .... done
The first mode is                       ....   33
The number of degrees of freedom        ....   45

    -----------------------------------------------------------------
                    Redundant Internal Coordinates


    -----------------------------------------------------------------
         Definition                    Initial Value    Approx d2E/dq
    -----------------------------------------------------------------
      1. B(C   1,C   0)                  1.4348         0.529952   
      2. B(C   2,C   1)                  1.4187         0.562263   
      3. B(C   3,C   2)                  1.3946         0.614393   
      4. B(C   4,C   3)                  1.3955         0.612214   
      5. B(C   5,C   4)                  1.4004         0.601355   
      6. B(C   5,C   0)                  1.4084         0.584020   
      7. B(C   6,C   0)                  1.5150         0.394723   
      8. B(H   7,C   6)                  1.1789         0.259767   
      9. B(H   8,C   6)                  1.1856         0.253452   
     10. B(H   9,C   6)                  1.1616         0.276834   
     11. B(H  10,C   2)                  1.0844         0.367546   
     12. B(H  11,C   3)                  1.0882         0.362513   
     13. B(H  12,C   4)                  1.0825         0.370120   
     14. B(H  13,C   5)                  1.0896         0.360679   
     15. B(N  14,C   1)                  1.4372         0.470430   
     16. B(O  15,N  14)                  1.3217         0.644155   
     17. B(O  16,N  14)                  1.4365         0.422571   
     18. A(C   5,C   0,C   6)          117.4026         0.396355   
     19. A(C   1,C   0,C   5)          119.2205         0.417548   
     20. A(C   1,C   0,C   6)          123.3703         0.389671   
     21. A(C   2,C   1,N  14)          118.6378         0.403462   
     22. A(C   0,C   1,C   2)          118.4163         0.414737   
     23. A(C   0,C   1,N  14)          122.9446         0.399278   
     24. A(C   1,C   2,H  10)          120.9185         0.348333   
     25. A(C   3,C   2,H  10)          117.7764         0.353590   
     26. A(C   1,C   2,C   3)          121.3022         0.425822   
     27. A(C   2,C   3,C   4)          119.8671         0.432374   
     28. A(C   4,C   3,H  11)          120.1914         0.352553   
     29. A(C   2,C   3,H  11)          119.9397         0.352765   
     30. A(C   3,C   4,C   5)          120.3449         0.430711   
     31. A(C   5,C   4,H  12)          119.8850         0.352725   
     32. A(C   3,C   4,H  12)          119.7687         0.353795   
     33. A(C   0,C   5,C   4)          120.8200         0.427084   
     34. A(C   4,C   5,H  13)          118.7034         0.351187   
     35. A(C   0,C   5,H  13)          120.4757         0.349457   
     36. A(H   8,C   6,H   9)          107.7844         0.264644   
     37. A(H   7,C   6,H   9)          111.9902         0.265626   
     38. A(C   0,C   6,H   9)          109.2538         0.313502   
     39. A(H   7,C   6,H   8)          108.5108         0.262133   
     40. A(C   0,C   6,H   8)          112.6083         0.309063   
     41. A(C   0,C   6,H   7)          106.7531         0.310292   
     42. A(O  15,N  14,O  16)          124.2985         0.397659   
     43. A(C   1,N  14,O  16)          118.6514         0.378898   
     44. A(C   1,N  14,O  15)          117.0396         0.407922   
     45. D(N  14,C   1,C   0,C   6)      0.4953         0.019170   
     46. D(C   2,C   1,C   0,C   6)   -179.0934         0.019170   
     47. D(C   2,C   1,C   0,C   5)     -0.0551         0.019170   
     48. D(N  14,C   1,C   0,C   5)    179.5337         0.019170   
     49. D(C   3,C   2,C   1,C   0)     -1.4317         0.021662   
     50. D(H  10,C   2,C   1,N  14)     -1.6724         0.021662   
     51. D(C   3,C   2,C   1,N  14)    178.9616         0.021662   
     52. D(H  10,C   2,C   1,C   0)    177.9343         0.021662   
     53. D(H  11,C   3,C   2,H  10)      1.8514         0.026092   
     54. D(H  11,C   3,C   2,C   1)   -178.7634         0.026092   
     55. D(C   4,C   3,C   2,H  10)   -177.6648         0.026092   
     56. D(C   4,C   3,C   2,C   1)      1.7204         0.026092   
     57. D(C   5,C   4,C   3,H  11)    179.9923         0.025897   
     58. D(H  12,C   4,C   3,C   2)    179.0805         0.025897   
     59. D(C   5,C   4,C   3,C   2)     -0.4928         0.025897   
     60. D(H  12,C   4,C   3,H  11)     -0.4345         0.025897   
     61. D(H  13,C   5,C   4,H  12)     -0.9056         0.024936   
     62. D(C   0,C   5,C   4,H  12)    179.4291         0.024936   
     63. D(C   0,C   5,C   4,C   3)     -0.9981         0.024936   
     64. D(H  13,C   5,C   0,C   6)      0.6907         0.023449   
     65. D(H  13,C   5,C   0,C   1)   -178.4047         0.023449   
     66. D(H  13,C   5,C   4,C   3)    178.6672         0.024936   
     67. D(C   4,C   5,C   0,C   6)   -179.6499         0.023449   
     68. D(C   4,C   5,C   0,C   1)      1.2547         0.023449   
     69. D(H   9,C   6,C   0,C   5)   -136.7741         0.011577   
     70. D(H   9,C   6,C   0,C   1)     42.2806         0.011577   
     71. D(H   8,C   6,C   0,C   5)    -17.0437         0.011577   
     72. D(H   8,C   6,C   0,C   1)    162.0109         0.011577   
     73. D(H   7,C   6,C   0,C   5)    101.9367         0.011577   
     74. D(H   7,C   6,C   0,C   1)    -79.0087         0.011577   
     75. D(O  15,N  14,C   1,C   0)   -145.1342         0.017445   
     76. D(O  16,N  14,C   1,C   2)   -146.6703         0.017445   
     77. D(O  16,N  14,C   1,C   0)     33.7418         0.017445   
     78. D(O  15,N  14,C   1,C   2)     34.4537         0.017445   
    -----------------------------------------------------------------

Number of atoms                         .... 17
Number of degrees of freedom            .... 78

         *************************************************************
         *                GEOMETRY OPTIMIZATION CYCLE   1            *
         *************************************************************
---------------------------------
CARTESIAN COORDINATES (ANGSTROEM)
---------------------------------
  C     -6.327470    0.330080   -0.611340
  C     -6.468250    0.105550   -2.021470
  C     -6.055660   -1.144470   -2.550570
  C     -5.497280   -2.127900   -1.734540
  C     -5.369340   -1.902870   -0.363220
  C     -5.789410   -0.690060    0.196940
  C     -6.749560    1.613390    0.074380
  H     -5.898350    2.403240   -0.129070
  H     -6.871500    1.484950    1.246680
  H     -7.773330    1.957350   -0.353240
  H     -6.174420   -1.369900   -3.604640
  H     -5.169930   -3.071190   -2.167190
  H     -4.949410   -2.673150    0.270970
  H     -5.697370   -0.551270    1.273700
  N     -7.015730    1.086220   -2.918260
  O     -7.735160    0.637870   -3.932300
  O     -6.773320    2.476400   -2.649870

----------------------------
CARTESIAN COORDINATES (A.U.)
----------------------------
  NO LB      ZA    FRAG     MASS         X           Y           Z
   0 C     6.0000    0    12.011  -11.957185    0.623761   -1.155265
   1 C     6.0000    0    12.011  -12.223221    0.199461   -3.820025
   2 C     6.0000    0    12.011  -11.443539   -2.162735   -4.819879
   3 C     6.0000    0    12.011  -10.388354   -4.021148   -3.277806
   4 C     6.0000    0    12.011  -10.146582   -3.595903   -0.686386
   5 C     6.0000    0    12.011  -10.940399   -1.304024    0.372163
   6 C     6.0000    0    12.011  -12.754820    3.048865    0.140558
   7 H     1.0000    0     1.008  -11.146266    4.541465   -0.243907
   8 H     1.0000    0     1.008  -12.985253    2.806149    2.355884
   9 H     1.0000    0     1.008  -14.689465    3.698855   -0.667527
  10 H     1.0000    0     1.008  -11.667963   -2.588736   -6.811782
  11 H     1.0000    0     1.008   -9.769752   -5.803708   -4.095396
  12 H     1.0000    0     1.008   -9.353029   -5.051521    0.512059
  13 H     1.0000    0     1.008  -10.766469   -1.041749    2.406944
  14 N     7.0000    0    14.007  -13.257808    2.052658   -5.514712
  15 O     8.0000    0    15.999  -14.617334    1.205400   -7.430970
  16 O     8.0000    0    15.999  -12.799720    4.679718   -5.007529

--------------------------------
INTERNAL COORDINATES (ANGSTROEM)
--------------------------------
 C      0   0   0     0.000000000000     0.00000000     0.00000000
 C      1   0   0     1.434816833676     0.00000000     0.00000000
 C      2   1   0     1.418706212893   118.41630540     0.00000000
 C      3   2   1     1.394570812186   121.30224596   358.56834167
 C      4   3   2     1.395537776952   119.86710265     1.72042486
 C      5   4   3     1.400409271106   120.34493491   359.50724581
 C      1   2   3     1.515010377060   123.37032028   180.90657379
 H      7   1   2     1.178903468949   106.75308918   280.99132123
 H      7   1   2     1.185602584005   112.60827644   162.01092564
 H      7   1   2     1.161581834784   109.25380695    42.28060839
 H      3   2   1     1.084428968352   120.91845504   177.93434262
 H      4   3   2     1.088182001827   119.93970580   181.23664647
 H      5   4   3     1.082529186396   119.76868742   179.08048356
 H      6   5   4     1.089562354021   118.70340653   178.66718955
 N      2   1   3     1.437247474654   122.94460695   179.58874980
 O     15   2   1     1.321693750080   117.03962231   214.86580166
 O     15   2   1     1.436452655885   118.65141604    33.74181161

---------------------------
INTERNAL COORDINATES (A.U.)
---------------------------
 C      0   0   0     0.000000000000     0.00000000     0.00000000
 C      1   0   0     2.711410867988     0.00000000     0.00000000
 C      2   1   0     2.680966206860   118.41630540     0.00000000
 C      3   2   1     2.635356909391   121.30224596   358.56834167
 C      4   3   2     2.637184207980   119.86710265     1.72042486
 C      5   4   3     2.646389997795   120.34493491   359.50724581
 C      1   2   3     2.862954702692   123.37032028   180.90657379
 H      7   1   2     2.227804694643   106.75308918   280.99132123
 H      7   1   2     2.240464187439   112.60827644   162.01092564
 H      7   1   2     2.195071549879   109.25380695    42.28060839
 H      3   2   1     2.049273761875   120.91845504   177.93434262
 H      4   3   2     2.056365967315   119.93970580   181.23664647
 H      5   4   3     2.045683694266   119.76868742   179.08048356
 H      6   5   4     2.058974454930   118.70340653   178.66718955
 N      2   1   3     2.716004113766   122.94460695   179.58874980
 O     15   2   1     2.497639220566   117.03962231   214.86580166
 O     15   2   1     2.714502123967   118.65141604    33.74181161

---------------------
BASIS SET INFORMATION
---------------------
There are 4 groups of distinct atoms

 Group   1 Type C   : 7s4p1d contracted to 3s2p1d pattern {511/31/1}
 Group   2 Type H   : 4s1p contracted to 2s1p pattern {31/1}
 Group   3 Type N   : 7s4p1d contracted to 3s2p1d pattern {511/31/1}
 Group   4 Type O   : 7s4p1d contracted to 3s2p1d pattern {511/31/1}

Atom   0C    basis set group =>   1
Atom   1C    basis set group =>   1
Atom   2C    basis set group =>   1
Atom   3C    basis set group =>   1
Atom   4C    basis set group =>   1
Atom   5C    basis set group =>   1
Atom   6C    basis set group =>   1
Atom   7H    basis set group =>   2
Atom   8H    basis set group =>   2
Atom   9H    basis set group =>   2
Atom  10H    basis set group =>   2
Atom  11H    basis set group =>   2
Atom  12H    basis set group =>   2
Atom  13H    basis set group =>   2
Atom  14N    basis set group =>   3
Atom  15O    basis set group =>   4
Atom  16O    basis set group =>   4
------------------------------------------------------------------------------
                           ORCA GTO INTEGRAL CALCULATION
------------------------------------------------------------------------------

                         BASIS SET STATISTICS AND STARTUP INFO

 # of primitive gaussian shells          ...  155
 # of primitive gaussian functions       ...  289
 # of contracted shells                  ...   81
 # of contracted basis functions         ...  175
 Highest angular momentum                ...    2
 Maximum contraction depth               ...    5
 Integral package used                   ... LIBINT
 Integral threshhold            Thresh   ...  2.500e-11
 Primitive cut-off              TCut     ...  2.500e-12


------------------------------ INTEGRAL EVALUATION ----------------------------


 * One electron integrals 
 Pre-screening matrix                    ... done
 Shell pair data                         ... done (   0.003 sec)

Timings:
 Total evaluation time               ...     0.007 sec (   0.000 min)
 One electron matrix time            ...     0.060 sec (   0.001 min) =857.1%
 Schwartz matrix evaluation time     ...     0.375 sec (   0.006 min) =5357.1%

-------------------------------------------------------------------------------
                                 ORCA SCF
-------------------------------------------------------------------------------

------------
SCF SETTINGS
------------
Hamiltonian:
 Density Functional     Method          .... DFT(GTOs)
 Exchange Functional    Exchange        .... B88
   X-Alpha parameter    XAlpha          ....  0.666667
   Becke's b parameter  XBeta           ....  0.004200
 Correlation Functional Correlation     .... LYP
 LDA part of GGA corr.  LDAOpt          .... VWN-5
 Gradients option       PostSCFGGA      .... off
 Hybrid DFT is turned on
   Fraction HF Exchange ScalHFX         ....  0.200000
   Scaling of DF-GGA-X  ScalDFX         ....  0.720000
   Scaling of DF-GGA-C  ScalDFC         ....  0.810000
   Scaling of DF-LDA-C  ScalLDAC        ....  1.000000
   Perturbative correction              ....  0.000000
   Density functional embedding theory  .... OFF
   NL short-range parameter             ....  4.800000


General Settings:
 Integral files         IntName         .... products4
 Hartree-Fock type      HFTyp           .... RHF
 Total Charge           Charge          ....    0
 Multiplicity           Mult            ....    1
 Number of Electrons    NEL             ....   72
 Basis Dimension        Dim             ....  175
 Nuclear Repulsion      ENuc            ....    491.4697627080 Eh

Convergence Acceleration:
 DIIS                   CNVDIIS         .... on
   Start iteration      DIISMaxIt       ....    12
   Startup error        DIISStart       ....  0.200000
   # of expansion vecs  DIISMaxEq       ....     5
   Bias factor          DIISBfac        ....   1.050
   Max. coefficient     DIISMaxC        ....  10.000
 Newton-Raphson         CNVNR           .... off
 SOSCF                  CNVSOSCF        .... on
   Start iteration      SOSCFMaxIt      ....   150
   Startup grad/error   SOSCFStart      ....  0.003300
 Level Shifting         CNVShift        .... on
   Level shift para.    LevelShift      ....    0.2500
   Turn off err/grad.   ShiftErr        ....    0.0010
 Zerner damping         CNVZerner       .... off
 Static damping         CNVDamp         .... on
   Fraction old density DampFac         ....    0.7000
   Max. Damping (<1)    DampMax         ....    0.9800
   Min. Damping (>=0)   DampMin         ....    0.0000
   Turn off err/grad.   DampErr         ....    0.1000
 Fernandez-Rico         CNVRico         .... off

SCF Procedure:
 Maximum # iterations   MaxIter         ....   125
 SCF integral mode      SCFMode         .... Direct
   Integral package                     .... LIBINT
 Reset frequency        DirectResetFreq ....    20
 Integral Threshold     Thresh          ....  2.500e-11 Eh
 Primitive CutOff       TCut            ....  2.500e-12 Eh

Convergence Tolerance:
 Convergence Check Mode ConvCheckMode   .... Total+1el-Energy
 Convergence forced     ConvForced      .... 0
 Energy Change          TolE            ....  1.000e-08 Eh
 1-El. energy change                    ....  1.000e-05 Eh
 Orbital Gradient       TolG            ....  1.000e-05
 Orbital Rotation angle TolX            ....  1.000e-05
 DIIS Error             TolErr          ....  5.000e-07


Diagonalization of the overlap matrix:
Smallest eigenvalue                        ... 2.629e-04
Time for diagonalization                   ...    0.015 sec
Threshold for overlap eigenvalues          ... 1.000e-08
Number of eigenvalues below threshold      ... 0
Time for construction of square roots      ...    0.015 sec
Total time needed                          ...    0.030 sec

-------------------
DFT GRID GENERATION
-------------------

General Integration Accuracy     IntAcc      ...  4.340
Radial Grid Type                 RadialGrid  ... Gauss-Chebyshev
Angular Grid (max. acc.)         AngularGrid ... Lebedev-110
Angular grid pruning method      GridPruning ... 3 (G Style)
Weight generation scheme         WeightScheme... Becke
Basis function cutoff            BFCut       ...    1.0000e-11
Integration weight cutoff        WCut        ...    1.0000e-14
Grids for H and He will be reduced by one unit

# of grid points (after initial pruning)     ...  22284 (   0.0 sec)
# of grid points (after weights+screening)   ...  20631 (   0.2 sec)
nearest neighbour list constructed           ...    0.0 sec
Grid point re-assignment to atoms done       ...    0.0 sec
Grid point division into batches done        ...    0.1 sec
Reduced shell lists constructed in    1.1 sec

Total number of grid points                  ...    20631
Total number of batches                      ...      330
Average number of points per batch           ...       62
Average number of grid points per atom       ...     1214
Average number of shells per batch           ...    55.43 (68.43%)
Average number of basis functions per batch  ...   117.94 (67.39%)
Average number of large shells per batch     ...    42.84 (77.29%)
Average number of large basis fcns per batch ...    89.89 (76.22%)
Maximum spatial batch extension              ...  19.24, 21.79, 19.36 au
Average spatial batch extension              ...   4.02,  3.89,  3.59 au

Time for grid setup =    1.348 sec

------------------------------
INITIAL GUESS: MODEL POTENTIAL
------------------------------
Loading Hartree-Fock densities                     ... done
Calculating cut-offs                               ... done
Setting up the integral package                    ... done
Initializing the effective Hamiltonian             ... done
Starting the Coulomb interaction                   ... done (   0.8 sec)
Reading the grid                                   ... done
Mapping shells                                     ... done
Starting the XC term evaluation                    ... done (   1.3 sec)
  promolecular density results
     # of electrons  =     72.000707774
     EX              =    -60.842046368
     EC              =     -2.453326948
     EX+EC           =    -63.295373316
Transforming the Hamiltonian                       ... done (   0.0 sec)
Diagonalizing the Hamiltonian                      ... done (   0.0 sec)
Back transforming the eigenvectors                 ... done (   0.0 sec)
Now organizing SCF variables                       ... done
                      ------------------
                      INITIAL GUESS DONE (   3.9 sec)
                      ------------------
--------------
SCF ITERATIONS
--------------
ITER       Energy         Delta-E        Max-DP      RMS-DP      [F,P]     Damp
               ***  Starting incremental Fock matrix formation  ***
  0   -475.0903080249   0.000000000000 0.10956703  0.00304621  0.3414847 0.7000
  1   -475.2405414323  -0.150233407440 0.04318600  0.00173002  0.0699723 0.7000
                               ***Turning on DIIS***
  2   -475.2815153825  -0.040973950187 0.06197056  0.00278435  0.0434157 0.0000
  3   -475.3755224748  -0.094007092255 0.03177855  0.00109148  0.0382158 0.0000
  4   -475.3840878139  -0.008565339154 0.02470786  0.00043511  0.0500125 0.0000
  5   -475.3873404508  -0.003252636892 0.00472248  0.00014255  0.0042134 0.0000
  6   -475.3874329040  -0.000092453217 0.00186014  0.00005008  0.0038556 0.0000
                      *** Initiating the SOSCF procedure ***
                           *** Shutting down DIIS ***
                      *** Re-Reading the Fockian *** 
                      *** Removing any level shift *** 
ITER      Energy       Delta-E        Grad      Rot      Max-DP    RMS-DP
  7   -475.38745254  -0.0000196362  0.000264  0.000264  0.001736  0.000031
               *** Restarting incremental Fock matrix formation ***
  8   -475.38744937   0.0000031704  0.000873  0.005172  0.004743  0.000086
  9   -475.38737087   0.0000784955  0.003580  0.004107  0.003589  0.000069
 10   -475.38745387  -0.0000829981  0.000175  0.000694  0.000934  0.000025
 11   -475.38745001   0.0000038672  0.000503  0.000405  0.000719  0.000017
 12   -475.38745461  -0.0000046008  0.000033  0.000190  0.000150  0.000006
 13   -475.38745450   0.0000001092  0.000058  0.000126  0.000111  0.000004
 14   -475.38745465  -0.0000001561  0.000006  0.000021  0.000029  0.000001
 15   -475.38745465   0.0000000022  0.000009  0.000013  0.000016  0.000001
                  ***Gradient check signals convergence***
              ***Rediagonalizing the Fockian in SOSCF/NRSCF***

               *****************************************************
               *                     SUCCESS                       *
               *           SCF CONVERGED AFTER  16 CYCLES          *
               *****************************************************

Setting up the final grid:

General Integration Accuracy     IntAcc      ...  4.670
Radial Grid Type                 RadialGrid  ... Gauss-Chebyshev
Angular Grid (max. acc.)         AngularGrid ... Lebedev-302
Angular grid pruning method      GridPruning ... 3 (G Style)
Weight generation scheme         WeightScheme... Becke
Basis function cutoff            BFCut       ...    1.0000e-11
Integration weight cutoff        WCut        ...    1.0000e-14
Grids for H and He will be reduced by one unit

# of grid points (after initial pruning)     ...  85878 (   0.1 sec)
# of grid points (after weights+screening)   ...  78406 (   0.5 sec)
nearest neighbour list constructed           ...    0.0 sec
Grid point re-assignment to atoms done       ...    0.0 sec
Grid point division into batches done        ...    0.9 sec
Reduced shell lists constructed in    2.5 sec

Total number of grid points                  ...    78406
Total number of batches                      ...     1236
Average number of points per batch           ...       63
Average number of grid points per atom       ...     4612
Average number of shells per batch           ...    50.51 (62.35%)
Average number of basis functions per batch  ...   106.54 (60.88%)
Average number of large shells per batch     ...    38.27 (75.77%)
Average number of large basis fcns per batch ...    79.36 (74.49%)
Maximum spatial batch extension              ...  21.69, 18.35, 18.16 au
Average spatial batch extension              ...   2.59,  2.55,  2.45 au

Final grid set up in    3.1 sec
Final integration                            ... done (   2.5 sec)
Change in XC energy                          ...    -0.000164932
Integrated number of electrons               ...    71.999871513
Previous integrated no of electrons          ...    72.001459535

----------------
TOTAL SCF ENERGY
----------------

Total Energy       :         -475.38761959 Eh          -12935.95478 eV

Components:
Nuclear Repulsion  :          491.46976271 Eh           13373.57214 eV
Electronic Energy  :         -966.85738229 Eh          -26309.52692 eV
One Electron Energy:        -1619.74475767 Eh          -44075.49561 eV
Two Electron Energy:          652.88737537 Eh           17765.96869 eV

Virial components:
Potential Energy   :         -945.71805473 Eh          -25734.29658 eV
Kinetic Energy     :          470.33043515 Eh           12798.34180 eV
Virial Ratio       :            2.01075241


DFT components:
N(Alpha)           :       35.999935756432 electrons
N(Beta)            :       35.999935756432 electrons
N(Total)           :       71.999871512864 electrons
E(X)               :      -48.833811490122 Eh       
E(C)               :       -2.890665461459 Eh       
E(XC)              :      -51.724476951581 Eh       
DFET-embed. en.    :        0.000000000000 Eh       

---------------
SCF CONVERGENCE
---------------

  Last Energy change         ...   -3.6699e-09  Tolerance :   1.0000e-08
  Last MAX-Density change    ...    4.2770e-06  Tolerance :   1.0000e-07
  Last RMS-Density change    ...    8.6877e-08  Tolerance :   5.0000e-09
  Last Orbital Gradient      ...    5.0771e-07  Tolerance :   1.0000e-05
  Last Orbital Rotation      ...    1.8435e-06  Tolerance :   1.0000e-05

             **** THE GBW FILE WAS UPDATED (products4.gbw) ****
             **** DENSITY FILE WAS UPDATED (products4.scfp) ****
             **** ENERGY FILE WAS UPDATED (products4.en.tmp) ****
             **** THE GBW FILE WAS UPDATED (products4.gbw) ****
             **** DENSITY FILE WAS UPDATED (products4.scfp) ****
----------------
ORBITAL ENERGIES
----------------

  NO   OCC          E(Eh)            E(eV) 
   0   2.0000     -19.181591      -521.9576 
   1   2.0000     -19.163861      -521.4752 
   2   2.0000     -14.544748      -395.7827 
   3   2.0000     -10.265892      -279.3491 
   4   2.0000     -10.238897      -278.6145 
   5   2.0000     -10.226820      -278.2859 
   6   2.0000     -10.221416      -278.1389 
   7   2.0000     -10.216554      -278.0066 
   8   2.0000     -10.216351      -278.0010 
   9   2.0000     -10.215981      -277.9910 
  10   2.0000      -1.119805       -30.4715 
  11   2.0000      -0.956518       -26.0282 
  12   2.0000      -0.884704       -24.0740 
  13   2.0000      -0.808236       -21.9932 
  14   2.0000      -0.785414       -21.3722 
  15   2.0000      -0.719422       -19.5765 
  16   2.0000      -0.676654       -18.4127 
  17   2.0000      -0.618868       -16.8402 
  18   2.0000      -0.592107       -16.1120 
  19   2.0000      -0.537846       -14.6355 
  20   2.0000      -0.509632       -13.8678 
  21   2.0000      -0.501743       -13.6531 
  22   2.0000      -0.489182       -13.3113 
  23   2.0000      -0.463187       -12.6040 
  24   2.0000      -0.457702       -12.4547 
  25   2.0000      -0.431557       -11.7433 
  26   2.0000      -0.423183       -11.5154 
  27   2.0000      -0.400272       -10.8920 
  28   2.0000      -0.378874       -10.3097 
  29   2.0000      -0.374218       -10.1830 
  30   2.0000      -0.366182        -9.9643 
  31   2.0000      -0.307286        -8.3617 
  32   2.0000      -0.295177        -8.0322 
  33   2.0000      -0.289034        -7.8650 
  34   2.0000      -0.276076        -7.5124 
  35   2.0000      -0.272589        -7.4175 
  36   0.0000      -0.126328        -3.4376 
  37   0.0000      -0.034715        -0.9446 
  38   0.0000      -0.028626        -0.7789 
  39   0.0000       0.046103         1.2545 
  40   0.0000       0.063898         1.7388 
  41   0.0000       0.069179         1.8825 
  42   0.0000       0.094035         2.5588 
  43   0.0000       0.101755         2.7689 
  44   0.0000       0.113969         3.1012 
  45   0.0000       0.121082         3.2948 
  46   0.0000       0.139171         3.7870 
  47   0.0000       0.145708         3.9649 
  48   0.0000       0.191563         5.2127 
  49   0.0000       0.202843         5.5196 
  50   0.0000       0.221238         6.0202 
  51   0.0000       0.264049         7.1851 
  52   0.0000       0.272352         7.4111 
  53   0.0000       0.292189         7.9509 
  54   0.0000       0.313081         8.5194 
  55   0.0000       0.331462         9.0195 
  56   0.0000       0.379958        10.3392 
  57   0.0000       0.390518        10.6265 
  58   0.0000       0.413270        11.2457 
  59   0.0000       0.420625        11.4458 
  60   0.0000       0.432943        11.7810 
  61   0.0000       0.453280        12.3344 
  62   0.0000       0.460711        12.5366 
  63   0.0000       0.473401        12.8819 
  64   0.0000       0.482532        13.1304 
  65   0.0000       0.516614        14.0578 
  66   0.0000       0.527588        14.3564 
  67   0.0000       0.552753        15.0412 
  68   0.0000       0.564053        15.3487 
  69   0.0000       0.582378        15.8473 
  70   0.0000       0.595533        16.2053 
  71   0.0000       0.610244        16.6056 
  72   0.0000       0.612616        16.6701 
  73   0.0000       0.621636        16.9156 
  74   0.0000       0.629957        17.1420 
  75   0.0000       0.646866        17.6021 
  76   0.0000       0.653516        17.7831 
  77   0.0000       0.673031        18.3141 
  78   0.0000       0.684887        18.6367 
  79   0.0000       0.694070        18.8866 
  80   0.0000       0.699109        19.0237 
  81   0.0000       0.709503        19.3066 
  82   0.0000       0.730912        19.8891 
  83   0.0000       0.763797        20.7840 
  84   0.0000       0.768230        20.9046 
  85   0.0000       0.798046        21.7159 
  86   0.0000       0.824163        22.4266 
  87   0.0000       0.887042        24.1376 
  88   0.0000       0.891956        24.2714 
  89   0.0000       0.930882        25.3306 
  90   0.0000       0.942182        25.6381 
  91   0.0000       0.980347        26.6766 
  92   0.0000       1.011474        27.5236 
  93   0.0000       1.050567        28.5874 
  94   0.0000       1.058718        28.8092 
  95   0.0000       1.101990        29.9867 
  96   0.0000       1.110171        30.2093 
  97   0.0000       1.129997        30.7488 
  98   0.0000       1.173126        31.9224 
  99   0.0000       1.186475        32.2856 
 100   0.0000       1.194437        32.5023 
 101   0.0000       1.220031        33.1987 
 102   0.0000       1.235291        33.6140 
 103   0.0000       1.248344        33.9692 
 104   0.0000       1.271341        34.5949 
 105   0.0000       1.290885        35.1268 
 106   0.0000       1.330111        36.1942 
 107   0.0000       1.392762        37.8990 
 108   0.0000       1.459495        39.7149 
 109   0.0000       1.477852        40.2144 
 110   0.0000       1.511373        41.1265 
 111   0.0000       1.518723        41.3265 
 112   0.0000       1.548675        42.1416 
 113   0.0000       1.647090        44.8196 
 114   0.0000       1.668453        45.4009 
 115   0.0000       1.675325        45.5879 
 116   0.0000       1.687469        45.9184 
 117   0.0000       1.698197        46.2103 
 118   0.0000       1.708162        46.4815 
 119   0.0000       1.733846        47.1804 
 120   0.0000       1.742177        47.4070 
 121   0.0000       1.753253        47.7084 
 122   0.0000       1.775518        48.3143 
 123   0.0000       1.780665        48.4544 
 124   0.0000       1.794865        48.8408 
 125   0.0000       1.828326        49.7513 
 126   0.0000       1.873137        50.9706 
 127   0.0000       1.894041        51.5395 
 128   0.0000       1.913547        52.0703 
 129   0.0000       1.929208        52.4964 
 130   0.0000       1.967512        53.5387 
 131   0.0000       1.979979        53.8780 
 132   0.0000       1.992519        54.2192 
 133   0.0000       2.030589        55.2551 
 134   0.0000       2.082347        56.6635 
 135   0.0000       2.088154        56.8215 
 136   0.0000       2.107596        57.3506 
 137   0.0000       2.126934        57.8768 
 138   0.0000       2.141165        58.2641 
 139   0.0000       2.204327        59.9828 
 140   0.0000       2.230857        60.7047 
 141   0.0000       2.242809        61.0299 
 142   0.0000       2.273367        61.8615 
 143   0.0000       2.276624        61.9501 
 144   0.0000       2.306820        62.7718 
 145   0.0000       2.355639        64.1002 
 146   0.0000       2.368457        64.4490 
 147   0.0000       2.387381        64.9640 
 148   0.0000       2.422234        65.9123 
 149   0.0000       2.509387        68.2839 
 150   0.0000       2.547412        69.3186 
 151   0.0000       2.585433        70.3532 
 152   0.0000       2.592099        70.5346 
 153   0.0000       2.630240        71.5725 
 154   0.0000       2.642832        71.9151 
 155   0.0000       2.665037        72.5193 
 156   0.0000       2.671463        72.6942 
 157   0.0000       2.686198        73.0952 
 158   0.0000       2.705203        73.6123 
 159   0.0000       2.720465        74.0276 
 160   0.0000       2.738076        74.5068 
 161   0.0000       2.801915        76.2440 
 162   0.0000       2.819491        76.7222 
 163   0.0000       2.840803        77.3022 
 164   0.0000       2.885304        78.5131 
 165   0.0000       2.892247        78.7021 
 166   0.0000       2.968112        80.7664 
 167   0.0000       2.997457        81.5650 
 168   0.0000       3.049782        82.9888 
 169   0.0000       3.058878        83.2363 
 170   0.0000       3.171407        86.2984 
 171   0.0000       3.205286        87.2203 
 172   0.0000       3.515720        95.6676 
 173   0.0000       3.580104        97.4196 
 174   0.0000       3.629950        98.7760 

                    ********************************
                    * MULLIKEN POPULATION ANALYSIS *
                    ********************************

-----------------------
MULLIKEN ATOMIC CHARGES
-----------------------
   0 C :   -0.049223
   1 C :    0.147685
   2 C :    0.015267
   3 C :    0.016626
   4 C :    0.055487
   5 C :   -0.033027
   6 C :    0.013090
   7 H :    0.076606
   8 H :    0.032534
   9 H :    0.052467
  10 H :    0.001952
  11 H :   -0.002855
  12 H :   -0.003520
  13 H :   -0.009075
  14 N :    0.192121
  15 O :   -0.232287
  16 O :   -0.273849
Sum of atomic charges:    0.0000000

--------------------------------
MULLIKEN REDUCED ORBITAL CHARGES
--------------------------------
  0 C s       :     3.119277  s :     3.119277
      pz      :     0.995989  p :     2.888529
      px      :     0.924479
      py      :     0.968061
      dz2     :     0.011293  d :     0.041417
      dxz     :     0.006935
      dyz     :     0.010685
      dx2y2   :     0.005957
      dxy     :     0.006547
  1 C s       :     3.015201  s :     3.015201
      pz      :     0.947461  p :     2.789531
      px      :     1.026409
      py      :     0.815661
      dz2     :     0.010052  d :     0.047584
      dxz     :     0.007856
      dyz     :     0.016842
      dx2y2   :     0.005660
      dxy     :     0.007174
  2 C s       :     3.261251  s :     3.261251
      pz      :     0.816082  p :     2.689841
      px      :     0.942150
      py      :     0.931610
      dz2     :     0.008573  d :     0.033641
      dxz     :     0.003737
      dyz     :     0.008536
      dx2y2   :     0.006528
      dxy     :     0.006267
  3 C s       :     3.157618  s :     3.157618
      pz      :     0.935249  p :     2.791194
      px      :     0.977137
      py      :     0.878807
      dz2     :     0.009745  d :     0.034562
      dxz     :     0.006256
      dyz     :     0.010802
      dx2y2   :     0.004030
      dxy     :     0.003729
  4 C s       :     3.158146  s :     3.158146
      pz      :     0.927183  p :     2.750936
      px      :     0.923359
      py      :     0.900394
      dz2     :     0.008876  d :     0.035431
      dxz     :     0.006318
      dyz     :     0.011648
      dx2y2   :     0.004009
      dxy     :     0.004580
  5 C s       :     3.231136  s :     3.231136
      pz      :     0.838965  p :     2.768381
      px      :     0.985316
      py      :     0.944100
      dz2     :     0.009115  d :     0.033510
      dxz     :     0.003685
      dyz     :     0.009535
      dx2y2   :     0.005535
      dxy     :     0.005639
  6 C s       :     3.042907  s :     3.042907
      pz      :     0.948656  p :     2.918827
      px      :     1.002473
      py      :     0.967697
      dz2     :     0.006708  d :     0.025176
      dxz     :     0.002800
      dyz     :     0.004582
      dx2y2   :     0.004933
      dxy     :     0.006153
  7 H s       :     0.903288  s :     0.903288
      pz      :     0.004137  p :     0.020106
      px      :     0.008024
      py      :     0.007945
  8 H s       :     0.948348  s :     0.948348
      pz      :     0.012309  p :     0.019118
      px      :     0.003765
      py      :     0.003045
  9 H s       :     0.926820  s :     0.926820
      pz      :     0.005334  p :     0.020713
      px      :     0.010875
      py      :     0.004504
 10 H s       :     0.974680  s :     0.974680
      pz      :     0.015004  p :     0.023368
      px      :     0.004502
      py      :     0.003862
 11 H s       :     0.979872  s :     0.979872
      pz      :     0.005138  p :     0.022983
      px      :     0.005504
      py      :     0.012340
 12 H s       :     0.980516  s :     0.980516
      pz      :     0.007474  p :     0.023004
      px      :     0.006019
      py      :     0.009511
 13 H s       :     0.986148  s :     0.986148
      pz      :     0.014774  p :     0.022927
      px      :     0.004483
      py      :     0.003670
 14 N s       :     3.422125  s :     3.422125
      pz      :     1.099692  p :     3.313458
      px      :     1.143426
      py      :     1.070340
      dz2     :     0.013892  d :     0.072296
      dxz     :     0.009066
      dyz     :     0.021271
      dx2y2   :     0.013556
      dxy     :     0.014511
 15 O s       :     3.906171  s :     3.906171
      pz      :     1.266645  p :     4.309043
      px      :     1.297005
      py      :     1.745394
      dz2     :     0.004439  d :     0.017073
      dxz     :     0.005536
      dyz     :     0.003408
      dx2y2   :     0.001752
      dxy     :     0.001939
 16 O s       :     3.932549  s :     3.932549
      pz      :     1.712017  p :     4.329388
      px      :     1.581610
      py      :     1.035760
      dz2     :     0.001693  d :     0.011912
      dxz     :     0.000124
      dyz     :     0.002555
      dx2y2   :     0.004773
      dxy     :     0.002767


                     *******************************
                     * LOEWDIN POPULATION ANALYSIS *
                     *******************************

----------------------
LOEWDIN ATOMIC CHARGES
----------------------
   0 C :    0.006717
   1 C :   -0.019725
   2 C :    0.012989
   3 C :   -0.025903
   4 C :    0.010339
   5 C :   -0.024273
   6 C :   -0.065168
   7 H :    0.060269
   8 H :    0.036598
   9 H :    0.046268
  10 H :    0.039616
  11 H :    0.034751
  12 H :    0.032531
  13 H :    0.033717
  14 N :    0.309075
  15 O :   -0.209823
  16 O :   -0.277978

-------------------------------
LOEWDIN REDUCED ORBITAL CHARGES
-------------------------------
  0 C s       :     2.870916  s :     2.870916
      pz      :     1.044643  p :     3.021020
      px      :     0.934195
      py      :     1.042181
      dz2     :     0.030019  d :     0.101347
      dxz     :     0.015948
      dyz     :     0.029778
      dx2y2   :     0.012361
      dxy     :     0.013242
  1 C s       :     2.862716  s :     2.862716
      pz      :     1.015249  p :     3.036195
      px      :     1.030558
      py      :     0.990388
      dz2     :     0.028270  d :     0.120813
      dxz     :     0.017986
      dyz     :     0.044256
      dx2y2   :     0.013853
      dxy     :     0.016448
  2 C s       :     2.867831  s :     2.867831
      pz      :     1.053869  p :     3.031891
      px      :     0.954637
      py      :     1.023384
      dz2     :     0.022940  d :     0.087290
      dxz     :     0.008363
      dyz     :     0.024463
      dx2y2   :     0.016155
      dxy     :     0.015369
  3 C s       :     2.858770  s :     2.858770
      pz      :     1.057416  p :     3.077240
      px      :     0.988676
      py      :     1.031148
      dz2     :     0.027751  d :     0.089892
      dxz     :     0.014892
      dyz     :     0.029697
      dx2y2   :     0.008926
      dxy     :     0.008626
  4 C s       :     2.864135  s :     2.864135
      pz      :     1.059449  p :     3.034490
      px      :     0.938965
      py      :     1.036076
      dz2     :     0.024954  d :     0.091036
      dxz     :     0.014368
      dyz     :     0.031589
      dx2y2   :     0.009509
      dxy     :     0.010616
  5 C s       :     2.863567  s :     2.863567
      pz      :     1.036720  p :     3.072860
      px      :     0.992388
      py      :     1.043751
      dz2     :     0.024387  d :     0.087846
      dxz     :     0.008217
      dyz     :     0.026948
      dx2y2   :     0.014081
      dxy     :     0.014213
  6 C s       :     2.891047  s :     2.891047
      pz      :     1.035065  p :     3.110758
      px      :     1.052792
      py      :     1.022901
      dz2     :     0.017924  d :     0.063363
      dxz     :     0.006320
      dyz     :     0.011323
      dx2y2   :     0.011967
      dxy     :     0.015830
  7 H s       :     0.884731  s :     0.884731
      pz      :     0.009453  p :     0.055000
      px      :     0.023328
      py      :     0.022218
  8 H s       :     0.911388  s :     0.911388
      pz      :     0.035347  p :     0.052014
      px      :     0.008493
      py      :     0.008174
  9 H s       :     0.896452  s :     0.896452
      pz      :     0.013599  p :     0.057280
      px      :     0.031661
      py      :     0.012019
 10 H s       :     0.889398  s :     0.889398
      pz      :     0.044263  p :     0.070986
      px      :     0.013895
      py      :     0.012828
 11 H s       :     0.897538  s :     0.897538
      pz      :     0.015955  p :     0.067712
      px      :     0.016584
      py      :     0.035173
 12 H s       :     0.899079  s :     0.899079
      pz      :     0.022497  p :     0.068391
      px      :     0.017901
      py      :     0.027993
 13 H s       :     0.898344  s :     0.898344
      pz      :     0.042456  p :     0.067939
      px      :     0.013883
      py      :     0.011599
 14 N s       :     3.157169  s :     3.157169
      pz      :     1.130636  p :     3.390763
      px      :     1.142410
      py      :     1.117717
      dz2     :     0.026114  d :     0.142992
      dxz     :     0.019290
      dyz     :     0.043826
      dx2y2   :     0.025886
      dxy     :     0.027876
 15 O s       :     3.702915  s :     3.702915
      pz      :     1.356567  p :     4.475597
      px      :     1.352995
      py      :     1.766034
      dz2     :     0.007173  d :     0.031311
      dxz     :     0.011719
      dyz     :     0.006271
      dx2y2   :     0.002660
      dxy     :     0.003488
 16 O s       :     3.778133  s :     3.778133
      pz      :     1.721054  p :     4.478946
      px      :     1.596355
      py      :     1.161537
      dz2     :     0.003328  d :     0.020898
      dxz     :     0.000188
      dyz     :     0.003814
      dx2y2   :     0.009544
      dxy     :     0.004023


                      *****************************
                      * MAYER POPULATION ANALYSIS *
                      *****************************

  NA   - Mulliken gross atomic population
  ZA   - Total nuclear charge
  QA   - Mulliken gross atomic charge
  VA   - Mayer's total valence
  BVA  - Mayer's bonded valence
  FA   - Mayer's free valence

  ATOM       NA         ZA         QA         VA         BVA        FA
  0 C      6.0492     6.0000    -0.0492     4.0156     4.0156     0.0000
  1 C      5.8523     6.0000     0.1477     3.8003     3.8003    -0.0000
  2 C      5.9847     6.0000     0.0153     3.8865     3.8865     0.0000
  3 C      5.9834     6.0000     0.0166     3.8245     3.8245     0.0000
  4 C      5.9445     6.0000     0.0555     3.8096     3.8096     0.0000
  5 C      6.0330     6.0000    -0.0330     3.8734     3.8734    -0.0000
  6 C      5.9869     6.0000     0.0131     3.9315     3.9315     0.0000
  7 H      0.9234     1.0000     0.0766     0.9922     0.9922     0.0000
  8 H      0.9675     1.0000     0.0325     0.9824     0.9824     0.0000
  9 H      0.9475     1.0000     0.0525     0.9965     0.9965     0.0000
 10 H      0.9980     1.0000     0.0020     1.0086     1.0086     0.0000
 11 H      1.0029     1.0000    -0.0029     0.9801     0.9801     0.0000
 12 H      1.0035     1.0000    -0.0035     0.9784     0.9784    -0.0000
 13 H      1.0091     1.0000    -0.0091     0.9900     0.9900     0.0000
 14 N      6.8079     7.0000     0.1921     3.7493     3.7493     0.0000
 15 O      8.2323     8.0000    -0.2323     1.9676     1.9676     0.0000
 16 O      8.2738     8.0000    -0.2738     1.8742     1.8742     0.0000

  Mayer bond orders larger than 0.100000
B(  0-C ,  1-C ) :   1.3441 B(  0-C ,  5-C ) :   1.3898 B(  0-C ,  6-C ) :   1.0953 
B(  1-C ,  2-C ) :   1.3399 B(  1-C , 14-N ) :   0.9097 B(  2-C ,  3-C ) :   1.3955 
B(  2-C , 10-H ) :   0.9878 B(  3-C ,  4-C ) :   1.3533 B(  3-C , 11-H ) :   0.9830 
B(  4-C ,  5-C ) :   1.3696 B(  4-C , 12-H ) :   0.9843 B(  5-C , 13-H ) :   0.9883 
B(  6-C ,  7-H ) :   0.9361 B(  6-C ,  8-H ) :   0.9483 B(  6-C ,  9-H ) :   0.9419 
B( 14-N , 15-O ) :   1.4667 B( 14-N , 16-O ) :   1.3417 B( 15-O , 16-O ) :   0.3433 


-------
TIMINGS
-------

Total SCF time: 0 days 0 hours 4 min 9 sec 

Total time                  ....     249.211 sec
Sum of individual times     ....     247.526 sec  ( 99.3%)

Fock matrix formation       ....     239.987 sec  ( 96.3%)
  XC integration            ....      17.327 sec  (  7.2% of F)
    Basis function eval.    ....       5.212 sec  ( 30.1% of XC)
    Density eval.           ....       4.195 sec  ( 24.2% of XC)
    XC-Functional eval.     ....       1.038 sec  (  6.0% of XC)
    XC-Potential eval.      ....       5.694 sec  ( 32.9% of XC)
Diagonalization             ....       0.111 sec  (  0.0%)
Density matrix formation    ....       0.026 sec  (  0.0%)
Population analysis         ....       0.039 sec  (  0.0%)
Initial guess               ....       2.563 sec  (  1.0%)
Orbital Transformation      ....       0.000 sec  (  0.0%)
Orbital Orthonormalization  ....       0.000 sec  (  0.0%)
DIIS solution               ....       0.201 sec  (  0.1%)
SOSCF solution              ....       0.107 sec  (  0.0%)
Grid generation             ....       4.492 sec  (  1.8%)


-------------------------------------------------------------------------------
                          DFT DISPERSION CORRECTION                            
                                                                               
                                 DFTD4 V2.0                                    
-------------------------------------------------------------------------------
The B3LYP functional is recognized
Active option DFTDOPT                   ...         5   

-------------------------   ----------------
Dispersion correction           -0.028727280
-------------------------   ----------------


-------------------------   --------------------
FINAL SINGLE POINT ENERGY      -475.416346866430
-------------------------   --------------------

------------------------------------------------------------------------------
                         ORCA SCF GRADIENT CALCULATION
------------------------------------------------------------------------------

Gradient of the Kohn-Sham DFT energy:
Kohn-Sham wavefunction type      ... RKS
Hartree-Fock exchange scaling    ...    0.200
Number of operators              ...    1
Number of atoms                  ...   17
Basis set dimensions             ...  175
Integral neglect threshold       ... 2.5e-11
Integral primitive cutoff        ... 2.5e-12

Nuclear repulsion gradient       ... done
One Electron Gradient            ... done
Pre-screening matrix             ... done
Starting the two electron gradient:
Two electron gradient done
Exchange-correlation gradient    ... done
Dispersion correction            ... 

------------------- 
Dispersion Gradient 
------------------- 
   1  :    0.000008690    0.000135939    0.000417083
   2  :   -0.000089769    0.000068952   -0.000334327
   3  :    0.000121083   -0.000464594   -0.000410958
   4  :    0.000244332   -0.000607259   -0.000117760
   5  :    0.000260633   -0.000518355    0.000272080
   6  :    0.000179328   -0.000244364    0.000559410
   7  :   -0.000152274    0.000576480    0.000628434
   8  :    0.000076353    0.000236511    0.000103561
   9  :   -0.000060765    0.000110629    0.000220908
  10  :   -0.000148749    0.000163852    0.000094186
  11  :    0.000004771   -0.000098692   -0.000193182
  12  :    0.000059624   -0.000164564   -0.000065178
  13  :    0.000073433   -0.000137423    0.000099405
  14  :    0.000043337   -0.000036075    0.000206719
  15  :   -0.000239729    0.000338013   -0.000570525
  16  :   -0.000325768    0.000099257   -0.000526157
  17  :   -0.000053144    0.000592152   -0.000327359

  |G| =    0.011882124

done

------------------
CARTESIAN GRADIENT
------------------

   1   C   :    0.005155263   -0.010307765   -0.005285267
   2   C   :   -0.011902054    0.010397321   -0.016154728
   3   C   :    0.003404199   -0.003348439   -0.000977170
   4   C   :    0.003404023   -0.007386527   -0.000384148
   5   C   :    0.002825800   -0.007876109    0.000438093
   6   C   :   -0.000120884    0.007749529    0.016524732
   7   C   :    0.003226088   -0.022109012   -0.013338640
   8   H   :    0.036010611    0.020707618   -0.006917744
   9   H   :   -0.006234220   -0.001809136    0.043708470
  10   H   :   -0.034029387    0.001684790   -0.012790752
  11   H   :    0.001915638   -0.005167989    0.005577646
  12   H   :   -0.000181544    0.001837422    0.002056193
  13   H   :   -0.002946230    0.005038037   -0.004785622
  14   H   :    0.001153687   -0.003714808   -0.000978963
  15   N   :    0.036802793   -0.075655885    0.048791693
  16   O   :   -0.062839331   -0.044372637   -0.082320017
  17   O   :    0.024356932    0.134384051    0.026892563

Difference to translation invariance:
           :    0.0000013858    0.0000504590    0.0000563397

Norm of the cartesian gradient     ...    0.2203709924
RMS gradient                       ...    0.0308581112
MAX gradient                       ...    0.1343840508

-------
TIMINGS
-------

Total SCF gradient time            ...       67.682 sec

One electron gradient       ....       0.439 sec  (  0.6%)
Prescreening matrices       ....       0.478 sec  (  0.7%)
Two electron gradient       ....      49.818 sec  ( 73.6%)
XC gradient                 ....      16.135 sec  ( 23.8%)
------------------------------------------------------------------------------
                         ORCA GEOMETRY RELAXATION STEP
------------------------------------------------------------------------------

Reading the OPT-File                    .... done
Getting information on internals        .... done
Copying old internal coords+grads       .... done
Making the new internal coordinates     .... (new redundants).... done
Validating the new internal coordinates .... (new redundants).... done
Calculating the B-matrix                .... done
Calculating the G,G- and P matrices     .... done
Transforming gradient to internals      .... done
Projecting the internal gradient        .... done
Number of atoms                         ....  17
Number of internal coordinates          ....  78
Current Energy                          ....  -475.416346866 Eh
Current gradient norm                   ....     0.220370992 Eh/bohr
Maximum allowed component of the step   ....  0.300
Current trust radius                    ....  0.300
Evaluating the initial hessian          ....  (Almloef) done
Projecting the Hessian                  .... done
Forming the augmented Hessian           .... done
Diagonalizing the augmented Hessian     .... done
Last element of RFO vector              ....  0.928827706
Lowest eigenvalues of augmented Hessian:
 -0.076049594  0.011577411  0.017418024  0.017467353  0.017710389
Length of the computed step             ....  0.398902757
Warning: the length of the step is outside the trust region - taking restricted step instead
The input lambda is                     ....    -0.076050
   iter:   1  x=   -0.167463  g=    0.756165 f(x)=     0.069123
   iter:   2  x=   -0.216694  g=    0.395877 f(x)=     0.019490
   iter:   3  x=   -0.224805  g=    0.302348 f(x)=     0.002452
   iter:   4  x=   -0.224978  g=    0.290058 f(x)=     0.000050
   iter:   5  x=   -0.224978  g=    0.289803 f(x)=     0.000000
   iter:   6  x=   -0.224978  g=    0.289803 f(x)=     0.000000
   iter:   7  x=   -0.224978  g=    0.289803 f(x)=    -0.000000
The output lambda is                    ....    -0.224978 (7 iterations)
The final length of the internal step   ....  0.300000000
Converting the step to cartesian space:
 Initial RMS(Int)=    0.0339683110
Transforming coordinates:
 Iter   0:  RMS(Cart)=    0.0494376844 RMS(Int)=    0.0339591822
 Iter   1:  RMS(Cart)=    0.0005655395 RMS(Int)=    0.0002842178
 Iter   2:  RMS(Cart)=    0.0000281618 RMS(Int)=    0.0000157482
 Iter   3:  RMS(Cart)=    0.0000015330 RMS(Int)=    0.0000008587
 Iter   4:  RMS(Cart)=    0.0000000936 RMS(Int)=    0.0000000518
done
Storing new coordinates                 .... done

                                .--------------------.
          ----------------------|Geometry convergence|-------------------------
          Item                value                   Tolerance       Converged
          ---------------------------------------------------------------------
          RMS gradient        0.0224385652            0.0001000000      NO
          MAX gradient        0.1391841991            0.0003000000      NO
          RMS step            0.0339683110            0.0020000000      NO
          MAX step            0.2149398244            0.0040000000      NO
          ........................................................
          Max(Bonds)      0.1137      Max(Angles)    1.48
          Max(Dihed)        0.88      Max(Improp)    0.00
          ---------------------------------------------------------------------

The optimization has not yet converged - more geometry cycles are needed


    ---------------------------------------------------------------------------
                         Redundant Internal Coordinates
                            (Angstroem and degrees)

        Definition                    Value    dE/dq     Step     New-Value
    ----------------------------------------------------------------------------
     1. B(C   1,C   0)                1.4348  0.017279 -0.0123    1.4225   
     2. B(C   2,C   1)                1.4187  0.014357 -0.0098    1.4089   
     3. B(C   3,C   2)                1.3946  0.005814 -0.0036    1.3909   
     4. B(C   4,C   3)                1.3955 -0.002198  0.0016    1.3971   
     5. B(C   5,C   4)                1.4004  0.002332 -0.0014    1.3991   
     6. B(C   5,C   0)                1.4084  0.006226 -0.0041    1.4043   
     7. B(C   6,C   0)                1.5150  0.003802 -0.0032    1.5118   
     8. B(H   7,C   6)                1.1789  0.041078 -0.0448    1.1341   
     9. B(H   8,C   6)                1.1856  0.044050 -0.0487    1.1369   
    10. B(H   9,C   6)                1.1616  0.035192 -0.0371    1.1245   
    11. B(H  10,C   2)                1.0844 -0.004552  0.0041    1.0885   
    12. B(H  11,C   3)                1.0882 -0.002461  0.0022    1.0904   
    13. B(H  12,C   4)                1.0825 -0.007532  0.0067    1.0892   
    14. B(H  13,C   5)                1.0896 -0.001347  0.0012    1.0908   
    15. B(N  14,C   1)                1.4372  0.014577 -0.0111    1.4262   
    16. B(O  15,N  14)                1.3217  0.112422 -0.0684    1.2532   
    17. B(O  16,N  14)                1.4365  0.139184 -0.1137    1.3227   
    18. A(C   5,C   0,C   6)          117.40 -0.011325    1.05    118.45   
    19. A(C   1,C   0,C   5)          119.22  0.010598   -0.98    118.24   
    20. A(C   1,C   0,C   6)          123.37  0.000722   -0.06    123.31   
    21. A(C   2,C   1,N  14)          118.64  0.009493   -0.83    117.80   
    22. A(C   0,C   1,C   2)          118.42 -0.016938    1.48    119.90   
    23. A(C   0,C   1,N  14)          122.94  0.007446   -0.65    122.29   
    24. A(C   1,C   2,H  10)          120.92  0.003506   -0.36    120.55   
    25. A(C   3,C   2,H  10)          117.78 -0.009339    0.91    118.69   
    26. A(C   1,C   2,C   3)          121.30  0.005831   -0.55    120.76   
    27. A(C   2,C   3,C   4)          119.87  0.002726   -0.22    119.65   
    28. A(C   4,C   3,H  11)          120.19 -0.002624    0.23    120.43   
    29. A(C   2,C   3,H  11)          119.94 -0.000104   -0.02    119.92   
    30. A(C   3,C   4,C   5)          120.34  0.001754   -0.11    120.23   
    31. A(C   5,C   4,H  12)          119.89 -0.000375    0.01    119.89   
    32. A(C   3,C   4,H  12)          119.77 -0.001380    0.11    119.88   
    33. A(C   0,C   5,C   4)          120.82 -0.003975    0.38    121.20   
    34. A(C   4,C   5,H  13)          118.70 -0.001902    0.20    118.90   
    35. A(C   0,C   5,H  13)          120.48  0.005875   -0.58    119.90   
    36. A(H   8,C   6,H   9)          107.78 -0.000179    0.09    107.87   
    37. A(H   7,C   6,H   9)          111.99  0.011872   -1.42    110.57   
    38. A(C   0,C   6,H   9)          109.25 -0.009594    1.04    110.29   
    39. A(H   7,C   6,H   8)          108.51  0.001335   -0.12    108.39   
    40. A(C   0,C   6,H   8)          112.61  0.007938   -0.80    111.80   
    41. A(C   0,C   6,H   7)          106.75 -0.010834    1.16    107.91   
    42. A(O  15,N  14,O  16)          124.30  0.006799   -0.61    123.68   
    43. A(C   1,N  14,O  16)          118.65  0.003397   -0.31    118.34   
    44. A(C   1,N  14,O  15)          117.04 -0.010261    0.94    117.98   
    45. D(N  14,C   1,C   0,C   6)      0.50  0.000808   -0.18      0.32   
    46. D(C   2,C   1,C   0,C   6)   -179.09  0.000611   -0.14   -179.23   
    47. D(C   2,C   1,C   0,C   5)     -0.06  0.000129   -0.04     -0.10   
    48. D(N  14,C   1,C   0,C   5)    179.53  0.000326   -0.08    179.45   
    49. D(C   3,C   2,C   1,C   0)     -1.43 -0.000228    0.06     -1.37   
    50. D(H  10,C   2,C   1,N  14)     -1.67 -0.000700    0.16     -1.51   
    51. D(C   3,C   2,C   1,N  14)    178.96 -0.000413    0.10    179.06   
    52. D(H  10,C   2,C   1,C   0)    177.93 -0.000515    0.13    178.06   
    53. D(H  11,C   3,C   2,H  10)      1.85  0.000377   -0.08      1.77   
    54. D(H  11,C   3,C   2,C   1)   -178.76  0.000173   -0.03   -178.79   
    55. D(C   4,C   3,C   2,H  10)   -177.66  0.000544   -0.12   -177.78   
    56. D(C   4,C   3,C   2,C   1)      1.72  0.000341   -0.06      1.66   
    57. D(C   5,C   4,C   3,H  11)    179.99  0.000129   -0.02    179.97   
    58. D(H  12,C   4,C   3,C   2)    179.08 -0.000131    0.04    179.12   
    59. D(C   5,C   4,C   3,C   2)     -0.49 -0.000027    0.02     -0.48   
    60. D(H  12,C   4,C   3,H  11)     -0.43  0.000024    0.00     -0.43   
    61. D(H  13,C   5,C   4,H  12)     -0.91 -0.000108    0.03     -0.88   
    62. D(C   0,C   5,C   4,H  12)    179.43  0.000154   -0.03    179.40   
    63. D(C   0,C   5,C   4,C   3)     -1.00  0.000044   -0.01     -1.00   
    64. D(H  13,C   5,C   0,C   6)      0.69 -0.000141    0.04      0.73   
    65. D(H  13,C   5,C   0,C   1)   -178.40  0.000212   -0.05   -178.45   
    66. D(H  13,C   5,C   4,C   3)    178.67 -0.000217    0.05    178.72   
    67. D(C   4,C   5,C   0,C   6)   -179.65 -0.000434    0.10   -179.55   
    68. D(C   4,C   5,C   0,C   1)      1.25 -0.000081    0.02      1.27   
    69. D(H   9,C   6,C   0,C   5)   -136.77  0.001520   -0.29   -137.06   
    70. D(H   9,C   6,C   0,C   1)     42.28  0.001241   -0.21     42.07   
    71. D(H   8,C   6,C   0,C   5)    -17.04 -0.000139    0.01    -17.04   
    72. D(H   8,C   6,C   0,C   1)    162.01 -0.000418    0.09    162.10   
    73. D(H   7,C   6,C   0,C   5)    101.94 -0.000904    0.15    102.09   
    74. D(H   7,C   6,C   0,C   1)    -79.01 -0.001183    0.23    -78.78   
    75. D(O  15,N  14,C   1,C   0)   -145.13  0.003631   -0.85   -145.99   
    76. D(O  16,N  14,C   1,C   2)   -146.67  0.000280   -0.07   -146.74   
    77. D(O  16,N  14,C   1,C   0)     33.74  0.000186   -0.04     33.70   
    78. D(O  15,N  14,C   1,C   2)     34.45  0.003725   -0.88     33.57   
    ----------------------------------------------------------------------------

         *************************************************************
         *                GEOMETRY OPTIMIZATION CYCLE   2            *
         *************************************************************
---------------------------------
CARTESIAN COORDINATES (ANGSTROEM)
---------------------------------
  C     -6.329195    0.336264   -0.607388
  C     -6.464118    0.100336   -2.003721
  C     -6.060194   -1.134069   -2.549777
  C     -5.502295   -2.120285   -1.743038
  C     -5.372278   -1.898138   -0.369878
  C     -5.791445   -0.686650    0.190390
  C     -6.752755    1.624060    0.061648
  H     -5.946884    2.398464   -0.130610
  H     -6.868318    1.497922    1.185584
  H     -7.739996    1.970938   -0.350015
  H     -6.187631   -1.337692   -3.611435
  H     -5.176259   -3.063108   -2.183213
  H     -4.949181   -2.673447    0.267537
  H     -5.699369   -0.544309    1.267915
  N     -7.009527    1.073939   -2.891722
  O     -7.681949    0.667830   -3.868219
  O     -6.784097    2.352185   -2.637097

----------------------------
CARTESIAN COORDINATES (A.U.)
----------------------------
  NO LB      ZA    FRAG     MASS         X           Y           Z
   0 C     6.0000    0    12.011  -11.960445    0.635447   -1.147796
   1 C     6.0000    0    12.011  -12.215413    0.189607   -3.786485
   2 C     6.0000    0    12.011  -11.452108   -2.143080   -4.818380
   3 C     6.0000    0    12.011  -10.397831   -4.006758   -3.293865
   4 C     6.0000    0    12.011  -10.152133   -3.586961   -0.698969
   5 C     6.0000    0    12.011  -10.944246   -1.297581    0.359784
   6 C     6.0000    0    12.011  -12.760858    3.069028    0.116498
   7 H     1.0000    0     1.008  -11.237983    4.532440   -0.246817
   8 H     1.0000    0     1.008  -12.979239    2.830663    2.240428
   9 H     1.0000    0     1.008  -14.626473    3.724533   -0.661432
  10 H     1.0000    0     1.008  -11.692929   -2.527871   -6.824623
  11 H     1.0000    0     1.008   -9.781711   -5.788435   -4.125676
  12 H     1.0000    0     1.008   -9.352596   -5.052083    0.505572
  13 H     1.0000    0     1.008  -10.770246   -1.028596    2.396013
  14 N     7.0000    0    14.007  -13.246085    2.029451   -5.464563
  15 O     8.0000    0    15.999  -14.516780    1.262016   -7.309875
  16 O     8.0000    0    15.999  -12.820085    4.444986   -4.983391

--------------------------------
INTERNAL COORDINATES (ANGSTROEM)
--------------------------------
 C      0   0   0     0.000000000000     0.00000000     0.00000000
 C      1   0   0     1.422538110006     0.00000000     0.00000000
 C      2   1   0     1.408931152378   119.90361869     0.00000000
 C      3   2   1     1.390934981478   120.75738740   358.63131362
 C      4   3   2     1.397075889014   119.64695891     1.65604972
 C      5   4   3     1.399036818870   120.22658050   359.52344056
 C      1   2   3     1.511763624404   123.30573588   180.76928771
 H      7   1   2     1.134060502571   107.91298221   281.21347013
 H      7   1   2     1.136880094369   111.80695478   162.09805048
 H      7   1   2     1.124470976239   110.28849373    42.07528284
 H      3   2   1     1.088494619086   120.55352062   178.06137837
 H      4   3   2     1.090398601160   119.92494148   181.20961200
 H      5   4   3     1.089226430832   119.87767711   179.11754895
 H      6   5   4     1.090779874563   118.90185235   178.71919384
 N      2   1   3     1.426155333611   122.29199095   179.55008591
 O     15   2   1     1.253244996322   117.97781371   214.01115689
 O     15   2   1     1.322711401071   118.33899588    33.70083311

---------------------------
INTERNAL COORDINATES (A.U.)
---------------------------
 C      0   0   0     0.000000000000     0.00000000     0.00000000
 C      1   0   0     2.688207442978     0.00000000     0.00000000
 C      2   1   0     2.662494019544   119.90361869     0.00000000
 C      3   2   1     2.628486185084   120.75738740   358.63131362
 C      4   3   2     2.640090818541   119.64695891     1.65604972
 C      5   4   3     2.643796438936   120.22658050   359.52344056
 C      1   2   3     2.856819229348   123.30573588   180.76928771
 H      7   1   2     2.143063769157   107.91298221   281.21347013
 H      7   1   2     2.148392025463   111.80695478   162.09805048
 H      7   1   2     2.124942190635   110.28849373    42.07528284
 H      3   2   1     2.056956728319   120.55352062   178.06137837
 H      4   3   2     2.060554733004   119.92494148   181.20961200
 H      5   4   3     2.058339652101   119.87767711   179.11754895
 H      6   5   4     2.061275235316   118.90185235   178.71919384
 N      2   1   3     2.695043004955   122.29199095   179.55008591
 O     15   2   1     2.368289821756   117.97781371   214.01115689
 O     15   2   1     2.499562302239   118.33899588    33.70083311


Diagonalization of the overlap matrix:
Smallest eigenvalue                        ... 2.560e-04
Time for diagonalization                   ...    0.019 sec
Threshold for overlap eigenvalues          ... 1.000e-08
Number of eigenvalues below threshold      ... 0
Time for construction of square roots      ...    0.011 sec
Total time needed                          ...    0.030 sec

-------------------
DFT GRID GENERATION
-------------------

General Integration Accuracy     IntAcc      ...  4.340
Radial Grid Type                 RadialGrid  ... Gauss-Chebyshev
Angular Grid (max. acc.)         AngularGrid ... Lebedev-110
Angular grid pruning method      GridPruning ... 3 (G Style)
Weight generation scheme         WeightScheme... Becke
Basis function cutoff            BFCut       ...    1.0000e-11
Integration weight cutoff        WCut        ...    1.0000e-14
Grids for H and He will be reduced by one unit

# of grid points (after initial pruning)     ...  22284 (   0.1 sec)
# of grid points (after weights+screening)   ...  20607 (   0.2 sec)
nearest neighbour list constructed           ...    0.0 sec
Grid point re-assignment to atoms done       ...    0.0 sec
Grid point division into batches done        ...    0.1 sec
Reduced shell lists constructed in    0.6 sec

Total number of grid points                  ...    20607
Total number of batches                      ...      329
Average number of points per batch           ...       62
Average number of grid points per atom       ...     1212
Average number of shells per batch           ...    55.86 (68.96%)
Average number of basis functions per batch  ...   118.98 (67.99%)
Average number of large shells per batch     ...    43.30 (77.52%)
Average number of large basis fcns per batch ...    90.93 (76.42%)
Maximum spatial batch extension              ...  19.33, 20.45, 19.41 au
Average spatial batch extension              ...   4.04,  3.88,  3.54 au

Time for grid setup =    0.903 sec

--------------
SCF ITERATIONS
--------------
ITER       Energy         Delta-E        Max-DP      RMS-DP      [F,P]     Damp
               ***  Starting incremental Fock matrix formation  ***
  0   -475.4232913355   0.000000000000 0.01162387  0.00035227  0.0434670 0.7000
  1   -475.4263881158  -0.003096780229 0.01040577  0.00030274  0.0297837 0.7000
                               ***Turning on DIIS***
  2   -475.4286543763  -0.002266260525 0.02677602  0.00076582  0.0214427 0.0000
  3   -475.4342016673  -0.005547291032 0.00542770  0.00012767  0.0033224 0.0000
                      *** Initiating the SOSCF procedure ***
                           *** Shutting down DIIS ***
                      *** Re-Reading the Fockian *** 
                      *** Removing any level shift *** 
ITER      Energy       Delta-E        Grad      Rot      Max-DP    RMS-DP
  4   -475.43427563  -0.0000739601  0.000551  0.000551  0.001497  0.000055
               *** Restarting incremental Fock matrix formation ***
  5   -475.43429657  -0.0000209403  0.000375  0.002247  0.002057  0.000049
  6   -475.43429036   0.0000062039  0.001487  0.002064  0.002005  0.000035
  7   -475.43430144  -0.0000110749  0.000253  0.000790  0.000742  0.000023
  8   -475.43430028   0.0000011562  0.000451  0.000382  0.000636  0.000012
  9   -475.43430240  -0.0000021213  0.000057  0.000299  0.000240  0.000008
 10   -475.43430234   0.0000000636  0.000048  0.000110  0.000142  0.000005
 11   -475.43430250  -0.0000001647  0.000008  0.000042  0.000033  0.000001
 12   -475.43430250   0.0000000021  0.000012  0.000021  0.000017  0.000001
                  ***Gradient check signals convergence***
              ***Rediagonalizing the Fockian in SOSCF/NRSCF***

               *****************************************************
               *                     SUCCESS                       *
               *           SCF CONVERGED AFTER  13 CYCLES          *
               *****************************************************

Setting up the final grid:

General Integration Accuracy     IntAcc      ...  4.670
[...]
     25       0.187859   0.512166   0.133304   0.415039  -0.067794   0.168904
     26       0.038171   0.015261   0.014146   0.047243  -0.034720   0.050153
     27      -0.116799  -0.124040  -0.150428  -0.119335  -0.001187  -0.002538
     28      -0.334218  -0.309603   0.009871  -0.264284   0.000460  -0.130170
     29       0.094813   0.017998   0.640934   0.207572   0.050073  -0.076706
     30       0.064204  -0.057117  -0.025289   0.095683  -0.171522  -0.001143
     31      -0.111443   0.126319   0.059326  -0.196954   0.457879  -0.083346
     32      -0.001982  -0.032394  -0.025779   0.104075  -0.001348  -0.177139
     33       0.022976  -0.046715  -0.032824   0.132682  -0.066753  -0.142569
     34      -0.038153   0.054180   0.033739  -0.140906   0.154043   0.193542
     35       0.044778  -0.156276  -0.106046   0.457396  -0.011158  -0.394036
     36       0.021112   0.013713   0.014254  -0.012862  -0.081955  -0.094376
     37      -0.060385  -0.102075  -0.065434   0.171204   0.332193   0.294976
     38      -0.056618  -0.157784  -0.101808   0.344706   0.324551   0.152675
     39       0.041759   0.009031   0.008394   0.052975  -0.218343  -0.052725
     40      -0.085186  -0.020188  -0.040025  -0.087226   0.537031   0.186575
     41       0.023078  -0.035226  -0.020054   0.107252  -0.012670   0.136014
     42      -0.209604   0.009833   0.010897   0.005810  -0.021292   0.043670
     43       0.386492  -0.003075  -0.003563  -0.029397   0.003397   0.103491
     44      -0.366930   0.021224   0.018557   0.016153  -0.029344   0.120801
     45       0.132160  -0.006384  -0.006370  -0.004757   0.018658  -0.037281
     46       0.064051  -0.002205  -0.002907  -0.002219   0.008400  -0.030017
     47       0.330175  -0.015239  -0.015568  -0.014303   0.044522  -0.095421
     48       0.026093  -0.000108  -0.001534  -0.002920   0.001782   0.000040
     49      -0.361076  -0.001448   0.001401   0.039022  -0.005117  -0.070552
     50      -0.051445  -0.000690  -0.000112   0.004839  -0.001758  -0.018705
                 42         43         44         45         46         47    
      0       0.071386  -0.050425   0.000301  -0.000011  -0.000398   0.000886
      1      -0.174208   0.177017  -0.000850  -0.000666   0.000711  -0.001983
      2       0.024892   0.117024   0.000242  -0.000075  -0.000445   0.000559
      3      -0.054773   0.045370  -0.000122   0.000248   0.000049  -0.000086
      4       0.159460  -0.242313   0.000017   0.000086   0.000385   0.000376
      5       0.049685  -0.230511  -0.000937   0.000036  -0.000229   0.000209
      6       0.128303  -0.072746   0.000011  -0.000050  -0.000043  -0.000239
      7      -0.296489   0.211251   0.000069  -0.000084   0.000127  -0.000855
      8       0.059396   0.065300   0.000149  -0.000010   0.000131  -0.003159
      9      -0.089133   0.021642  -0.000008   0.000014   0.000015  -0.006176
     10       0.176084  -0.083739   0.000012  -0.000041  -0.000004   0.018188
     11      -0.109040  -0.079821  -0.000060  -0.000012   0.000061   0.006992
     12       0.070697  -0.043067  -0.000077   0.000038  -0.000190   0.019231
     13      -0.208883   0.169356   0.000307  -0.000101   0.000272  -0.035297
     14      -0.081749   0.155831   0.000102   0.000011  -0.000290   0.031593
     15      -0.122022   0.083687   0.000251  -0.000463   0.000231  -0.006673
     16       0.304803  -0.222826  -0.001100  -0.000271   0.000408  -0.008048
     17      -0.003702  -0.041918  -0.001379  -0.001318   0.004120  -0.063935
     18      -0.009433   0.007144  -0.010132  -0.078774  -0.042728  -0.000430
     19       0.022744  -0.025853   0.040745  -0.039082   0.033925   0.001009
     20       0.016329  -0.008287   0.029019   0.027962  -0.076512  -0.003489
     21      -0.073063  -0.001252  -0.342141   0.481348  -0.132575  -0.006049
     22       0.045626  -0.028261  -0.410009   0.603975  -0.143079  -0.006271
     23      -0.065341  -0.066496   0.156091  -0.220121   0.040585   0.002415
     24       0.051537   0.015201  -0.025946  -0.020802   0.024284   0.000825
     25      -0.118683  -0.071716   0.081025   0.028780  -0.085643  -0.002730
     26      -0.009846  -0.018599  -0.636746  -0.264872   0.703110   0.038481
     27       0.035874   0.018777   0.483821   0.476210   0.619699   0.010519
     28       0.087906  -0.011976  -0.140087  -0.159035  -0.183587  -0.002610
     29      -0.078547  -0.056197   0.145562   0.151162   0.171754   0.003471
     30      -0.112574   0.105264  -0.000227  -0.000027  -0.000229   0.005390
     31       0.290468  -0.227604   0.000604   0.000004   0.000203   0.006178
     32       0.022555   0.128609   0.000586   0.000033  -0.000544   0.043210
     33       0.022823   0.057153   0.000182  -0.000229   0.000230   0.070209
     34       0.062178  -0.133737  -0.000876   0.000811  -0.000266  -0.213978
     35       0.274566   0.010335  -0.000459   0.000305   0.000082  -0.097765
     36       0.026753   0.005888  -0.000545  -0.000494   0.002918  -0.228714
     37       0.045601  -0.105476   0.001081   0.001347  -0.005211   0.426297
     38       0.289407  -0.217237  -0.000383  -0.001049   0.004387  -0.358632
     39       0.146599  -0.110788   0.000582   0.001077  -0.002794   0.070079
     40      -0.334103   0.240172   0.003981   0.002535  -0.008186   0.111099
     41       0.076168  -0.098637   0.016077   0.014128  -0.042506   0.740894
     42       0.048253   0.081824   0.000087   0.000113   0.000160   0.000070
     43       0.260547   0.388706  -0.000011  -0.000235   0.000441  -0.000220
     44       0.202549   0.369935   0.000050  -0.000045   0.000363   0.000035
     45      -0.047365  -0.070313  -0.000036  -0.000092  -0.000159  -0.000035
     46      -0.049279  -0.090918  -0.000079   0.000021  -0.000194   0.000066
     47      -0.126651  -0.205911  -0.000063   0.000040  -0.000243  -0.000041
     48       0.002685  -0.000706   0.000009   0.000260   0.000121  -0.000017
     49      -0.171424  -0.215215  -0.000089   0.000191  -0.000262   0.000069
     50      -0.049572  -0.081112  -0.000236   0.000221  -0.000393   0.000014
                  48         49         50    
      0      -0.000858  -0.000465   0.000065
      1       0.001866   0.000914   0.000042
      2      -0.000760  -0.000567   0.000501
      3      -0.000051   0.000001  -0.000988
      4      -0.000187  -0.000053   0.002970
      5      -0.000573  -0.000115   0.001107
      6      -0.000116   0.000420  -0.010778
      7      -0.002454   0.004196  -0.011195
      8      -0.006120   0.011696  -0.085179
      9      -0.015260   0.018018   0.005949
     10       0.045712  -0.056523  -0.016403
     11       0.019282  -0.028961  -0.003741
     12       0.017462   0.021018   0.000966
     13      -0.034111  -0.038565  -0.001473
     14       0.023432   0.034294   0.002515
     15       0.004443   0.001093   0.000093
     16       0.009372   0.005622   0.000508
     17       0.052941   0.021582   0.001880
     18       0.000177   0.000071  -0.000017
     19      -0.000685  -0.000083   0.000031
     20       0.002265   0.000653  -0.000029
     21       0.004150   0.000395   0.000029
     22       0.003913  -0.000116  -0.000042
     23      -0.001971  -0.000106  -0.000076
     24      -0.000401  -0.000155   0.000033
     25       0.001441   0.000433  -0.000213
     26      -0.024602  -0.007568  -0.000100
     27      -0.005379  -0.000702   0.000009
     28       0.000993  -0.000189  -0.000021
     29      -0.002304  -0.000414   0.000026
     30       0.010296  -0.018846   0.123170
     31       0.012694  -0.023397   0.130833
     32       0.084020  -0.154192   0.963027
     33       0.171588  -0.208080  -0.050883
     34      -0.524183   0.638299   0.155288
     35      -0.240521   0.298174   0.068797
     36      -0.193333  -0.231230  -0.009567
     37       0.362679   0.431073   0.017655
     38      -0.297827  -0.362429  -0.015768
     39      -0.055278  -0.020992  -0.001589
     40      -0.091474  -0.038131  -0.003085
     41      -0.594323  -0.234464  -0.018680
     42      -0.000053  -0.000001  -0.000209
     43       0.000057   0.000191  -0.000508
     44      -0.000101   0.000124  -0.001169
     45      -0.000005   0.000065  -0.000185
     46       0.000073  -0.000170   0.000741
     47       0.000061  -0.000010   0.000299
     48       0.000007   0.000007   0.000049
     49      -0.000032  -0.000072  -0.000065
     50      -0.000002  -0.000019   0.000166


-----------
IR SPECTRUM
-----------

 Mode    freq (cm**-1)   T**2         TX         TY         TZ
-------------------------------------------------------------------
   6:        46.25    0.101349  (  0.114132  -0.192933   0.226053)
   7:       137.45    1.452058  (  1.065461   0.441776  -0.348834)
   8:       223.65    0.765060  (  0.758378   0.383022   0.207887)
   9:       243.58    0.178334  (  0.281336  -0.183789   0.255746)
  10:       270.11    2.516301  ( -0.496011   0.800044   1.276794)
  11:       366.42    1.428913  ( -0.341204   0.732530  -0.880848)
  12:       396.33    0.454934  (  0.297750  -0.567736  -0.209653)
  13:       442.01    0.356586  (  0.333256   0.485873  -0.097232)
  14:       499.70    4.278941  ( -1.842767  -0.634023   0.693660)
  15:       546.92    0.259975  ( -0.273479  -0.338091  -0.266230)
  16:       571.95    0.442208  ( -0.263961   0.601370  -0.104341)
  17:       684.45    7.205334  (  1.349971  -1.554737   1.722123)
  18:       712.31    3.453020  ( -1.212850  -1.041589   0.947158)
  19:       750.73   48.609556  ( -6.539720  -2.080926   1.229377)
  20:       810.19    6.391015  ( -1.889196   0.404202  -1.630514)
  21:       813.18    3.249793  (  1.374989   1.103575  -0.375923)
  22:       885.19   35.995781  (  2.199254  -3.882911   4.010245)
  23:       894.65    0.678500  (  0.572865  -0.409450   0.427407)
  24:       992.09    0.818665  (  0.747145  -0.491561   0.137138)
  25:      1006.80    0.663829  ( -0.007704  -0.268554   0.769187)
  26:      1029.10    0.409653  (  0.453796  -0.378808   0.245411)
  27:      1051.52    4.442754  (  1.856351   0.945028   0.321928)
  28:      1073.20    4.353841  ( -0.668260   1.936265   0.397679)
  29:      1101.15   13.756794  ( -1.080047   3.374778  -1.095978)
  30:      1168.96    4.464994  (  0.599468  -0.247771   2.011030)
  31:      1173.43    5.606125  (  0.603024  -0.539612   2.225153)
  32:      1225.14    7.895785  (  0.978818  -1.786326   1.935650)
  33:      1291.84    1.587598  (  0.580470  -1.055289  -0.370159)
  34:      1368.33   14.043322  (  0.091889   1.548327   3.411387)
  35:      1400.69   11.030670  (  0.798320  -2.763777   1.659786)
  36:      1419.59  225.478885  ( -5.690968  10.036363  -9.610577)
  37:      1443.77   21.143243  (  2.395638   0.021438   3.924755)
  38:      1452.76   10.414964  ( -1.194653  -1.144325   2.770973)
  39:      1484.35   15.528704  (  0.852477  -1.861754   3.366877)
  40:      1514.18   14.156482  ( -1.717579   3.336898   0.267423)
  41:      1628.16   22.719482  (  0.312798   4.413828   1.771936)
  42:      1653.28   70.072073  (  2.717273   4.388140   6.590351)
  43:      1690.58  162.445799  (  2.035035   9.481962   8.270238)
  44:      3047.51   11.676702  ( -0.738412   1.840843   2.782579)
  45:      3129.47    3.588715  ( -1.546854  -0.107319   1.088320)
  46:      3136.77   12.784995  ( -0.921791  -0.048021  -3.454416)
  47:      3178.78    1.951158  (  0.302479  -0.974847  -0.953592)
  48:      3191.31    8.642614  (  0.254579   0.499587   2.885865)
  49:      3203.03    7.731865  (  1.059602  -2.492965   0.627881)
  50:      3233.28    2.846455  (  0.644940  -0.520188   1.469664)

The first frequency considered to be a vibration is 6
The total number of vibrations considered is 45


--------------------------
THERMOCHEMISTRY AT 298.15K
--------------------------

Temperature         ... 298.15 K
Pressure            ... 1.00 atm
Total Mass          ... 137.14 AMU

Throughout the following assumptions are being made:
  (1) The electronic state is orbitally nondegenerate
  (2) There are no thermally accessible electronically excited states
  (3) Hindered rotations indicated by low frequency modes are not
      treated as such but are treated as vibrations and this may
      cause some error
  (4) All equations used are the standard statistical mechanics
      equations for an ideal gas
  (5) All vibrations are strictly harmonic

freq.      46.25  E(vib)   ...       0.53 
freq.     137.45  E(vib)   ...       0.42 
freq.     223.65  E(vib)   ...       0.33 
freq.     243.58  E(vib)   ...       0.31 
freq.     270.11  E(vib)   ...       0.29 
freq.     366.42  E(vib)   ...       0.22 
freq.     396.33  E(vib)   ...       0.20 
freq.     442.01  E(vib)   ...       0.17 
freq.     499.70  E(vib)   ...       0.14 
freq.     546.92  E(vib)   ...       0.12 
freq.     571.95  E(vib)   ...       0.11 
freq.     684.45  E(vib)   ...       0.07 
freq.     712.31  E(vib)   ...       0.07 
freq.     750.73  E(vib)   ...       0.06 
freq.     810.19  E(vib)   ...       0.05 
freq.     813.18  E(vib)   ...       0.05 
freq.     885.19  E(vib)   ...       0.04 
freq.     894.65  E(vib)   ...       0.03 
freq.     992.09  E(vib)   ...       0.02 
freq.    1006.80  E(vib)   ...       0.02 
freq.    1029.10  E(vib)   ...       0.02 
freq.    1051.52  E(vib)   ...       0.02 
freq.    1073.20  E(vib)   ...       0.02 
freq.    1101.15  E(vib)   ...       0.02 
freq.    1168.96  E(vib)   ...       0.01 
freq.    1173.43  E(vib)   ...       0.01 
freq.    1225.14  E(vib)   ...       0.01 
freq.    1291.84  E(vib)   ...       0.01 
freq.    1368.33  E(vib)   ...       0.01 
freq.    1400.69  E(vib)   ...       0.00 
freq.    1419.59  E(vib)   ...       0.00 
freq.    1443.77  E(vib)   ...       0.00 
freq.    1452.76  E(vib)   ...       0.00 
freq.    1484.35  E(vib)   ...       0.00 
freq.    1514.18  E(vib)   ...       0.00 
freq.    1628.16  E(vib)   ...       0.00 
freq.    1653.28  E(vib)   ...       0.00 
freq.    1690.58  E(vib)   ...       0.00 
freq.    3047.51  E(vib)   ...       0.00 
freq.    3129.47  E(vib)   ...       0.00 
freq.    3136.77  E(vib)   ...       0.00 
freq.    3178.78  E(vib)   ...       0.00 
freq.    3191.31  E(vib)   ...       0.00 
freq.    3203.03  E(vib)   ...       0.00 
freq.    3233.28  E(vib)   ...       0.00 

------------
INNER ENERGY
------------

The inner energy is: U= E(el) + E(ZPE) + E(vib) + E(rot) + E(trans)
    E(el)   - is the total energy from the electronic structure calculation
              = E(kin-el) + E(nuc-el) + E(el-el) + E(nuc-nuc)
    E(ZPE)  - the the zero temperature vibrational energy from the frequency calculation
    E(vib)  - the the finite temperature correction to E(ZPE) due to population
              of excited vibrational states
    E(rot)  - is the rotational thermal energy
    E(trans)- is the translational thermal energy

Summary of contributions to the inner energy U:
Electronic energy                ...   -475.47971957 Eh
Zero point energy                ...      0.13118634 Eh      82.32 kcal/mol
Thermal vibrational correction   ...      0.00539605 Eh       3.39 kcal/mol
Thermal rotational correction    ...      0.00141627 Eh       0.89 kcal/mol
Thermal translational correction ...      0.00141627 Eh       0.89 kcal/mol
-----------------------------------------------------------------------
Total thermal energy                   -475.34030463 Eh


Summary of corrections to the electronic energy:
(perhaps to be used in another calculation)
Total thermal correction                  0.00822860 Eh       5.16 kcal/mol
Non-thermal (ZPE) correction              0.13118634 Eh      82.32 kcal/mol
-----------------------------------------------------------------------
Total correction                          0.13941494 Eh      87.48 kcal/mol


--------
ENTHALPY
--------

The enthalpy is H = U + kB*T
                kB is Boltzmann's constant
Total free energy                 ...   -475.34030463 Eh 
Thermal Enthalpy correction       ...      0.00094421 Eh       0.59 kcal/mol
-----------------------------------------------------------------------
Total Enthalpy                    ...   -475.33936042 Eh


Note: Only C1 symmetry has been detected, increase convergence thresholds 
      if your molecule has a higher symmetry. Symmetry factor of 1.0 is   
      used for the rotational entropy correction. 
 

Note: Rotational entropy computed according to Herzberg 
Infrared and Raman Spectra, Chapter V,1, Van Nostrand Reinhold, 1945 
Point Group:  C1, Symmetry Number:   1  
Rotational constants in cm-1:     0.075120     0.041909     0.027341 

Vibrational entropy computed according to the QRRHO of S. Grimme
Chem.Eur.J. 2012 18 9955


-------
ENTROPY
-------

The entropy contributions are T*S = T*(S(el)+S(vib)+S(rot)+S(trans))
     S(el)   - electronic entropy
     S(vib)  - vibrational entropy
     S(rot)  - rotational entropy
     S(trans)- translational entropy
The entropies will be listed as mutliplied by the temperature to get
units of energy

Electronic entropy                ...      0.00000000 Eh      0.00 kcal/mol
Vibrational entropy               ...      0.00888506 Eh      5.58 kcal/mol
Rotational entropy                ...      0.01392971 Eh      8.74 kcal/mol
Translational entropy             ...      0.01931853 Eh     12.12 kcal/mol
-----------------------------------------------------------------------
Final entropy term                ...      0.04213330 Eh     26.44 kcal/mol

In case the symmetry of your molecule has not been determined correctly
or in case you have a reason to use a different symmetry number we print 
out the resulting rotational entropy values for sn=1,12 :
 --------------------------------------------------------
|  sn= 1 | S(rot)=       0.01392971 Eh      8.74 kcal/mol|
|  sn= 2 | S(rot)=       0.01327525 Eh      8.33 kcal/mol|
|  sn= 3 | S(rot)=       0.01289242 Eh      8.09 kcal/mol|
|  sn= 4 | S(rot)=       0.01262080 Eh      7.92 kcal/mol|
|  sn= 5 | S(rot)=       0.01241011 Eh      7.79 kcal/mol|
|  sn= 6 | S(rot)=       0.01223797 Eh      7.68 kcal/mol|
|  sn= 7 | S(rot)=       0.01209242 Eh      7.59 kcal/mol|
|  sn= 8 | S(rot)=       0.01196634 Eh      7.51 kcal/mol|
|  sn= 9 | S(rot)=       0.01185513 Eh      7.44 kcal/mol|
|  sn=10 | S(rot)=       0.01175565 Eh      7.38 kcal/mol|
|  sn=11 | S(rot)=       0.01166566 Eh      7.32 kcal/mol|
|  sn=12 | S(rot)=       0.01158351 Eh      7.27 kcal/mol|
 --------------------------------------------------------


-------------------
GIBBS FREE ENERGY
-------------------

The Gibbs free energy is G = H - T*S

Total enthalpy                    ...   -475.33936042 Eh 
Total entropy correction          ...     -0.04213330 Eh    -26.44 kcal/mol
-----------------------------------------------------------------------
Final Gibbs free energy         ...   -475.38149372 Eh

For completeness - the Gibbs free energy minus the electronic energy
G-E(el)                           ...      0.09822585 Eh     61.64 kcal/mol


Timings for individual modules:

Sum of individual times         ...     9220.620 sec (= 153.677 min)
GTO integral calculation        ...        8.427 sec (=   0.140 min)   0.1 %
SCF iterations                  ...     1732.124 sec (=  28.869 min)  18.8 %
SCF Gradient evaluation         ...      649.890 sec (=  10.831 min)   7.0 %
Geometry relaxation             ...        3.105 sec (=   0.052 min)   0.0 %
Analytical frequency calculation...     6827.074 sec (= 113.785 min)  74.0 %
                             ****ORCA TERMINATED NORMALLY****
TOTAL RUN TIME: 0 days 2 hours 33 minutes 48 seconds 211 msec
