
                                 *****************
                                 * O   R   C   A *
                                 *****************

                                            #,                                       
                                            ###                                      
                                            ####                                     
                                            #####                                    
                                            ######                                   
                                           ########,                                 
                                     ,,################,,,,,                         
                               ,,#################################,,                 
                          ,,##########################################,,             
                       ,#########################################, ''#####,          
                    ,#############################################,,   '####,        
                  ,##################################################,,,,####,       
                ,###########''''           ''''###############################       
              ,#####''   ,,,,##########,,,,          '''####'''          '####       
            ,##' ,,,,###########################,,,                        '##       
           ' ,,###''''                  '''############,,,                           
         ,,##''                                '''############,,,,        ,,,,,,###''
      ,#''                                            '''#######################'''  
     '                                                          ''''####''''         
             ,#######,   #######,   ,#######,      ##                                
            ,#'     '#,  ##    ##  ,#'     '#,    #''#        ######   ,####,        
            ##       ##  ##   ,#'  ##            #'  '#       #        #'  '#        
            ##       ##  #######   ##           ,######,      #####,   #    #        
            '#,     ,#'  ##    ##  '#,     ,#' ,#      #,         ##   #,  ,#        
             '#######'   ##     ##  '#######'  #'      '#     #####' # '####'        



                  #######################################################
                  #                        -***-                        #
                  #          Department of theory and spectroscopy      #
                  #    Directorship and core code : Frank Neese         #
                  #        Max Planck Institute fuer Kohlenforschung    #
                  #                Kaiser Wilhelm Platz 1               #
                  #                 D-45470 Muelheim/Ruhr               #
                  #                      Germany                        #
                  #                                                     #
                  #                  All rights reserved                #
                  #                        -***-                        #
                  #######################################################



                         Program Version 5.0.4 -  RELEASE  -

 With contributions from (in alphabetic order):
   Daniel Aravena         : Magnetic Suceptibility
   Michael Atanasov       : Ab Initio Ligand Field Theory (pilot matlab implementation)
   Alexander A. Auer      : GIAO ZORA, VPT2 properties, NMR spectrum
   Ute Becker             : Parallelization
   Giovanni Bistoni       : ED, misc. LED, open-shell LED, HFLD
   Martin Brehm           : Molecular dynamics
   Dmytro Bykov           : SCF Hessian
   Vijay G. Chilkuri      : MRCI spin determinant printing, contributions to CSF-ICE
   Dipayan Datta          : RHF DLPNO-CCSD density
   Achintya Kumar Dutta   : EOM-CC, STEOM-CC
   Dmitry Ganyushin       : Spin-Orbit,Spin-Spin,Magnetic field MRCI
   Miquel Garcia          : C-PCM and meta-GGA Hessian, CC/C-PCM, Gaussian charge scheme
   Yang Guo               : DLPNO-NEVPT2, F12-NEVPT2, CIM, IAO-localization
   Andreas Hansen         : Spin unrestricted coupled pair/coupled cluster methods
   Benjamin Helmich-Paris : MC-RPA, TRAH-SCF, COSX integrals
   Lee Huntington         : MR-EOM, pCC
   Robert Izsak           : Overlap fitted RIJCOSX, COSX-SCS-MP3, EOM
   Marcus Kettner         : VPT2
   Christian Kollmar      : KDIIS, OOCD, Brueckner-CCSD(T), CCSD density, CASPT2, CASPT2-K
   Simone Kossmann        : Meta GGA functionals, TD-DFT gradient, OOMP2, MP2 Hessian
   Martin Krupicka        : Initial AUTO-CI
   Lucas Lang             : DCDCAS
   Marvin Lechner         : AUTO-CI (C++ implementation), FIC-MRCC
   Dagmar Lenk            : GEPOL surface, SMD
   Dimitrios Liakos       : Extrapolation schemes; Compound Job, initial MDCI parallelization
   Dimitrios Manganas     : Further ROCIS development; embedding schemes
   Dimitrios Pantazis     : SARC Basis sets
   Anastasios Papadopoulos: AUTO-CI, single reference methods and gradients
   Taras Petrenko         : DFT Hessian,TD-DFT gradient, ASA, ECA, R-Raman, ABS, FL, XAS/XES, NRVS
   Peter Pinski           : DLPNO-MP2, DLPNO-MP2 Gradient
   Christoph Reimann      : Effective Core Potentials
   Marius Retegan         : Local ZFS, SOC
   Christoph Riplinger    : Optimizer, TS searches, QM/MM, DLPNO-CCSD(T), (RO)-DLPNO pert. Triples
   Tobias Risthaus        : Range-separated hybrids, TD-DFT gradient, RPA, STAB
   Michael Roemelt        : Original ROCIS implementation
   Masaaki Saitow         : Open-shell DLPNO-CCSD energy and density
   Barbara Sandhoefer     : DKH picture change effects
   Avijit Sen             : IP-ROCIS
   Kantharuban Sivalingam : CASSCF convergence, NEVPT2, FIC-MRCI
   Bernardo de Souza      : ESD, SOC TD-DFT
   Georgi Stoychev        : AutoAux, RI-MP2 NMR, DLPNO-MP2 response
   Willem Van den Heuvel  : Paramagnetic NMR
   Boris Wezisla          : Elementary symmetry handling
   Frank Wennmohs         : Technical directorship


 We gratefully acknowledge several colleagues who have allowed us to
 interface, adapt or use parts of their codes:
   Stefan Grimme, W. Hujo, H. Kruse, P. Pracht,  : VdW corrections, initial TS optimization,
                  C. Bannwarth, S. Ehlert          DFT functionals, gCP, sTDA/sTD-DF
   Ed Valeev, F. Pavosevic, A. Kumar             : LibInt (2-el integral package), F12 methods
   Garnet Chan, S. Sharma, J. Yang, R. Olivares  : DMRG
   Ulf Ekstrom                                   : XCFun DFT Library
   Mihaly Kallay                                 : mrcc  (arbitrary order and MRCC methods)
   Jiri Pittner, Ondrej Demel                    : Mk-CCSD
   Frank Weinhold                                : gennbo (NPA and NBO analysis)
   Christopher J. Cramer and Donald G. Truhlar   : smd solvation model
   Lars Goerigk                                  : TD-DFT with DH, B97 family of functionals
   V. Asgeirsson, H. Jonsson                     : NEB implementation
   FAccTs GmbH                                   : IRC, NEB, NEB-TS, DLPNO-Multilevel, CI-OPT
                                                   MM, QMMM, 2- and 3-layer-ONIOM, Crystal-QMMM,
                                                   LR-CPCM, SF, NACMEs, symmetry and pop. for TD-DFT,
                                                   nearIR, NL-DFT gradient (VV10), updates on ESD,
                                                   ML-optimized integration grids
   S Lehtola, MJT Oliveira, MAL Marques          : LibXC Library
   Liviu Ungur et al                             : ANISO software


 Your calculation uses the libint2 library for the computation of 2-el integrals
 For citations please refer to: http://libint.valeyev.net

 Your ORCA version has been built with support for libXC version: 5.1.0
 For citations please refer to: https://tddft.org/programs/libxc/

 This ORCA versions uses:
   CBLAS   interface :  Fast vector & matrix operations
   LAPACKE interface :  Fast linear algebra routines
   Shared memory     :  Shared parallel matrices


Your calculation utilizes the atom-pairwise dispersion correction
based on tight binding partial charges (D4)
Cite in your paper:
E.Caldeweyher, C.Bannwarth, S.Grimme, J.Chem.Phys., (2017), 147, 034112.
E.Caldeweyher, S.Ehlert, A.Hansen, H.Neugebauer, S.Grimme, J.Chem.Phys., (2018), in progress.
   

================================================================================

----- Orbital basis set information -----
Your calculation utilizes the basis: def2-TZVP
   F. Weigend and R. Ahlrichs, Phys. Chem. Chem. Phys. 7, 3297 (2005).

----- AuxJ basis set information -----
Your calculation utilizes the auxiliary basis: def2/J
   F. Weigend, Phys. Chem. Chem. Phys. 8, 1057 (2006).

================================================================================
                                        WARNINGS
                       Please study these warnings very carefully!
================================================================================

WARNING: Old DensityContainer found on disk!
         Will remove this file - 
         If you want to keep old densities, please start your calculation with a different basename. 


WARNING: Geometry Optimization
  ===> : Switching off AutoStart
         For restart on a previous wavefunction, please use MOREAD

INFO   : the flag for use of the SHARK integral package has been found!

================================================================================
                                       INPUT FILE
================================================================================
NAME = para_p_opt.inp
|  1> !B3LYP DEF2-TZVP OPT FREQ D4 SOSCF
|  2> 
|  3> * xyz 1 1
|  4>   C   -5.80384088495250      0.94217837906410      0.13908266536012
|  5>   C   -6.79421843246928      1.50188025393486     -0.70429866394214
|  6>   C   -7.37174323043861      0.75696705155209     -1.70270236550977
|  7>   C   -6.94765972107891     -0.56938327325119     -1.86880350201215
|  8>   C   -5.96842569348471     -1.16376285221190     -1.06312842847639
|  9>   C   -5.40834693113543     -0.40804989594576     -0.06481061354179
| 10>   C   -5.16933940933063      1.74493146151073      1.20921004480233
| 11>   H   -5.09511832859407      1.17387529874573      2.13953461682513
| 12>   H   -5.68784453045031      2.68331630208530      1.39255877781533
| 13>   H   -4.13222683260324      1.97847173378091      0.92721114574635
| 14>   H   -7.09726773915651      2.52929882572407     -0.55348662405167
| 15>   H   -8.13637292812596      1.16131230688858     -2.35051967935378
| 16>   H   -5.67641833363353     -2.18911737954253     -1.23949281364166
| 17>   H   -4.65377270470906     -0.83941077357554      0.57995440225084
| 18>   N   -7.55969898833506     -1.36867526017661     -2.92423507075017
| 19>   O   -6.83406273055394     -2.13031479494983     -3.53626054773581
| 20>   O   -8.75348855907089     -1.21358472912461     -3.11099939442010
| 21>   H   -12.76950402187731     -6.40599265450839     -9.72378394936466
| 22> **                         ****END OF INPUT****
================================================================================

                       *****************************
                       * Geometry Optimization Run *
                       *****************************

Geometry optimization settings:
Update method            Update   .... BFGS
Choice of coordinates    CoordSys .... Z-matrix Internals
Initial Hessian          InHess   .... Almoef's Model

Convergence Tolerances:
Energy Change            TolE     ....  5.0000e-06 Eh
Max. Gradient            TolMAXG  ....  3.0000e-04 Eh/bohr
RMS Gradient             TolRMSG  ....  1.0000e-04 Eh/bohr
Max. Displacement        TolMAXD  ....  4.0000e-03 bohr
RMS Displacement         TolRMSD  ....  2.0000e-03 bohr
Strict Convergence                ....  False
------------------------------------------------------------------------------
                        ORCA OPTIMIZATION COORDINATE SETUP
------------------------------------------------------------------------------

The optimization will be done in new redundant internal coordinates
Making redundant internal coordinates   ...  (new redundants) done
Evaluating the initial hessian          ...  (Almloef) done
Evaluating the coordinates              ...  done
Calculating the B-matrix                .... done
Calculating the G-matrix                .... done
Diagonalizing the G-matrix              .... done
Small eigenvalue found = 9.490e-03
Small eigenvalue found = 2.700e-02
The first mode is                       ....   53
The number of degrees of freedom        ....   48

    -----------------------------------------------------------------
                    Redundant Internal Coordinates


    -----------------------------------------------------------------
         Definition                    Initial Value    Approx d2E/dq
    -----------------------------------------------------------------
      1. B(C   1,C   0)                  1.4161         0.567623   
      2. B(C   2,C   1)                  1.3730         0.664961   
      3. B(C   3,C   2)                  1.4024         0.597039   
      4. B(C   4,C   3)                  1.4005         0.601235   
      5. B(C   5,C   4)                  1.3717         0.668362   
      6. B(C   5,C   0)                  1.4217         0.556204   
      7. B(C   6,C   0)                  1.4806         0.447911   
      8. B(H   7,C   6)                  1.0941         0.354679   
      9. B(H   8,C   6)                  1.0877         0.363193   
     10. B(H   9,C   6)                  1.0998         0.347304   
     11. B(H  10,C   1)                  1.0817         0.371188   
     12. B(H  11,C   2)                  1.0807         0.372673   
     13. B(H  12,C   4)                  1.0806         0.372734   
     14. B(H  13,C   5)                  1.0822         0.370555   
     15. B(N  14,C   3)                  1.4586         0.435004   
     16. B(O  15,N  14)                  1.2171         0.946103   
     17. B(O  16,N  14)                  1.2182         0.942045   
     18. B(H  17,O  16)                  9.3176         0.000000   
     19. B(H  17,O  15)                  9.5810         0.000000   
     20. B(H  17,N  14)                  9.9373         0.000000   
     21. A(C   5,C   0,C   6)          119.9591         0.401802   
     22. A(C   1,C   0,C   6)          121.0552         0.403244   
     23. A(C   1,C   0,C   5)          118.9810         0.419030   
     24. A(C   2,C   1,H  10)          119.9221         0.358971   
     25. A(C   0,C   1,C   2)          120.8501         0.432643   
     26. A(C   0,C   1,H  10)          119.2276         0.349471   
     27. A(C   3,C   2,H  11)          119.7918         0.352705   
     28. A(C   1,C   2,H  11)          122.0404         0.359215   
     29. A(C   1,C   2,C   3)          118.1673         0.436596   
     30. A(C   2,C   3,C   4)          123.0054         0.428760   
     31. A(C   4,C   3,N  14)          118.4971         0.402660   
     32. A(C   2,C   3,N  14)          118.4966         0.402164   
     33. A(C   3,C   4,C   5)          118.0594         0.437549   
     34. A(C   5,C   4,H  12)          122.0882         0.359537   
     35. A(C   3,C   4,H  12)          119.8524         0.353133   
     36. A(C   0,C   5,C   4)          120.9347         0.431462   
     37. A(C   4,C   5,H  13)          119.9158         0.359178   
     38. A(C   0,C   5,H  13)          119.1495         0.348176   
     39. A(H   8,C   6,H   9)          108.0319         0.289581   
     40. A(H   7,C   6,H   9)          105.3593         0.288507   
     41. A(C   0,C   6,H   9)          109.5062         0.332186   
     42. A(H   7,C   6,H   8)          109.8340         0.290537   
     43. A(C   0,C   6,H   8)          112.6630         0.334661   
     44. A(C   0,C   6,H   7)          111.1402         0.333345   
     45. A(O  16,N  14,H  17)           56.3500         0.089176   
     46. A(O  15,N  14,H  17)           69.5900         0.089176   
     47. A(C   3,N  14,H  17)          173.1709         0.089149   
     48. A(O  15,N  14,O  16)          125.9332         0.492710   
     49. A(C   3,N  14,O  16)          116.8961         0.430470   
     50. A(C   3,N  14,O  15)          117.1706         0.430803   
     51. A(N  14,O  15,H  17)          103.5726         0.089236   
     52. A(N  14,O  16,H  17)          117.4017         0.089294   
     53. A(O  15,H  17,O  16)           13.0852         0.089000   
     54. A(N  14,H  17,O  16)            6.2482         0.089000   
     55. A(N  14,H  17,O  15)            6.8374         0.089000   
     56. D(H  10,C   1,C   0,C   5)   -179.9244         0.022094   
     57. D(H  10,C   1,C   0,C   6)     -0.7114         0.022094   
     58. D(C   2,C   1,C   0,C   5)      0.2307         0.022094   
     59. D(C   2,C   1,C   0,C   6)    179.4437         0.022094   
     60. D(C   3,C   2,C   1,C   0)     -0.3937         0.030889   
     61. D(H  11,C   2,C   1,H  10)     -0.4981         0.030889   
     62. D(C   3,C   2,C   1,H  10)    179.7625         0.030889   
     63. D(H  11,C   2,C   1,C   0)    179.3457         0.030889   
     64. D(N  14,C   3,C   2,H  11)      0.0445         0.024560   
     65. D(N  14,C   3,C   2,C   1)    179.7900         0.024560   
     66. D(C   4,C   3,C   2,H  11)   -179.6083         0.024560   
     67. D(C   4,C   3,C   2,C   1)      0.1372         0.024560   
     68. D(C   5,C   4,C   3,N  14)   -179.3638         0.024925   
     69. D(H  12,C   4,C   3,C   2)   -179.6895         0.024925   
     70. D(C   5,C   4,C   3,C   2)      0.2890         0.024925   
     71. D(H  12,C   4,C   3,N  14)      0.6577         0.024925   
     72. D(H  13,C   5,C   4,H  12)     -0.4417         0.031230   
     73. D(C   0,C   5,C   4,H  12)    179.5221         0.031230   
     74. D(C   0,C   5,C   4,C   3)     -0.4559         0.031230   
     75. D(H  13,C   5,C   0,C   6)      0.9529         0.021180   
     76. D(H  13,C   5,C   4,C   3)    179.5803         0.031230   
     77. D(H  13,C   5,C   0,C   1)   -179.8253         0.021180   
     78. D(C   4,C   5,C   0,C   6)   -179.0111         0.021180   
     79. D(C   4,C   5,C   0,C   1)      0.2107         0.021180   
     80. D(H   9,C   6,C   0,C   5)     71.1263         0.014797   
     81. D(H   9,C   6,C   0,C   1)   -108.0791         0.014797   
     82. D(H   8,C   6,C   0,C   5)   -168.6230         0.014797   
     83. D(H   8,C   6,C   0,C   1)     12.1716         0.014797   
     84. D(H   7,C   6,C   0,C   5)    -44.8660         0.014797   
     85. D(H   7,C   6,C   0,C   1)    135.9287         0.014797   
     86. D(O  15,N  14,C   3,C   2)    141.7342         0.016134   
     87. D(H  17,N  14,C   3,C   4)    133.0586         0.016134   
     88. D(H  17,N  14,C   3,C   2)    -46.6101         0.016134   
     89. D(O  16,N  14,C   3,C   4)    141.2895         0.016134   
     90. D(O  16,N  14,C   3,C   2)    -38.3792         0.016134   
     91. D(O  15,N  14,C   3,C   4)    -38.5971         0.016134   
     92. D(H  17,O  15,N  14,O  16)     -0.9301         0.095090   
     93. D(H  17,O  15,N  14,C   3)    178.9450         0.095090   
     94. D(H  17,O  16,N  14,O  15)      1.0472         0.094145   
     95. D(H  17,O  16,N  14,C   3)   -178.8282         0.094145   
     96. D(O  15,H  17,O  16,N  14)     -0.4757         0.001500   
     97. D(O  16,H  17,O  15,N  14)      0.4349         0.001500   
     98. D(O  16,H  17,N  14,O  15)   -179.0953         0.001500   
     99. D(O  16,H  17,N  14,C   3)      8.8227         0.001500   
    100. D(O  15,H  17,N  14,O  16)    179.0953         0.001500   
    101. D(O  15,H  17,N  14,C   3)   -172.0820         0.001500   
    -----------------------------------------------------------------

Number of atoms                         .... 18
Number of degrees of freedom            .... 101

         *************************************************************
         *                GEOMETRY OPTIMIZATION CYCLE   1            *
         *************************************************************
---------------------------------
CARTESIAN COORDINATES (ANGSTROEM)
---------------------------------
  C     -5.803841    0.942178    0.139083
  C     -6.794218    1.501880   -0.704299
  C     -7.371743    0.756967   -1.702702
  C     -6.947660   -0.569383   -1.868804
  C     -5.968426   -1.163763   -1.063128
  C     -5.408347   -0.408050   -0.064811
  C     -5.169339    1.744931    1.209210
  H     -5.095118    1.173875    2.139535
  H     -5.687845    2.683316    1.392559
  H     -4.132227    1.978472    0.927211
  H     -7.097268    2.529299   -0.553487
  H     -8.136373    1.161312   -2.350520
  H     -5.676418   -2.189117   -1.239493
  H     -4.653773   -0.839411    0.579954
  N     -7.559699   -1.368675   -2.924235
  O     -6.834063   -2.130315   -3.536261
  O     -8.753489   -1.213585   -3.110999
  H    -12.769504   -6.405993   -9.723784

----------------------------
CARTESIAN COORDINATES (A.U.)
----------------------------
  NO LB      ZA    FRAG     MASS         X           Y           Z
   0 C     6.0000    0    12.011  -10.967670    1.780459    0.262828
   1 C     6.0000    0    12.011  -12.839212    2.838142   -1.330932
   2 C     6.0000    0    12.011  -13.930576    1.430460   -3.217641
   3 C     6.0000    0    12.011  -13.129174   -1.075978   -3.531527
   4 C     6.0000    0    12.011  -11.278690   -2.199193   -2.009022
   5 C     6.0000    0    12.011  -10.220295   -0.771103   -0.122474
   6 C     6.0000    0    12.011   -9.768636    3.297443    2.285076
   7 H     1.0000    0     1.008   -9.628378    2.218303    4.043134
   8 H     1.0000    0     1.008  -10.748468    5.070733    2.631555
   9 H     1.0000    0     1.008   -7.808777    3.738770    1.752175
  10 H     1.0000    0     1.008  -13.411892    4.779682   -1.045938
  11 H     1.0000    0     1.008  -15.375517    2.194562   -4.441838
  12 H     1.0000    0     1.008  -10.726876   -4.136832   -2.342302
  13 H     1.0000    0     1.008   -8.794356   -1.586256    1.095955
  14 N     7.0000    0    14.007  -14.285761   -2.586421   -5.526003
  15 O     8.0000    0    15.999  -12.914507   -4.025712   -6.682564
  16 O     8.0000    0    15.999  -16.541696   -2.293343   -5.878937
  17 H     1.0000    0     1.008  -24.130865  -12.105572  -18.375289

--------------------------------
INTERNAL COORDINATES (ANGSTROEM)
--------------------------------
 C      0   0   0     0.000000000000     0.00000000     0.00000000
 C      1   0   0     1.416123561690     0.00000000     0.00000000
 C      2   1   0     1.373040612166   120.85008721     0.00000000
 C      3   2   1     1.402369992036   118.16730278   359.60628924
 C      4   3   2     1.400463740623   123.00539858     0.13718595
 C      5   4   3     1.371651833345   118.05936424     0.28899368
 C      1   2   3     1.480600297912   121.05523377   179.44372691
 H      7   1   2     1.094128748899   111.14015277   135.92866026
 H      7   1   2     1.087672022048   112.66296506    12.17164584
 H      7   1   2     1.099848596238   109.50622344   251.92092916
 H      2   1   3     1.081744921558   119.22762446   179.84488998
 H      3   2   1     1.080657638762   122.04037310   179.34570183
 H      5   4   3     1.080613067328   119.85240037   180.31051661
 H      6   5   4     1.082209035042   119.91577246   179.58031445
 N      4   3   2     1.458559406166   118.49662848   179.78995853
 O     15   4   3     1.217052975024   117.17063932   141.73423787
 O     15   4   3     1.218223101331   116.89607619   321.62082585
 H     17  15   4     9.317639176916   117.40173660   181.17177423

---------------------------
INTERNAL COORDINATES (A.U.)
---------------------------
 C      0   0   0     0.000000000000     0.00000000     0.00000000
 C      1   0   0     2.676085703388     0.00000000     0.00000000
 C      2   1   0     2.594670727746   120.85008721     0.00000000
 C      3   2   1     2.650095223378   118.16730278   359.60628924
 C      4   3   2     2.646492930265   123.00539858     0.13718595
 C      5   4   3     2.592046316113   118.05936424     0.28899368
 C      1   2   3     2.797929076855   121.05523377   179.44372691
 H      7   1   2     2.067603690669   111.14015277   135.92866026
 H      7   1   2     2.055402245198   112.66296506    12.17164584
 H      7   1   2     2.078412635668   109.50622344   251.92092916
 H      2   1   3     2.044201648505   119.22762446   179.84488998
 H      3   2   1     2.042146981790   122.04037310   179.34570183
 H      5   4   3     2.042062753986   119.85240037   180.31051661
 H      6   5   4     2.045078695885   119.91577246   179.58031445
 N      4   3   2     2.756277827709   118.49662848   179.78995853
 O     15   4   3     2.299896813270   117.17063932   141.73423787
 O     15   4   3     2.302108031531   116.89607619   321.62082585
 H     17  15   4    17.607786259067   117.40173660   181.17177423

---------------------
BASIS SET INFORMATION
---------------------
There are 4 groups of distinct atoms

 Group   1 Type C   : 11s6p2d1f contracted to 5s3p2d1f pattern {62111/411/11/1}
 Group   2 Type H   : 5s1p contracted to 3s1p pattern {311/1}
 Group   3 Type N   : 11s6p2d1f contracted to 5s3p2d1f pattern {62111/411/11/1}
 Group   4 Type O   : 11s6p2d1f contracted to 5s3p2d1f pattern {62111/411/11/1}

Atom   0C    basis set group =>   1
Atom   1C    basis set group =>   1
Atom   2C    basis set group =>   1
Atom   3C    basis set group =>   1
Atom   4C    basis set group =>   1
Atom   5C    basis set group =>   1
Atom   6C    basis set group =>   1
Atom   7H    basis set group =>   2
Atom   8H    basis set group =>   2
Atom   9H    basis set group =>   2
Atom  10H    basis set group =>   2
Atom  11H    basis set group =>   2
Atom  12H    basis set group =>   2
Atom  13H    basis set group =>   2
Atom  14N    basis set group =>   3
Atom  15O    basis set group =>   4
Atom  16O    basis set group =>   4
Atom  17H    basis set group =>   2
---------------------------------
AUXILIARY/J BASIS SET INFORMATION
---------------------------------
There are 4 groups of distinct atoms

 Group   1 Type C   : 12s5p4d2f1g contracted to 6s4p3d1f1g pattern {711111/2111/211/2/1}
 Group   2 Type H   : 5s2p1d contracted to 3s1p1d pattern {311/2/1}
 Group   3 Type N   : 12s5p4d2f1g contracted to 6s4p3d1f1g pattern {711111/2111/211/2/1}
 Group   4 Type O   : 12s5p4d2f1g contracted to 6s4p3d1f1g pattern {711111/2111/211/2/1}

Atom   0C    basis set group =>   1
Atom   1C    basis set group =>   1
Atom   2C    basis set group =>   1
Atom   3C    basis set group =>   1
Atom   4C    basis set group =>   1
Atom   5C    basis set group =>   1
Atom   6C    basis set group =>   1
Atom   7H    basis set group =>   2
Atom   8H    basis set group =>   2
Atom   9H    basis set group =>   2
Atom  10H    basis set group =>   2
Atom  11H    basis set group =>   2
Atom  12H    basis set group =>   2
Atom  13H    basis set group =>   2
Atom  14N    basis set group =>   3
Atom  15O    basis set group =>   4
Atom  16O    basis set group =>   4
Atom  17H    basis set group =>   2
------------------------------------------------------------------------------
                           ORCA GTO INTEGRAL CALCULATION
                           -- RI-GTO INTEGRALS CHOSEN --
------------------------------------------------------------------------------
------------------------------------------------------------------------------
                   ___                                                        
                  /   \      - P O W E R E D   B Y -                         
                 /     \                                                     
                 |  |  |   _    _      __       _____    __    __             
                 |  |  |  | |  | |    /  \     |  _  \  |  |  /  |          
                  \  \/   | |  | |   /    \    | | | |  |  | /  /          
                 / \  \   | |__| |  /  /\  \   | |_| |  |  |/  /          
                |  |  |   |  __  | /  /__\  \  |    /   |      \           
                |  |  |   | |  | | |   __   |  |    \   |  |\   \          
                \     /   | |  | | |  |  |  |  | |\  \  |  | \   \       
                 \___/    |_|  |_| |__|  |__|  |_| \__\ |__|  \__/        
                                                                              
                      - O R C A' S   B I G   F R I E N D -                    
                                      &                                       
                       - I N T E G R A L  F E E D E R -                       
                                                                              
 v1 FN, 2020, v2 2021                                                         
------------------------------------------------------------------------------


Reading SHARK input file para_p_opt.SHARKINP.tmp ... ok
----------------------
SHARK INTEGRAL PACKAGE
----------------------

Number of atoms                             ...     18
Number of basis functions                   ...    358
Number of shells                            ...    142
Maximum angular momentum                    ...      3
Integral batch strategy                     ... SHARK/LIBINT Hybrid
RI-J (if used) integral strategy            ... SPLIT-RIJ (Revised 2003 algorithm where possible)
Printlevel                                  ...      1
Contraction scheme used                     ... SEGMENTED contraction
Coulomb Range Separation                    ... NOT USED
Exchange Range Separation                   ... NOT USED
Finite Nucleus Model                        ... NOT USED
Auxiliary Coulomb fitting basis             ... AVAILABLE
   # of basis functions in Aux-J            ...    578
   # of shells in Aux-J                     ...    190
   Maximum angular momentum in Aux-J        ...      4
Auxiliary J/K fitting basis                 ... NOT available
Auxiliary Correlation fitting basis         ... NOT available
Auxiliary 'external' fitting basis          ... NOT available
Integral threshold                          ...     2.500000e-11
Primitive cut-off                           ...     2.500000e-12
Primitive pair pre-selection threshold      ...     2.500000e-12

Calculating pre-screening integrals         ... done (  0.2 sec) Dimension = 142
Organizing shell pair data                  ... done (  0.2 sec)
Shell pair information
Total number of shell pairs                 ...     10153
Shell pairs after pre-screening             ...      8376
Total number of primitive shell pairs       ...     31120
Primitive shell pairs kept                  ...     18975
          la=0 lb=0:   2127 shell pairs
          la=1 lb=0:   2343 shell pairs
          la=1 lb=1:    650 shell pairs
          la=2 lb=0:   1228 shell pairs
          la=2 lb=1:    677 shell pairs
          la=2 lb=2:    192 shell pairs
          la=3 lb=0:    597 shell pairs
          la=3 lb=1:    337 shell pairs
          la=3 lb=2:    177 shell pairs
          la=3 lb=3:     48 shell pairs

Calculating one electron integrals          ... done (  0.1 sec)
Calculating RI/J V-Matrix + Cholesky decomp.... done (  0.0 sec)
Calculating Nuclear repulsion               ... done (  0.0 sec) ENN=    497.113167996449 Eh

SHARK setup successfully completed in   0.8 seconds

Maximum memory used throughout the entire GTOINT-calculation: 127.5 MB
-------------------------------------------------------------------------------
                                 ORCA SCF
-------------------------------------------------------------------------------

------------
SCF SETTINGS
------------
Hamiltonian:
 Density Functional     Method          .... DFT(GTOs)
 Exchange Functional    Exchange        .... B88
   X-Alpha parameter    XAlpha          ....  0.666667
   Becke's b parameter  XBeta           ....  0.004200
 Correlation Functional Correlation     .... LYP
 LDA part of GGA corr.  LDAOpt          .... VWN-5
 Gradients option       PostSCFGGA      .... off
 Hybrid DFT is turned on
   Fraction HF Exchange ScalHFX         ....  0.200000
   Scaling of DF-GGA-X  ScalDFX         ....  0.720000
   Scaling of DF-GGA-C  ScalDFC         ....  0.810000
   Scaling of DF-LDA-C  ScalLDAC        ....  1.000000
   Perturbative correction              ....  0.000000
   Density functional embedding theory  .... OFF
   NL short-range parameter             ....  4.800000
 RI-approximation to the Coulomb term is turned on
   Number of AuxJ basis functions       .... 578
   RIJ-COSX (HFX calculated with COS-X)).... on


General Settings:
 Integral files         IntName         .... para_p_opt
 Hartree-Fock type      HFTyp           .... RHF
 Total Charge           Charge          ....    1
 Multiplicity           Mult            ....    1
 Number of Electrons    NEL             ....   72
 Basis Dimension        Dim             ....  358
 Nuclear Repulsion      ENuc            ....    497.1131679964 Eh

Convergence Acceleration:
 DIIS                   CNVDIIS         .... on
   Start iteration      DIISMaxIt       ....    12
   Startup error        DIISStart       ....  0.200000
   # of expansion vecs  DIISMaxEq       ....     5
   Bias factor          DIISBfac        ....   1.050
   Max. coefficient     DIISMaxC        ....  10.000
 Trust-Rad. Augm. Hess. CNVTRAH         .... auto
   Auto Start mean grad. ratio tolernc. ....  1.125000
   Auto Start start iteration           ....    20
   Auto Start num. interpolation iter.  ....    10
   Max. Number of Micro iterations      ....    16
   Max. Number of Macro iterations      .... Maxiter - #DIIS iter
   Number of Davidson start vectors     ....     2
   Converg. threshold I  (grad. norm)   ....   1.000e-05
   Converg. threshold II (energy diff.) ....   1.000e-08
   Grad. Scal. Fac. for Micro threshold ....   0.100
   Minimum threshold for Micro iter.    ....   0.010
   NR start threshold (gradient norm)   ....   0.001
   Initial trust radius                 ....   0.400
   Minimum AH scaling param. (alpha)    ....   1.000
   Maximum AH scaling param. (alpha)    .... 1000.000
   Orbital update algorithm             .... Taylor
   White noise on init. David. guess    .... on
   Maximum white noise                  ....   0.010
   Quad. conv. algorithm                .... NR
 SOSCF                  CNVSOSCF        .... on
   Start iteration      SOSCFMaxIt      ....   150
   Startup grad/error   SOSCFStart      ....  0.003300
 Level Shifting         CNVShift        .... on
   Level shift para.    LevelShift      ....    0.2500
   Turn off err/grad.   ShiftErr        ....    0.0010
 Zerner damping         CNVZerner       .... off
 Static damping         CNVDamp         .... on
   Fraction old density DampFac         ....    0.7000
   Max. Damping (<1)    DampMax         ....    0.9800
   Min. Damping (>=0)   DampMin         ....    0.0000
   Turn off err/grad.   DampErr         ....    0.1000
 Fernandez-Rico         CNVRico         .... off

SCF Procedure:
 Maximum # iterations   MaxIter         ....   125
 SCF integral mode      SCFMode         .... Direct
   Integral package                     .... SHARK and LIBINT hybrid scheme
 Reset frequency        DirectResetFreq ....    20
 Integral Threshold     Thresh          ....  2.500e-11 Eh
 Primitive CutOff       TCut            ....  2.500e-12 Eh

Convergence Tolerance:
 Convergence Check Mode ConvCheckMode   .... Total+1el-Energy
 Convergence forced     ConvForced      .... 0
 Energy Change          TolE            ....  1.000e-08 Eh
 1-El. energy change                    ....  1.000e-05 Eh
 Orbital Gradient       TolG            ....  1.000e-05
 Orbital Rotation angle TolX            ....  1.000e-05
 DIIS Error             TolErr          ....  5.000e-07


Diagonalization of the overlap matrix:
Smallest eigenvalue                        ... 8.164e-06
Time for diagonalization                   ...    0.024 sec
Threshold for overlap eigenvalues          ... 1.000e-08
Number of eigenvalues below threshold      ... 0
Time for construction of square roots      ...    0.013 sec
Total time needed                          ...    0.038 sec

Time for model grid setup =    0.408 sec

------------------------------
INITIAL GUESS: MODEL POTENTIAL
------------------------------
Loading Hartree-Fock densities                     ... done
Calculating cut-offs                               ... done
Initializing the effective Hamiltonian             ... done
Setting up the integral package (SHARK)            ... done
Starting the Coulomb interaction                   ... done (   0.8 sec)
Reading the grid                                   ... done
Mapping shells                                     ... done
Starting the XC term evaluation                    ... done (   0.9 sec)
  promolecular density results
     # of electrons  =     72.992232958
     EX              =    -61.300615678
     EC              =     -2.482062190
     EX+EC           =    -63.782677868
Transforming the Hamiltonian                       ... done (   0.0 sec)
Diagonalizing the Hamiltonian                      ... done (   0.0 sec)
Back transforming the eigenvectors                 ... done (   0.0 sec)
Now organizing SCF variables                       ... done
                      ------------------
                      INITIAL GUESS DONE (   2.1 sec)
                      ------------------
-------------------
DFT GRID GENERATION
-------------------

General Integration Accuracy     IntAcc      ... 4.388
Radial Grid Type                 RadialGrid  ... OptM3 with GC (2021)
Angular Grid (max. ang.)         AngularGrid ... 4 (Lebedev-302)
Angular grid pruning method      GridPruning ... 4 (adaptive)
Weight generation scheme         WeightScheme... Becke
Basis function cutoff            BFCut       ... 1.0000e-11
Integration weight cutoff        WCut        ... 1.0000e-14
Angular grids for H and He will be reduced by one unit
Partially contracted basis set               ... off
Rotationally invariant grid construction     ... off

Total number of grid points                  ...    86213
Total number of batches                      ...     1358
Average number of points per batch           ...       63
Average number of grid points per atom       ...     4790
Time for grid setup =    1.389 sec

--------------------
COSX GRID GENERATION
--------------------

GRIDX 1
-------
General Integration Accuracy     IntAcc      ... 3.816
Radial Grid Type                 RadialGrid  ... OptM3 with GC (2021)
Angular Grid (max. ang.)         AngularGrid ... 1 (Lebedev-50)
Angular grid pruning method      GridPruning ... 4 (adaptive)
Weight generation scheme         WeightScheme... Becke
Basis function cutoff            BFCut       ... 1.0000e-11
Integration weight cutoff        WCut        ... 1.0000e-14
Angular grids for H and He will be reduced by one unit
Partially contracted basis set               ... on
Rotationally invariant grid construction     ... off

Total number of grid points                  ...    11017
Total number of batches                      ...      180
Average number of points per batch           ...       61
Average number of grid points per atom       ...      612
UseSFitting                                  ... on

GRIDX 2
-------
General Integration Accuracy     IntAcc      ... 4.020
Radial Grid Type                 RadialGrid  ... OptM3 with GC (2021)
Angular Grid (max. ang.)         AngularGrid ... 2 (Lebedev-110)
Angular grid pruning method      GridPruning ... 4 (adaptive)
Weight generation scheme         WeightScheme... Becke
Basis function cutoff            BFCut       ... 1.0000e-11
Integration weight cutoff        WCut        ... 1.0000e-14
Angular grids for H and He will be reduced by one unit
Partially contracted basis set               ... on
Rotationally invariant grid construction     ... off

Total number of grid points                  ...    24214
Total number of batches                      ...      388
Average number of points per batch           ...       62
Average number of grid points per atom       ...     1345
UseSFitting                                  ... on

GRIDX 3
-------
General Integration Accuracy     IntAcc      ... 4.338
Radial Grid Type                 RadialGrid  ... OptM3 with GC (2021)
Angular Grid (max. ang.)         AngularGrid ... 3 (Lebedev-194)
Angular grid pruning method      GridPruning ... 4 (adaptive)
Weight generation scheme         WeightScheme... Becke
Basis function cutoff            BFCut       ... 1.0000e-11
Integration weight cutoff        WCut        ... 1.0000e-14
Angular grids for H and He will be reduced by one unit
Partially contracted basis set               ... on
Rotationally invariant grid construction     ... off

Total number of grid points                  ...    53267
Total number of batches                      ...      841
Average number of points per batch           ...       63
Average number of grid points per atom       ...     2959
UseSFitting                                  ... on

Time for X-Grid setup             =    2.281 sec

--------------
SCF ITERATIONS
--------------
ITER       Energy         Delta-E        Max-DP      RMS-DP      [F,P]     Damp
               ***  Starting incremental Fock matrix formation  ***
  0   -475.6872396085   0.000000000000 0.15182220  0.00135820  0.2394746 0.7000
  1   -475.9612523618  -0.274012753261 0.09678402  0.00091437  0.0798759 0.7000
                               ***Turning on DIIS***
  2   -475.9681043557  -0.006851993867 0.30753166  0.00210006  0.0441528 0.0000
  3   -475.6002065145   0.367897841167 0.13867856  0.00089365  0.2551641 0.7000
  4   -475.9562963497  -0.356089835246 0.32358331  0.00209059  0.0740497 0.0000
  5   -475.9542016627   0.002094687098 0.00893504  0.00018656  0.0515789 0.0000
  6   -475.9661936424  -0.011991979707 0.00624950  0.00011915  0.0457719 0.0000
  7   -475.9711294502  -0.004935807832 0.02283160  0.00040657  0.0423466 0.0000
  8   -475.9824552560  -0.011325805850 0.02204365  0.00031426  0.0303689 0.0000
  9   -475.9872851506  -0.004829894530 0.05183850  0.00064497  0.0214589 0.0000
 10   -475.9920536455  -0.004768494897 0.01394968  0.00021408  0.0068520 0.0000
 11   -475.9925000515  -0.000446406071 0.00751203  0.00009405  0.0054158 0.0000
                      *** Initiating the SOSCF procedure ***
                           *** Shutting down DIIS ***
                      *** Re-Reading the Fockian *** 
                      *** Removing any level shift *** 
ITER      Energy       Delta-E        Grad      Rot      Max-DP    RMS-DP
 12   -475.99257051  -0.0000704544  0.000337  0.000337  0.003220  0.000037
               *** Restarting incremental Fock matrix formation ***
 13   -475.99255253   0.0000179775  0.000289  0.001223  0.002550  0.000027
 14   -475.99254872   0.0000038107  0.000989  0.001157  0.000529  0.000012
 15   -475.99255452  -0.0000058054  0.000101  0.000314  0.000669  0.000007
 16   -475.99255410   0.0000004276  0.000130  0.000206  0.000402  0.000004
 17   -475.99255475  -0.0000006508  0.000010  0.000034  0.000082  0.000001
 18   -475.99255474   0.0000000016  0.000017  0.000026  0.000027  0.000001
                  ***Gradient check signals convergence***
              ***Rediagonalizing the Fockian in SOSCF/NRSCF***

               *****************************************************
               *                     SUCCESS                       *
               *           SCF CONVERGED AFTER  19 CYCLES          *
               *****************************************************

Old exchange energy                            =    -12.352115370 Eh
New exchange energy                            =    -12.352110194 Eh
Exchange energy change after final integration =      0.000005176 Eh
Total energy after final integration           =   -475.992549569 Eh
Final COS-X integration done in                =    46.761 sec

----------------
TOTAL SCF ENERGY
----------------

Total Energy       :         -475.99254957 Eh          -12952.41576 eV

Components:
Nuclear Repulsion  :          497.11316800 Eh           13527.13701 eV
Electronic Energy  :         -973.10571757 Eh          -26479.55277 eV
One Electron Energy:        -1628.12521309 Eh          -44303.53940 eV
Two Electron Energy:          655.01949552 Eh           17823.98663 eV
Max COSX asymmetry :            0.00000073 Eh               0.00002 eV

Virial components:
Potential Energy   :         -950.00002311 Eh          -25850.81486 eV
Kinetic Energy     :          474.00747354 Eh           12898.39910 eV
Virial Ratio       :            2.00418786


DFT components:
N(Alpha)           :       35.999976114869 electrons
N(Beta)            :       35.999976114869 electrons
N(Total)           :       71.999952229738 electrons
E(X)               :      -49.175422738431 Eh       
E(C)               :       -2.910717010791 Eh       
E(XC)              :      -52.086139749222 Eh       
DFET-embed. en.    :        0.000000000000 Eh       

---------------
SCF CONVERGENCE
---------------

  Last Energy change         ...   -2.1839e-10  Tolerance :   1.0000e-08
  Last MAX-Density change    ...    8.8818e-16  Tolerance :   1.0000e-07
  Last RMS-Density change    ...    1.3197e-17  Tolerance :   5.0000e-09
  Last Orbital Gradient      ...    2.1928e-06  Tolerance :   1.0000e-05
  Last Orbital Rotation      ...    6.5362e-06  Tolerance :   1.0000e-05

             **** THE GBW FILE WAS UPDATED (para_p_opt.gbw) ****
             **** DENSITY para_p_opt.scfp WAS UPDATED ****
             **** ENERGY FILE WAS UPDATED (para_p_opt.en.tmp) ****
             **** THE GBW FILE WAS UPDATED (para_p_opt.gbw) ****
             **** DENSITY para_p_opt.scfp WAS UPDATED ****
----------------
ORBITAL ENERGIES
----------------

  NO   OCC          E(Eh)            E(eV) 
   0   2.0000     -19.207817      -522.6713 
   1   2.0000     -19.207412      -522.6603 
   2   2.0000     -14.599281      -397.2666 
   3   2.0000     -10.282326      -279.7963 
   4   2.0000     -10.255511      -279.0666 
   5   2.0000     -10.248417      -278.8736 
   6   2.0000     -10.248069      -278.8641 
   7   2.0000     -10.239429      -278.6290 
   8   2.0000     -10.239281      -278.6250 
   9   2.0000     -10.223098      -278.1846 
  10   2.0000      -1.285688       -34.9853 
  11   2.0000      -1.112504       -30.2728 
  12   2.0000      -0.937567       -25.5125 
  13   2.0000      -0.866013       -23.5654 
  14   2.0000      -0.822969       -22.3941 
  15   2.0000      -0.792471       -21.5642 
  16   2.0000      -0.706833       -19.2339 
  17   2.0000      -0.681698       -18.5499 
  18   2.0000      -0.639740       -17.4082 
  19   2.0000      -0.610813       -16.6211 
  20   2.0000      -0.590497       -16.0683 
  21   2.0000      -0.569158       -15.4876 
  22   2.0000      -0.538278       -14.6473 
  23   2.0000      -0.527731       -14.3603 
  24   2.0000      -0.505449       -13.7540 
  25   2.0000      -0.498514       -13.5653 
  26   2.0000      -0.480541       -13.0762 
  27   2.0000      -0.449898       -12.2423 
  28   2.0000      -0.431142       -11.7320 
  29   2.0000      -0.427786       -11.6407 
  30   2.0000      -0.409644       -11.1470 
  31   2.0000      -0.369328       -10.0499 
  32   2.0000      -0.362349        -9.8600 
  33   2.0000      -0.355132        -9.6636 
  34   2.0000      -0.328915        -8.9502 
  35   2.0000      -0.307091        -8.3564 
  36   0.0000      -0.513554       -13.9745 
  37   0.0000      -0.133622        -3.6361 
  38   0.0000      -0.078196        -2.1278 
  39   0.0000      -0.064017        -1.7420 
  40   0.0000      -0.007141        -0.1943 
  41   0.0000       0.010898         0.2966 
  42   0.0000       0.022706         0.6179 
  43   0.0000       0.026500         0.7211 
  44   0.0000       0.040955         1.1144 
  45   0.0000       0.052912         1.4398 
  46   0.0000       0.061412         1.6711 
  47   0.0000       0.073909         2.0112 
  48   0.0000       0.078994         2.1495 
  49   0.0000       0.091151         2.4803 
  50   0.0000       0.094622         2.5748 
  51   0.0000       0.120441         3.2774 
  52   0.0000       0.134832         3.6690 
  53   0.0000       0.140189         3.8147 
  54   0.0000       0.148181         4.0322 
  55   0.0000       0.166937         4.5426 
  56   0.0000       0.170242         4.6325 
  57   0.0000       0.188180         5.1206 
  58   0.0000       0.194949         5.3048 
  59   0.0000       0.197280         5.3683 
  60   0.0000       0.212278         5.7764 
  61   0.0000       0.223044         6.0693 
  62   0.0000       0.229248         6.2382 
  63   0.0000       0.239647         6.5211 
  64   0.0000       0.258877         7.0444 
  65   0.0000       0.267369         7.2755 
  66   0.0000       0.281406         7.6574 
  67   0.0000       0.286179         7.7873 
  68   0.0000       0.290016         7.8917 
  69   0.0000       0.298319         8.1177 
  70   0.0000       0.308776         8.4022 
  71   0.0000       0.310594         8.4517 
  72   0.0000       0.335423         9.1273 
  73   0.0000       0.353095         9.6082 
  74   0.0000       0.358573         9.7573 
  75   0.0000       0.360522         9.8103 
  76   0.0000       0.367195         9.9919 
  77   0.0000       0.371222        10.1015 
  78   0.0000       0.380585        10.3562 
  79   0.0000       0.394042        10.7224 
  80   0.0000       0.402430        10.9507 
  81   0.0000       0.413332        11.2473 
  82   0.0000       0.425928        11.5901 
  83   0.0000       0.431788        11.7495 
  84   0.0000       0.439208        11.9514 
  85   0.0000       0.442389        12.0380 
  86   0.0000       0.455393        12.3919 
  87   0.0000       0.473496        12.8845 
  88   0.0000       0.482623        13.1328 
  89   0.0000       0.483444        13.1552 
  90   0.0000       0.498716        13.5707 
  91   0.0000       0.516629        14.0582 
  92   0.0000       0.525319        14.2947 
  93   0.0000       0.539515        14.6809 
  94   0.0000       0.557352        15.1663 
  95   0.0000       0.579127        15.7588 
  96   0.0000       0.583077        15.8663 
  97   0.0000       0.586900        15.9704 
  98   0.0000       0.602275        16.3887 
  99   0.0000       0.616407        16.7733 
 100   0.0000       0.623665        16.9708 
 101   0.0000       0.641840        17.4654 
 102   0.0000       0.665925        18.1207 
 103   0.0000       0.677899        18.4466 
 104   0.0000       0.691444        18.8151 
 105   0.0000       0.698499        19.0071 
 106   0.0000       0.717154        19.5147 
 107   0.0000       0.724252        19.7079 
 108   0.0000       0.760222        20.6867 
 109   0.0000       0.780470        21.2377 
 110   0.0000       0.801024        21.7970 
 111   0.0000       0.814588        22.1661 
 112   0.0000       0.840074        22.8596 
 113   0.0000       0.856167        23.2975 
 114   0.0000       0.857987        23.3470 
 115   0.0000       0.875496        23.8234 
 116   0.0000       0.905073        24.6283 
 117   0.0000       0.931524        25.3481 
 118   0.0000       0.947897        25.7936 
 119   0.0000       0.974385        26.5144 
 120   0.0000       0.993303        27.0292 
 121   0.0000       0.995745        27.0956 
 122   0.0000       1.016680        27.6653 
 123   0.0000       1.034140        28.1404 
 124   0.0000       1.034142        28.1404 
 125   0.0000       1.034175        28.1413 
 126   0.0000       1.039499        28.2862 
 127   0.0000       1.063528        28.9401 
 128   0.0000       1.071067        29.1452 
 129   0.0000       1.109692        30.1962 
 130   0.0000       1.119953        30.4755 
 131   0.0000       1.157882        31.5076 
 132   0.0000       1.166228        31.7347 
 133   0.0000       1.171788        31.8860 
 134   0.0000       1.189713        32.3737 
 135   0.0000       1.205512        32.8037 
 136   0.0000       1.217539        33.1309 
 137   0.0000       1.234125        33.5822 
 138   0.0000       1.244268        33.8583 
 139   0.0000       1.284092        34.9419 
 140   0.0000       1.286855        35.0171 
 141   0.0000       1.310254        35.6538 
 142   0.0000       1.341876        36.5143 
 143   0.0000       1.367843        37.2209 
 144   0.0000       1.389786        37.8180 
 145   0.0000       1.415764        38.5249 
 146   0.0000       1.417225        38.5646 
 147   0.0000       1.447493        39.3883 
 148   0.0000       1.459918        39.7264 
 149   0.0000       1.469315        39.9821 
 150   0.0000       1.477901        40.2157 
 151   0.0000       1.489737        40.5378 
 152   0.0000       1.498391        40.7733 
 153   0.0000       1.505911        40.9779 
 154   0.0000       1.516835        41.2752 
 155   0.0000       1.526886        41.5487 
 156   0.0000       1.539367        41.8883 
 157   0.0000       1.553228        42.2655 
 158   0.0000       1.561759        42.4976 
 159   0.0000       1.585321        43.1388 
 160   0.0000       1.612674        43.8831 
 161   0.0000       1.623163        44.1685 
 162   0.0000       1.639338        44.6087 
 163   0.0000       1.672324        45.5062 
 164   0.0000       1.672737        45.5175 
 165   0.0000       1.703817        46.3632 
 166   0.0000       1.740951        47.3737 
 167   0.0000       1.759907        47.8895 
 168   0.0000       1.780731        48.4562 
 169   0.0000       1.798011        48.9264 
 170   0.0000       1.837340        49.9966 
 171   0.0000       1.849592        50.3300 
 172   0.0000       1.866145        50.7804 
 173   0.0000       1.891342        51.4660 
 174   0.0000       1.919021        52.2192 
 175   0.0000       1.935699        52.6730 
 176   0.0000       1.941099        52.8200 
 177   0.0000       1.953971        53.1703 
 178   0.0000       1.974843        53.7382 
 179   0.0000       2.001033        54.4509 
 180   0.0000       2.007067        54.6151 
 181   0.0000       2.025078        55.1052 
 182   0.0000       2.046962        55.7007 
 183   0.0000       2.079775        56.5935 
 184   0.0000       2.088308        56.8258 
 185   0.0000       2.097182        57.0672 
 186   0.0000       2.111665        57.4613 
 187   0.0000       2.139080        58.2073 
 188   0.0000       2.154557        58.6285 
 189   0.0000       2.172745        59.1234 
 190   0.0000       2.185524        59.4711 
 191   0.0000       2.198310        59.8191 
 192   0.0000       2.225525        60.5596 
 193   0.0000       2.234051        60.7916 
 194   0.0000       2.280960        62.0681 
 195   0.0000       2.319743        63.1234 
 196   0.0000       2.332528        63.4713 
 197   0.0000       2.353302        64.0366 
 198   0.0000       2.399984        65.3069 
 199   0.0000       2.419624        65.8413 
 200   0.0000       2.444865        66.5281 
 201   0.0000       2.458690        66.9044 
 202   0.0000       2.473538        67.3084 
 203   0.0000       2.479552        67.4721 
 204   0.0000       2.481903        67.5360 
 205   0.0000       2.513840        68.4051 
 206   0.0000       2.533192        68.9317 
 207   0.0000       2.561481        69.7014 
 208   0.0000       2.574979        70.0687 
 209   0.0000       2.582110        70.2628 
 210   0.0000       2.592943        70.5576 
 211   0.0000       2.614507        71.1444 
 212   0.0000       2.631599        71.6095 
 213   0.0000       2.632731        71.6403 
 214   0.0000       2.654258        72.2260 
 215   0.0000       2.681573        72.9693 
 216   0.0000       2.699515        73.4575 
 217   0.0000       2.704294        73.5876 
 218   0.0000       2.707337        73.6704 
 219   0.0000       2.717425        73.9449 
 220   0.0000       2.735534        74.4377 
 221   0.0000       2.742642        74.6311 
 222   0.0000       2.772276        75.4375 
 223   0.0000       2.790320        75.9285 
 224   0.0000       2.826943        76.9250 
 225   0.0000       2.837620        77.2156 
 226   0.0000       2.860893        77.8489 
 227   0.0000       2.866308        77.9962 
 228   0.0000       2.893098        78.7252 
 229   0.0000       2.910838        79.2079 
 230   0.0000       2.944639        80.1277 
 231   0.0000       2.949746        80.2667 
 232   0.0000       2.962473        80.6130 
 233   0.0000       2.975182        80.9588 
 234   0.0000       2.991405        81.4003 
 235   0.0000       3.003739        81.7359 
 236   0.0000       3.032453        82.5172 
 237   0.0000       3.052140        83.0529 
 238   0.0000       3.058246        83.2191 
 239   0.0000       3.072008        83.5936 
 240   0.0000       3.078851        83.7798 
 241   0.0000       3.089034        84.0569 
 242   0.0000       3.100012        84.3556 
 243   0.0000       3.120624        84.9165 
 244   0.0000       3.135890        85.3319 
 245   0.0000       3.156617        85.8959 
 246   0.0000       3.184011        86.6413 
 247   0.0000       3.201917        87.1286 
 248   0.0000       3.210990        87.3755 
 249   0.0000       3.220643        87.6382 
 250   0.0000       3.243319        88.2552 
 251   0.0000       3.252605        88.5079 
 252   0.0000       3.268369        88.9369 
 253   0.0000       3.272378        89.0459 
 254   0.0000       3.283700        89.3540 
 255   0.0000       3.316995        90.2600 
 256   0.0000       3.323184        90.4284 
 257   0.0000       3.333266        90.7028 
 258   0.0000       3.344847        91.0179 
 259   0.0000       3.367985        91.6475 
 260   0.0000       3.390287        92.2544 
 261   0.0000       3.402134        92.5768 
 262   0.0000       3.417691        93.0001 
 263   0.0000       3.427278        93.2610 
 264   0.0000       3.483492        94.7906 
 265   0.0000       3.502883        95.3183 
 266   0.0000       3.518343        95.7390 
 267   0.0000       3.539690        96.3199 
 268   0.0000       3.624987        98.6409 
 269   0.0000       3.644678        99.1767 
 270   0.0000       3.675531       100.0163 
 271   0.0000       3.680155       100.1421 
 272   0.0000       3.700894       100.7064 
 273   0.0000       3.722379       101.2911 
 274   0.0000       3.765603       102.4673 
 275   0.0000       3.792768       103.2065 
 276   0.0000       3.800812       103.4253 
 277   0.0000       3.819062       103.9220 
 278   0.0000       3.852969       104.8446 
 279   0.0000       3.937182       107.1362 
 280   0.0000       3.951118       107.5154 
 281   0.0000       3.992607       108.6444 
 282   0.0000       4.013589       109.2153 
 283   0.0000       4.034130       109.7742 
 284   0.0000       4.065430       110.6260 
 285   0.0000       4.079947       111.0210 
 286   0.0000       4.084387       111.1418 
 287   0.0000       4.095660       111.4486 
 288   0.0000       4.131994       112.4373 
 289   0.0000       4.144029       112.7648 
 290   0.0000       4.149965       112.9263 
 291   0.0000       4.160121       113.2026 
 292   0.0000       4.182421       113.8095 
 293   0.0000       4.212034       114.6153 
 294   0.0000       4.258414       115.8773 
 295   0.0000       4.345119       118.2367 
 296   0.0000       4.365753       118.7982 
 297   0.0000       4.401856       119.7806 
 298   0.0000       4.450718       121.1102 
 299   0.0000       4.482659       121.9793 
 300   0.0000       4.487568       122.1129 
 301   0.0000       4.517568       122.9293 
 302   0.0000       4.555256       123.9548 
 303   0.0000       4.586355       124.8011 
 304   0.0000       4.641169       126.2926 
 305   0.0000       4.642322       126.3240 
 306   0.0000       4.671701       127.1234 
 307   0.0000       4.686645       127.5301 
 308   0.0000       4.734412       128.8299 
 309   0.0000       4.745915       129.1429 
 310   0.0000       4.795529       130.4930 
 311   0.0000       4.842970       131.7839 
 312   0.0000       4.861548       132.2894 
 313   0.0000       4.982466       135.5798 
 314   0.0000       5.013458       136.4231 
 315   0.0000       5.025586       136.7532 
 316   0.0000       5.074939       138.0961 
 317   0.0000       5.090301       138.5141 
 318   0.0000       5.112302       139.1128 
 319   0.0000       5.114939       139.1846 
 320   0.0000       5.141364       139.9036 
 321   0.0000       5.217464       141.9744 
 322   0.0000       5.221144       142.0745 
 323   0.0000       5.293851       144.0530 
 324   0.0000       5.313663       144.5921 
 325   0.0000       5.355488       145.7302 
 326   0.0000       5.419352       147.4681 
 327   0.0000       5.464690       148.7018 
 328   0.0000       5.526666       150.3882 
 329   0.0000       5.569821       151.5625 
 330   0.0000       5.727763       155.8603 
 331   0.0000       5.748655       156.4289 
 332   0.0000       5.921847       161.1417 
 333   0.0000       6.200622       168.7275 
 334   0.0000       6.275511       170.7653 
 335   0.0000       6.314449       171.8249 
 336   0.0000       6.326871       172.1629 
 337   0.0000       6.337432       172.4503 
 338   0.0000       6.424359       174.8157 
 339   0.0000       6.638720       180.6488 
 340   0.0000       6.822582       185.6519 
 341   0.0000       6.843360       186.2173 
 342   0.0000       6.887238       187.4113 
 343   0.0000       7.045334       191.7133 
 344   0.0000       7.230759       196.7590 
 345   0.0000       7.285920       198.2600 
 346   0.0000       7.349509       199.9903 
 347   0.0000       7.365470       200.4246 
 348   0.0000      22.064051       600.3934 
 349   0.0000      22.364761       608.5761 
 350   0.0000      22.557939       613.8327 
 351   0.0000      22.658766       616.5764 
 352   0.0000      22.665071       616.7479 
 353   0.0000      22.771225       619.6365 
 354   0.0000      23.155964       630.1058 
 355   0.0000      32.476531       883.7313 
 356   0.0000      43.934533      1195.5194 
 357   0.0000      43.939424      1195.6525 

                    ********************************
                    * MULLIKEN POPULATION ANALYSIS *
                    ********************************

-----------------------
MULLIKEN ATOMIC CHARGES
-----------------------
   0 C :    0.154059
   1 C :   -0.140319
   2 C :   -0.170790
   3 C :    0.154647
   4 C :   -0.169182
   5 C :   -0.140493
   6 C :   -0.357622
   7 H :    0.128964
   8 H :    0.121487
   9 H :    0.133309
  10 H :    0.120168
  11 H :    0.138914
  12 H :    0.140382
  13 H :    0.122193
  14 N :    0.393005
  15 O :   -0.312467
  16 O :   -0.316256
  17 H :    1.000000
Sum of atomic charges:    1.0000000

--------------------------------
MULLIKEN REDUCED ORBITAL CHARGES
--------------------------------
  0 C s       :     3.188923  s :     3.188923
      pz      :     0.840812  p :     2.520561
      px      :     0.849619
      py      :     0.830130
      dz2     :     0.028835  d :     0.126640
      dxz     :     0.015360
      dyz     :     0.024754
      dx2y2   :     0.028969
      dxy     :     0.028722
      f0      :     0.001263  f :     0.009816
      f+1     :     0.001361
      f-1     :     0.001153
      f+2     :     0.001905
      f-2     :     0.001349
      f+3     :     0.001326
      f-3     :     0.001459
  1 C s       :     3.207499  s :     3.207499
      pz      :     0.938226  p :     2.848578
      px      :     0.940630
      py      :     0.969721
      dz2     :     0.022301  d :     0.076950
      dxz     :     0.012320
      dyz     :     0.013292
      dx2y2   :     0.017084
      dxy     :     0.011954
      f0      :     0.000913  f :     0.007292
      f+1     :     0.001174
      f-1     :     0.000977
      f+2     :     0.001532
      f-2     :     0.001103
      f+3     :     0.000878
      f-3     :     0.000715
  2 C s       :     3.255488  s :     3.255488
      pz      :     0.953266  p :     2.822037
      px      :     0.951903
      py      :     0.916868
      dz2     :     0.015865  d :     0.085734
      dxz     :     0.013839
      dyz     :     0.019503
      dx2y2   :     0.017559
      dxy     :     0.018968
      f0      :     0.001218  f :     0.007532
      f+1     :     0.000759
      f-1     :     0.000786
      f+2     :     0.001545
      f-2     :     0.001141
      f+3     :     0.000804
      f-3     :     0.001279
  3 C s       :     3.091129  s :     3.091129
      pz      :     0.861217  p :     2.624492
      px      :     0.913677
      py      :     0.849599
      dz2     :     0.022566  d :     0.117645
      dxz     :     0.013295
      dyz     :     0.030354
      dx2y2   :     0.023494
      dxy     :     0.027936
      f0      :     0.001299  f :     0.012087
      f+1     :     0.001882
      f-1     :     0.001502
      f+2     :     0.002205
      f-2     :     0.002004
      f+3     :     0.001674
      f-3     :     0.001522
  4 C s       :     3.253321  s :     3.253321
      pz      :     0.922622  p :     2.822878
      px      :     0.921467
      py      :     0.978789
      dz2     :     0.024802  d :     0.085446
      dxz     :     0.015018
      dyz     :     0.014517
      dx2y2   :     0.019578
      dxy     :     0.011531
      f0      :     0.000892  f :     0.007538
      f+1     :     0.001219
      f-1     :     0.001055
      f+2     :     0.001587
      f-2     :     0.001083
      f+3     :     0.000915
      f-3     :     0.000786
  5 C s       :     3.223953  s :     3.223953
      pz      :     0.967822  p :     2.835782
      px      :     0.960044
      py      :     0.907916
      dz2     :     0.014230  d :     0.073515
      dxz     :     0.011416
      dyz     :     0.016585
      dx2y2   :     0.014484
      dxy     :     0.016801
      f0      :     0.001125  f :     0.007243
      f+1     :     0.000712
      f-1     :     0.000844
      f+2     :     0.001469
      f-2     :     0.001147
      f+3     :     0.000858
      f-3     :     0.001088
  6 C s       :     3.323696  s :     3.323696
      pz      :     0.951631  p :     2.984097
      px      :     1.035543
      py      :     0.996923
      dz2     :     0.015946  d :     0.046162
      dxz     :     0.005585
      dyz     :     0.008469
      dx2y2   :     0.009509
      dxy     :     0.006652
      f0      :     0.000361  f :     0.003666
      f+1     :     0.000235
      f-1     :     0.001067
      f+2     :     0.000716
      f-2     :     0.000515
      f+3     :     0.000643
      f-3     :     0.000130
  7 H s       :     0.849577  s :     0.849577
      pz      :     0.010771  p :     0.021459
      px      :     0.004552
      py      :     0.006136
  8 H s       :     0.856711  s :     0.856711
      pz      :     0.004660  p :     0.021802
      px      :     0.006009
      py      :     0.011133
  9 H s       :     0.845164  s :     0.845164
      pz      :     0.004790  p :     0.021527
      px      :     0.011971
      py      :     0.004767
 10 H s       :     0.857333  s :     0.857333
      pz      :     0.004196  p :     0.022500
      px      :     0.005042
      py      :     0.013262
 11 H s       :     0.838509  s :     0.838509
      pz      :     0.007874  p :     0.022578
      px      :     0.009721
      py      :     0.004983
 12 H s       :     0.837052  s :     0.837052
      pz      :     0.004319  p :     0.022566
      px      :     0.004716
      py      :     0.013530
 13 H s       :     0.855343  s :     0.855343
      pz      :     0.007749  p :     0.022464
      px      :     0.009302
      py      :     0.005413
 14 N s       :     3.270598  s :     3.270598
      pz      :     1.087378  p :     3.072564
      px      :     0.914986
      py      :     1.070201
      dz2     :     0.037983  d :     0.249582
      dxz     :     0.067064
      dyz     :     0.021913
      dx2y2   :     0.056184
      dxy     :     0.066438
      f0      :     0.001365  f :     0.014251
      f+1     :     0.002021
      f-1     :     0.001457
      f+2     :     0.002965
      f-2     :     0.001331
      f+3     :     0.001870
      f-3     :     0.003242
 15 O s       :     3.884480  s :     3.884480
      pz      :     1.467099  p :     4.382608
      px      :     1.567353
      py      :     1.348156
      dz2     :     0.006930  d :     0.042099
      dxz     :     0.008900
      dyz     :     0.008055
      dx2y2   :     0.007830
      dxy     :     0.010384
      f0      :     0.000296  f :     0.003279
      f+1     :     0.000431
      f-1     :     0.000335
      f+2     :     0.000371
      f-2     :     0.000829
      f+3     :     0.000558
      f-3     :     0.000458
 16 O s       :     3.882355  s :     3.882355
      pz      :     1.654538  p :     4.388702
      px      :     1.136428
      py      :     1.597736
      dz2     :     0.005306  d :     0.041927
      dxz     :     0.010460
      dyz     :     0.000789
      dx2y2   :     0.014561
      dxy     :     0.010811
      f0      :     0.000333  f :     0.003272
      f+1     :     0.000599
      f-1     :     0.000057
      f+2     :     0.000492
      f-2     :     0.000114
      f+3     :     0.000887
      f-3     :     0.000789
 17 H s       :     0.000000  s :     0.000000
      pz      :     0.000000  p :     0.000000
      px      :     0.000000
      py      :     0.000000


                     *******************************
                     * LOEWDIN POPULATION ANALYSIS *
                     *******************************

----------------------
LOEWDIN ATOMIC CHARGES
----------------------
   0 C :   -0.135550
   1 C :   -0.102232
   2 C :   -0.093821
   3 C :   -0.153780
   4 C :   -0.095652
   5 C :   -0.097228
   6 C :   -0.248569
   7 H :    0.134643
   8 H :    0.128997
   9 H :    0.139581
  10 H :    0.149591
  11 H :    0.155173
  12 H :    0.155732
  13 H :    0.150506
  14 N :   -0.038873
  15 O :   -0.022026
  16 O :   -0.026492
  17 H :    1.000000

-------------------------------
LOEWDIN REDUCED ORBITAL CHARGES
-------------------------------
  0 C s       :     2.722560  s :     2.722560
      pz      :     0.922934  p :     2.840524
      px      :     0.913044
      py      :     1.004545
      dz2     :     0.102247  d :     0.516317
      dxz     :     0.073125
      dyz     :     0.119688
      dx2y2   :     0.107739
      dxy     :     0.113519
      f0      :     0.007821  f :     0.056149
      f+1     :     0.007190
      f-1     :     0.006867
      f+2     :     0.010836
      f-2     :     0.006515
      f+3     :     0.008808
      f-3     :     0.008113
  1 C s       :     2.759211  s :     2.759211
      pz      :     0.984334  p :     2.925792
      px      :     0.960131
      py      :     0.981326
      dz2     :     0.090465  d :     0.374726
      dxz     :     0.074434
      dyz     :     0.065144
      dx2y2   :     0.083724
      dxy     :     0.060958
      f0      :     0.004822  f :     0.042502
      f+1     :     0.006590
      f-1     :     0.006229
      f+2     :     0.008495
      f-2     :     0.006595
      f+3     :     0.005297
      f-3     :     0.004474
  2 C s       :     2.761442  s :     2.761442
      pz      :     0.963999  p :     2.907898
      px      :     0.930349
      py      :     1.013550
      dz2     :     0.059914  d :     0.380061
      dxz     :     0.060403
      dyz     :     0.096170
      dx2y2   :     0.081533
      dxy     :     0.082041
      f0      :     0.007039  f :     0.044421
      f+1     :     0.004516
      f-1     :     0.005534
      f+2     :     0.007947
      f-2     :     0.005368
      f+3     :     0.006117
      f-3     :     0.007901
  3 C s       :     2.724412  s :     2.724412
      pz      :     0.886519  p :     2.833453
      px      :     0.957525
      py      :     0.989410
      dz2     :     0.087414  d :     0.529608
      dxz     :     0.079357
      dyz     :     0.138258
      dx2y2   :     0.105146
      dxy     :     0.119434
      f0      :     0.008151  f :     0.066306
      f+1     :     0.009214
      f-1     :     0.009429
      f+2     :     0.011342
      f-2     :     0.010032
      f+3     :     0.010342
      f-3     :     0.007796
  4 C s       :     2.760669  s :     2.760669
      pz      :     0.980932  p :     2.908779
      px      :     0.937352
      py      :     0.990495
      dz2     :     0.094524  d :     0.381483
      dxz     :     0.072859
      dyz     :     0.068533
      dx2y2   :     0.087457
      dxy     :     0.058110
      f0      :     0.004877  f :     0.044720
      f+1     :     0.006818
      f-1     :     0.007060
      f+2     :     0.008683
      f-2     :     0.006826
      f+3     :     0.005623
      f-3     :     0.004833
  5 C s       :     2.759660  s :     2.759660
      pz      :     0.972516  p :     2.922826
      px      :     0.937202
      py      :     1.013107
      dz2     :     0.056160  d :     0.372464
      dxz     :     0.057517
      dyz     :     0.101867
      dx2y2   :     0.077821
      dxy     :     0.079099
      f0      :     0.006502  f :     0.042279
      f+1     :     0.004513
      f-1     :     0.005469
      f+2     :     0.008089
      f-2     :     0.005284
      f+3     :     0.005842
      f-3     :     0.006579
  6 C s       :     2.815004  s :     2.815004
      pz      :     1.043970  p :     3.150926
      px      :     1.056779
      py      :     1.050176
      dz2     :     0.069415  d :     0.256191
      dxz     :     0.032845
      dyz     :     0.058242
      dx2y2   :     0.052808
      dxy     :     0.042881
      f0      :     0.003178  f :     0.026447
      f+1     :     0.003522
      f-1     :     0.005400
      f+2     :     0.005235
      f-2     :     0.003245
      f+3     :     0.004220
      f-3     :     0.001649
  7 H s       :     0.805290  s :     0.805290
      pz      :     0.027995  p :     0.060066
      px      :     0.013336
      py      :     0.018735
  8 H s       :     0.810459  s :     0.810459
      pz      :     0.012951  p :     0.060545
      px      :     0.018211
      py      :     0.029383
  9 H s       :     0.800861  s :     0.800861
      pz      :     0.014245  p :     0.059558
      px      :     0.031734
      py      :     0.013578
 10 H s       :     0.791282  s :     0.791282
      pz      :     0.012074  p :     0.059126
      px      :     0.014185
      py      :     0.032867
 11 H s       :     0.784521  s :     0.784521
      pz      :     0.020910  p :     0.060306
      px      :     0.025141
      py      :     0.014255
 12 H s       :     0.783988  s :     0.783988
      pz      :     0.012411  p :     0.060280
      px      :     0.013593
      py      :     0.034276
 13 H s       :     0.790415  s :     0.790415
      pz      :     0.020204  p :     0.059079
      px      :     0.023941
      py      :     0.014934
 14 N s       :     2.920868  s :     2.920868
      pz      :     1.091809  p :     3.278559
      px      :     1.113952
      py      :     1.072798
      dz2     :     0.114660  d :     0.767168
      dxz     :     0.191011
      dyz     :     0.077986
      dx2y2   :     0.181627
      dxy     :     0.201884
      f0      :     0.007301  f :     0.072278
      f+1     :     0.011340
      f-1     :     0.006027
      f+2     :     0.014852
      f-2     :     0.006334
      f+3     :     0.008547
      f-3     :     0.017877
 15 O s       :     3.495147  s :     3.495147
      pz      :     1.457859  p :     4.415337
      px      :     1.572927
      py      :     1.384551
      dz2     :     0.013448  d :     0.100296
      dxz     :     0.020926
      dyz     :     0.021763
      dx2y2   :     0.017603
      dxy     :     0.026556
      f0      :     0.001097  f :     0.011245
      f+1     :     0.001196
      f-1     :     0.001201
      f+2     :     0.001310
      f-2     :     0.003050
      f+3     :     0.001738
      f-3     :     0.001653
 16 O s       :     3.495746  s :     3.495746
      pz      :     1.581402  p :     4.419577
      px      :     1.306134
      py      :     1.532040
      dz2     :     0.013212  d :     0.099971
      dxz     :     0.024628
      dyz     :     0.001228
      dx2y2   :     0.037940
      dxy     :     0.022962
      f0      :     0.001095  f :     0.011198
      f+1     :     0.002066
      f-1     :     0.000168
      f+2     :     0.001787
      f-2     :     0.000292
      f+3     :     0.003202
      f-3     :     0.002589
 17 H s       :     0.000000  s :     0.000000
      pz      :     0.000000  p :     0.000000
      px      :     0.000000
      py      :     0.000000


                      *****************************
                      * MAYER POPULATION ANALYSIS *
                      *****************************

  NA   - Mulliken gross atomic population
  ZA   - Total nuclear charge
  QA   - Mulliken gross atomic charge
  VA   - Mayer's total valence
  BVA  - Mayer's bonded valence
  FA   - Mayer's free valence

  ATOM       NA         ZA         QA         VA         BVA        FA
  0 C      5.8459     6.0000     0.1541     3.6821     3.6821    -0.0000
  1 C      6.1403     6.0000    -0.1403     3.9020     3.9020     0.0000
  2 C      6.1708     6.0000    -0.1708     4.0162     4.0162     0.0000
  3 C      5.8454     6.0000     0.1546     3.7587     3.7587     0.0000
  4 C      6.1692     6.0000    -0.1692     4.0123     4.0123    -0.0000
  5 C      6.1405     6.0000    -0.1405     3.8749     3.8749    -0.0000
  6 C      6.3576     6.0000    -0.3576     3.8571     3.8571     0.0000
  7 H      0.8710     1.0000     0.1290     0.9628     0.9628     0.0000
  8 H      0.8785     1.0000     0.1215     0.9746     0.9746     0.0000
  9 H      0.8667     1.0000     0.1333     0.9568     0.9568     0.0000
 10 H      0.8798     1.0000     0.1202     0.9730     0.9730     0.0000
 11 H      0.8611     1.0000     0.1389     0.9916     0.9916    -0.0000
 12 H      0.8596     1.0000     0.1404     0.9906     0.9906     0.0000
 13 H      0.8778     1.0000     0.1222     0.9716     0.9716    -0.0000
[...]

--------------
SCF ITERATIONS
--------------
ITER       Energy         Delta-E        Max-DP      RMS-DP      [F,P]     Damp
               ***  Starting incremental Fock matrix formation  ***
                      *** Initiating the SOSCF procedure ***
                      *** Re-Reading the Fockian *** 
                      *** Removing any level shift *** 
ITER      Energy       Delta-E        Grad      Rot      Max-DP    RMS-DP
  0   -476.11025734 -476.1102573437  0.000111  0.000111  0.000117  0.000004
               *** Restarting incremental Fock matrix formation ***
  1   -476.11025898  -0.0000016380  0.000039  0.000650  0.000295  0.000003
  2   -476.11025870   0.0000002852  0.000349  0.000884  0.000374  0.000004
  3   -476.11025875  -0.0000000547  0.000151  0.000330  0.000190  0.000004
  4   -476.11025897  -0.0000002152  0.000136  0.000454  0.000191  0.000003
  5   -476.11025874   0.0000002215  0.000205  0.000311  0.000128  0.000003
  6   -476.11025912  -0.0000003714  0.000024  0.000385  0.000100  0.000002
  7   -476.11025905   0.0000000695  0.000062  0.000307  0.000107  0.000001
  8   -476.11025914  -0.0000000965  0.000010  0.000051  0.000062  0.000001
  9   -476.11025914   0.0000000047  0.000010  0.000035  0.000030  0.000001
 10   -476.11025915  -0.0000000079  0.000003  0.000006  0.000043  0.000001
                  ***Gradient check signals convergence***
              ***Rediagonalizing the Fockian in SOSCF/NRSCF***

               *****************************************************
               *                     SUCCESS                       *
               *           SCF CONVERGED AFTER  11 CYCLES          *
               *****************************************************

Old exchange energy                            =    -12.309626416 Eh
New exchange energy                            =    -12.309630059 Eh
Exchange energy change after final integration =     -0.000003643 Eh
Total energy after final integration           =   -476.110262797 Eh
Final COS-X integration done in                =    94.905 sec
Total Energy       :         -476.11026280 Eh          -12955.61890 eV
  Last Energy change         ...   -6.9901e-09  Tolerance :   1.0000e-08
  Last MAX-Density change    ...    9.9920e-16  Tolerance :   1.0000e-07
             **** THE GBW FILE WAS UPDATED (para_p_opt.gbw) ****
             **** DENSITY para_p_opt.scfp WAS UPDATED ****
             **** ENERGY FILE WAS UPDATED (para_p_opt.en.tmp) ****
             **** THE GBW FILE WAS UPDATED (para_p_opt.gbw) ****
             **** DENSITY para_p_opt.scfp WAS UPDATED ****
Total SCF time: 0 days 0 hours 11 min 15 sec 

Maximum memory used throughout the entire SCF-calculation: 203.2 MB


-------------------------------------------------------------------------------
                          DFT DISPERSION CORRECTION                            
                                                                               
                                 DFTD4 V2.5                                    
-------------------------------------------------------------------------------
Starting D4
-------------------------   ----------------
Dispersion correction           -0.026626455
-------------------------   ----------------


-------------------------   --------------------
FINAL SINGLE POINT ENERGY      -476.136889251528
-------------------------   --------------------

------------------------------------------------------------------------------
                         ORCA SCF GRADIENT CALCULATION
------------------------------------------------------------------------------

 ... reading COSX grid (gridx3)
Gradient of the Kohn-Sham DFT energy:
Kohn-Sham wavefunction type      ... RKS
Hartree-Fock exchange scaling    ...    0.200
Number of operators              ...    1
Number of atoms                  ...   18
Basis set dimensions             ...  358
Integral neglect threshold       ... 2.5e-11
Integral primitive cutoff        ... 2.5e-12
SHARK Integral package           ... ON

Nuc. rep. gradient       (SHARK) ... done (  0.0 sec)
HCore & Overlap gradient (SHARK) ... done (  2.6 sec)
RI-J gradient            (SHARK) ... done ( 15.6 sec)
COSX-gradient                    ... done ( 97.3 sec)
Exchange-correlation gradient    ... done
Dispersion correction            ... Starting D4


------------------- 
Dispersion Gradient 
------------------- 
   1  :    0.000163750    0.000194355    0.000314344
   2  :   -0.000146923    0.000497893    0.000058470
   3  :   -0.000286335    0.000391921   -0.000158685
   4  :   -0.000142294   -0.000165973   -0.000269491
   5  :    0.000241033   -0.000445749    0.000073669
   6  :    0.000320476   -0.000279093    0.000291542
   7  :    0.000272530    0.000302974    0.000496811
   8  :    0.000052308    0.000048288    0.000151274
   9  :    0.000042020    0.000096606    0.000120588
  10  :    0.000113303    0.000087810    0.000103634
  11  :   -0.000078740    0.000197787    0.000000896
  12  :   -0.000134065    0.000145986   -0.000096072
  13  :    0.000085236   -0.000203379    0.000003159
  14  :    0.000127079   -0.000139328    0.000097286
  15  :   -0.000243248   -0.000282859   -0.000459884
  16  :    0.000000683   -0.000314258   -0.000411176
  17  :   -0.000387188   -0.000133397   -0.000316877
  18  :    0.000000376    0.000000412    0.000000512

  |G| =    0.001577896

done

------------------
CARTESIAN GRADIENT
------------------

   1   C   :   -0.000000462   -0.000000796   -0.000000085
   2   C   :   -0.000003856    0.000008678   -0.000000498
   3   C   :    0.000001351   -0.000003010   -0.000003979
   4   C   :    0.000003372    0.000006688   -0.000001834
   5   C   :   -0.000004389   -0.000001051    0.000001015
   6   C   :   -0.000000876    0.000002915    0.000006889
   7   C   :   -0.000006463    0.000008591    0.000000653
   8   H   :   -0.000002455    0.000005167    0.000001445
   9   H   :    0.000000291    0.000004189   -0.000002301
  10   H   :   -0.000001332   -0.000000978    0.000003530
  11   H   :    0.000001481    0.000003079   -0.000002419
  12   H   :    0.000002071    0.000003156   -0.000000913
  13   H   :   -0.000002902    0.000000525    0.000008113
  14   H   :   -0.000004730   -0.000000347    0.000004266
  15   N   :   -0.000038297   -0.000005919   -0.000013806
  16   O   :   -0.000008160   -0.000021037   -0.000012201
  17   O   :   -0.000008320   -0.000019750   -0.000016713
  18   H   :    0.000041148    0.000044394    0.000059815

Difference to translation invariance:
           :   -0.0000325284    0.0000344945    0.0000309771

Difference to rotation invariance:
           :   -0.0002874506    0.0004793122   -0.0004001458

Norm of the cartesian gradient     ...    0.0001045139
RMS gradient                       ...    0.0000142225
MAX gradient                       ...    0.0000598151

-------
TIMINGS
-------

Total SCF gradient time            ...      142.679 sec

One electron gradient       ....       2.551 sec  (  1.8%)
RI-J Coulomb gradient       ....      15.621 sec  ( 10.9%)
COSX gradient               ....      97.258 sec  ( 68.2%)
XC gradient                 ....      22.074 sec  ( 15.5%)

Maximum memory used throughout the entire SCFGRAD-calculation: 170.2 MB
------------------------------------------------------------------------------
                         ORCA GEOMETRY RELAXATION STEP
------------------------------------------------------------------------------

Reading the OPT-File                    .... done
Getting information on internals        .... done
Copying old internal coords+grads       .... done
Making the new internal coordinates     .... (new redundants).... done
Validating the new internal coordinates .... (new redundants).... done
Calculating the B-matrix                .... done
Calculating the G,G- and P matrices     .... done
Transforming gradient to internals      .... done
Projecting the internal gradient        .... done
Number of atoms                         ....  18
Number of internal coordinates          .... 101
Current Energy                          ....  -476.136889252 Eh
Current gradient norm                   ....     0.000104514 Eh/bohr
Maximum allowed component of the step   ....  0.300
Current trust radius                    ....  0.300
Updating the Hessian (BFGS)             .... done
Forming the augmented Hessian           .... done
Diagonalizing the augmented Hessian     .... done
Last element of RFO vector              ....  0.716676006
Lowest eigenvalues of augmented Hessian:
 -0.000047186  0.000049819  0.000248204  0.006115029  0.013799764
Length of the computed step             ....  0.973112344
Warning: the length of the step is outside the trust region - taking restricted step instead
The input lambda is                     ....    -0.000047
   iter:   1  x=   -0.000070  g=38041.114078 f(x)=     0.856948
   iter:   2  x=   -0.000099  g=12418.347058 f(x)=     0.359082
   iter:   3  x=   -0.000129  g= 4528.211826 f(x)=     0.139242
   iter:   4  x=   -0.000151  g= 2043.679605 f(x)=     0.044890
   iter:   5  x=   -0.000158  g= 1287.896907 f(x)=     0.009152
   iter:   6  x=   -0.000159  g= 1124.852735 f(x)=     0.000597
   iter:   7  x=   -0.000159  g= 1113.798967 f(x)=     0.000003
   iter:   8  x=   -0.000159  g= 1113.743511 f(x)=     0.000000
   iter:   9  x=   -0.000159  g= 1113.743505 f(x)=     0.000000
The output lambda is                    ....    -0.000159 (9 iterations)
The final length of the internal step   ....  0.300000000
Converting the step to cartesian space:
 Initial RMS(Int)=    0.0298511157
Transforming coordinates:
 Iter   0:  RMS(Cart)=    0.0229091479 RMS(Int)=    0.0298515468
 Iter   1:  RMS(Cart)=    0.0000009615 RMS(Int)=    0.0000007654
 Iter   2:  RMS(Cart)=    0.0000000041 RMS(Int)=    0.0000000024
done
Storing new coordinates                 .... done

                                .--------------------.
          ----------------------|Geometry convergence|-------------------------
          Item                value                   Tolerance       Converged
          ---------------------------------------------------------------------
          Energy change      -0.0000144355            0.0000050000      NO
          RMS gradient        0.0000051707            0.0001000000      YES
          MAX gradient        0.0000289488            0.0003000000      YES
          RMS step            0.0298511157            0.0020000000      NO
          MAX step            0.1734994916            0.0040000000      NO
          ........................................................
          Max(Bonds)      0.0918      Max(Angles)    0.06
          Max(Dihed)        0.04      Max(Improp)    0.00
          ---------------------------------------------------------------------

The optimization has not yet converged - more geometry cycles are needed


    ---------------------------------------------------------------------------
                         Redundant Internal Coordinates
                            (Angstroem and degrees)

        Definition                    Value    dE/dq     Step     New-Value
    ----------------------------------------------------------------------------
     1. B(C   1,C   0)                1.4159  0.000004 -0.0000    1.4159   
     2. B(C   2,C   1)                1.3732  0.000002  0.0000    1.3732   
     3. B(C   3,C   2)                1.4019 -0.000002 -0.0000    1.4019   
     4. B(C   4,C   3)                1.4003  0.000003 -0.0000    1.4003   
     5. B(C   5,C   4)                1.3719  0.000000  0.0000    1.3719   
     6. B(C   5,C   0)                1.4211  0.000000 -0.0000    1.4211   
     7. B(C   6,C   0)                1.4812  0.000001  0.0000    1.4812   
     8. B(H   7,C   6)                1.0940 -0.000000 -0.0000    1.0940   
     9. B(H   8,C   6)                1.0878 -0.000001  0.0000    1.0878   
    10. B(H   9,C   6)                1.0997 -0.000001  0.0000    1.0997   
    11. B(H  10,C   1)                1.0817 -0.000001  0.0000    1.0817   
    12. B(H  11,C   2)                1.0807 -0.000001  0.0000    1.0807   
    13. B(H  12,C   4)                1.0806 -0.000000  0.0000    1.0806   
    14. B(H  13,C   5)                1.0822  0.000001 -0.0000    1.0822   
    15. B(N  14,C   3)                1.4587  0.000000  0.0000    1.4587   
    16. B(O  15,N  14)                1.2171  0.000009 -0.0000    1.2171   
    17. B(O  16,N  14)                1.2178 -0.000006 -0.0000    1.2178   
    18. B(H  17,O  16)               13.3916 -0.000029  0.0916   13.4831   
    19. B(H  17,O  15)               13.5652 -0.000026  0.0916   13.6568   
    20. B(H  17,N  14)               13.9775 -0.000029  0.0918   14.0693   
    21. A(C   5,C   0,C   6)          119.99 -0.000000    0.00    119.99   
    22. A(C   1,C   0,C   6)          121.00 -0.000001   -0.00    121.00   
    23. A(C   1,C   0,C   5)          119.00  0.000002    0.00    119.00   
    24. A(C   2,C   1,H  10)          119.95  0.000001   -0.00    119.95   
    25. A(C   0,C   1,C   2)          120.84 -0.000001    0.00    120.84   
    26. A(C   0,C   1,H  10)          119.21  0.000000    0.00    119.21   
    27. A(C   3,C   2,H  11)          119.80  0.000002    0.00    119.80   
    28. A(C   1,C   2,H  11)          122.04 -0.000002   -0.00    122.04   
    29. A(C   1,C   2,C   3)          118.16 -0.000000   -0.00    118.16   
    30. A(C   2,C   3,C   4)          123.02  0.000001   -0.00    123.02   
    31. A(C   4,C   3,N  14)          118.55 -0.000005    0.00    118.55   
    32. A(C   2,C   3,N  14)          118.43  0.000004   -0.00    118.43   
    33. A(C   3,C   4,C   5)          118.04  0.000001    0.00    118.04   
    34. A(C   5,C   4,H  12)          122.08 -0.000003    0.00    122.08   
    35. A(C   3,C   4,H  12)          119.88  0.000002   -0.00    119.88   
    36. A(C   0,C   5,C   4)          120.94 -0.000002    0.00    120.94   
    37. A(C   4,C   5,H  13)          119.95 -0.000002   -0.00    119.95   
    38. A(C   0,C   5,H  13)          119.11  0.000003    0.00    119.11   
    39. A(H   8,C   6,H   9)          107.98  0.000000   -0.00    107.98   
    40. A(H   7,C   6,H   9)          105.49 -0.000002    0.00    105.49   
    41. A(C   0,C   6,H   9)          109.56  0.000000   -0.00    109.56   
    42. A(H   7,C   6,H   8)          109.78  0.000001    0.00    109.79   
    43. A(C   0,C   6,H   8)          112.58  0.000001   -0.00    112.58   
    44. A(C   0,C   6,H   7)          111.16  0.000000    0.00    111.16   
    45. A(O  16,N  14,H  17)           59.03 -0.000001    0.00     59.03   
    46. A(O  15,N  14,H  17)           67.83  0.000002    0.00     67.84   
    47. A(C   3,N  14,H  17)          169.16  0.000003   -0.03    169.13   
    48. A(O  15,N  14,O  16)          126.01  0.000001    0.00    126.01   
    49. A(C   3,N  14,O  16)          116.90  0.000003   -0.01    116.89   
    50. A(C   3,N  14,O  15)          117.10 -0.000004    0.00    117.10   
    51. A(N  14,O  15,H  17)          107.40 -0.000003    0.03    107.43   
    52. A(N  14,O  16,H  17)          116.50  0.000002    0.03    116.53   
    53. A(O  15,H  17,O  16)            9.20  0.000000   -0.06      9.14   
    54. A(N  14,H  17,O  16)            4.47 -0.000000   -0.03      4.44   
    55. A(N  14,H  17,O  15)            4.77  0.000000   -0.03      4.73   
    56. D(H  10,C   1,C   0,C   5)   -179.93 -0.000000   -0.00   -179.93   
    57. D(H  10,C   1,C   0,C   6)     -0.74 -0.000000   -0.00     -0.75   
    58. D(C   2,C   1,C   0,C   5)      0.28  0.000000   -0.00      0.28   
    59. D(C   2,C   1,C   0,C   6)    179.47  0.000000   -0.00    179.46   
    60. D(C   3,C   2,C   1,C   0)     -0.49  0.000000   -0.00     -0.49   
    61. D(H  11,C   2,C   1,H  10)     -0.49 -0.000000    0.00     -0.49   
    62. D(C   3,C   2,C   1,H  10)    179.72  0.000000   -0.00    179.72   
    63. D(H  11,C   2,C   1,C   0)    179.30 -0.000000    0.00    179.30   
    64. D(N  14,C   3,C   2,H  11)      0.20 -0.000000    0.00      0.20   
    65. D(N  14,C   3,C   2,C   1)    179.99 -0.000001    0.00    180.00   
    66. D(C   4,C   3,C   2,H  11)   -179.55  0.000000    0.00   -179.55   
    67. D(C   4,C   3,C   2,C   1)      0.24 -0.000000    0.00      0.25   
    68. D(C   5,C   4,C   3,N  14)   -179.52  0.000001   -0.00   -179.53   
    69. D(H  12,C   4,C   3,C   2)   -179.69 -0.000000    0.00   -179.69   
    70. D(C   5,C   4,C   3,C   2)      0.23  0.000000   -0.00      0.23   
    71. D(H  12,C   4,C   3,N  14)      0.56  0.000000   -0.00      0.56   
    72. D(H  13,C   5,C   4,H  12)     -0.51  0.000000   -0.00     -0.52   
    73. D(C   0,C   5,C   4,H  12)    179.47  0.000000   -0.00    179.47   
    74. D(C   0,C   5,C   4,C   3)     -0.44 -0.000000    0.00     -0.44   
    75. D(H  13,C   5,C   0,C   6)      0.99 -0.000000    0.00      1.00   
    76. D(H  13,C   5,C   4,C   3)    179.57 -0.000000    0.00    179.57   
    77. D(H  13,C   5,C   0,C   1)   -179.82 -0.000000    0.00   -179.81   
    78. D(C   4,C   5,C   0,C   6)   -178.99 -0.000000    0.00   -178.99   
    79. D(C   4,C   5,C   0,C   1)      0.20 -0.000000    0.00      0.20   
    80. D(H   9,C   6,C   0,C   5)     71.74 -0.000002    0.02     71.76   
    81. D(H   9,C   6,C   0,C   1)   -107.44 -0.000002    0.02   -107.41   
    82. D(H   8,C   6,C   0,C   5)   -168.09 -0.000001    0.02   -168.08   
    83. D(H   8,C   6,C   0,C   1)     12.73 -0.000001    0.02     12.75   
    84. D(H   7,C   6,C   0,C   5)    -44.45  0.000000    0.02    -44.43   
    85. D(H   7,C   6,C   0,C   1)    136.37  0.000000    0.02    136.39   
    86. D(O  15,N  14,C   3,C   2)    140.44 -0.000001   -0.00    140.44   
    87. D(H  17,N  14,C   3,C   4)     74.95 -0.000001   -0.03     74.92   
    88. D(H  17,N  14,C   3,C   2)   -104.81 -0.000001   -0.03   -104.84   
    89. D(O  16,N  14,C   3,C   4)    140.15  0.000000    0.00    140.16   
    90. D(O  16,N  14,C   3,C   2)    -39.61  0.000001   -0.00    -39.61   
    91. D(O  15,N  14,C   3,C   4)    -39.80 -0.000001    0.00    -39.79   
    92. D(H  17,O  15,N  14,O  16)    -10.57  0.000001   -0.03    -10.60   
    93. D(H  17,O  15,N  14,C   3)    169.38  0.000003   -0.03    169.35   
    94. D(H  17,O  16,N  14,O  15)     11.42 -0.000001    0.03     11.46   
    95. D(H  17,O  16,N  14,C   3)   -168.52 -0.000003    0.03   -168.49   
    96. D(O  15,H  17,O  16,N  14)     -5.16  0.000000   -0.01     -5.17   
    97. D(O  16,H  17,O  15,N  14)      4.84 -0.000001    0.01      4.85   
    98. D(O  16,H  17,N  14,O  15)   -170.04 -0.000001    0.03   -170.01   
    99. D(O  16,H  17,N  14,C   3)     70.77  0.000000    0.04     70.82   
   100. D(O  15,H  17,N  14,O  16)    170.04  0.000001   -0.03    170.01   
   101. D(O  15,H  17,N  14,C   3)   -119.19  0.000002    0.02   -119.17   
    ----------------------------------------------------------------------------




    ----------------------------------------------------------------------------
                                   ERROR !!!
       The optimization did not converge but reached the maximum 
       number of optimization cycles.
       As a subsequent Frequencies calculation has been requested
       ORCA will abort at this point of the run.
       Please restart the calculation with the lowest energy geometry and/or
       a larger maxiter for the geometry optimization.
    ----------------------------------------------------------------------------


[file orca_main/run.cpp, line 12331]: ORCA finished with error return - aborting the run
