
                                 *****************
                                 * O   R   C   A *
                                 *****************

                                            #,                                       
                                            ###                                      
                                            ####                                     
                                            #####                                    
                                            ######                                   
                                           ########,                                 
                                     ,,################,,,,,                         
                               ,,#################################,,                 
                          ,,##########################################,,             
                       ,#########################################, ''#####,          
                    ,#############################################,,   '####,        
                  ,##################################################,,,,####,       
                ,###########''''           ''''###############################       
              ,#####''   ,,,,##########,,,,          '''####'''          '####       
            ,##' ,,,,###########################,,,                        '##       
           ' ,,###''''                  '''############,,,                           
         ,,##''                                '''############,,,,        ,,,,,,###''
      ,#''                                            '''#######################'''  
     '                                                          ''''####''''         
             ,#######,   #######,   ,#######,      ##                                
            ,#'     '#,  ##    ##  ,#'     '#,    #''#        ######   ,####,        
            ##       ##  ##   ,#'  ##            #'  '#       #        #'  '#        
            ##       ##  #######   ##           ,######,      #####,   #    #        
            '#,     ,#'  ##    ##  '#,     ,#' ,#      #,         ##   #,  ,#        
             '#######'   ##     ##  '#######'  #'      '#     #####' # '####'        



                  #######################################################
                  #                        -***-                        #
                  #          Department of theory and spectroscopy      #
                  #    Directorship and core code : Frank Neese         #
                  #        Max Planck Institute fuer Kohlenforschung    #
                  #                Kaiser Wilhelm Platz 1               #
                  #                 D-45470 Muelheim/Ruhr               #
                  #                      Germany                        #
                  #                                                     #
                  #                  All rights reserved                #
                  #                        -***-                        #
                  #######################################################



                         Program Version 5.0.4 -  RELEASE  -

 With contributions from (in alphabetic order):
   Daniel Aravena         : Magnetic Suceptibility
   Michael Atanasov       : Ab Initio Ligand Field Theory (pilot matlab implementation)
   Alexander A. Auer      : GIAO ZORA, VPT2 properties, NMR spectrum
   Ute Becker             : Parallelization
   Giovanni Bistoni       : ED, misc. LED, open-shell LED, HFLD
   Martin Brehm           : Molecular dynamics
   Dmytro Bykov           : SCF Hessian
   Vijay G. Chilkuri      : MRCI spin determinant printing, contributions to CSF-ICE
   Dipayan Datta          : RHF DLPNO-CCSD density
   Achintya Kumar Dutta   : EOM-CC, STEOM-CC
   Dmitry Ganyushin       : Spin-Orbit,Spin-Spin,Magnetic field MRCI
   Miquel Garcia          : C-PCM and meta-GGA Hessian, CC/C-PCM, Gaussian charge scheme
   Yang Guo               : DLPNO-NEVPT2, F12-NEVPT2, CIM, IAO-localization
   Andreas Hansen         : Spin unrestricted coupled pair/coupled cluster methods
   Benjamin Helmich-Paris : MC-RPA, TRAH-SCF, COSX integrals
   Lee Huntington         : MR-EOM, pCC
   Robert Izsak           : Overlap fitted RIJCOSX, COSX-SCS-MP3, EOM
   Marcus Kettner         : VPT2
   Christian Kollmar      : KDIIS, OOCD, Brueckner-CCSD(T), CCSD density, CASPT2, CASPT2-K
   Simone Kossmann        : Meta GGA functionals, TD-DFT gradient, OOMP2, MP2 Hessian
   Martin Krupicka        : Initial AUTO-CI
   Lucas Lang             : DCDCAS
   Marvin Lechner         : AUTO-CI (C++ implementation), FIC-MRCC
   Dagmar Lenk            : GEPOL surface, SMD
   Dimitrios Liakos       : Extrapolation schemes; Compound Job, initial MDCI parallelization
   Dimitrios Manganas     : Further ROCIS development; embedding schemes
   Dimitrios Pantazis     : SARC Basis sets
   Anastasios Papadopoulos: AUTO-CI, single reference methods and gradients
   Taras Petrenko         : DFT Hessian,TD-DFT gradient, ASA, ECA, R-Raman, ABS, FL, XAS/XES, NRVS
   Peter Pinski           : DLPNO-MP2, DLPNO-MP2 Gradient
   Christoph Reimann      : Effective Core Potentials
   Marius Retegan         : Local ZFS, SOC
   Christoph Riplinger    : Optimizer, TS searches, QM/MM, DLPNO-CCSD(T), (RO)-DLPNO pert. Triples
   Tobias Risthaus        : Range-separated hybrids, TD-DFT gradient, RPA, STAB
   Michael Roemelt        : Original ROCIS implementation
   Masaaki Saitow         : Open-shell DLPNO-CCSD energy and density
   Barbara Sandhoefer     : DKH picture change effects
   Avijit Sen             : IP-ROCIS
   Kantharuban Sivalingam : CASSCF convergence, NEVPT2, FIC-MRCI
   Bernardo de Souza      : ESD, SOC TD-DFT
   Georgi Stoychev        : AutoAux, RI-MP2 NMR, DLPNO-MP2 response
   Willem Van den Heuvel  : Paramagnetic NMR
   Boris Wezisla          : Elementary symmetry handling
   Frank Wennmohs         : Technical directorship


 We gratefully acknowledge several colleagues who have allowed us to
 interface, adapt or use parts of their codes:
   Stefan Grimme, W. Hujo, H. Kruse, P. Pracht,  : VdW corrections, initial TS optimization,
                  C. Bannwarth, S. Ehlert          DFT functionals, gCP, sTDA/sTD-DF
   Ed Valeev, F. Pavosevic, A. Kumar             : LibInt (2-el integral package), F12 methods
   Garnet Chan, S. Sharma, J. Yang, R. Olivares  : DMRG
   Ulf Ekstrom                                   : XCFun DFT Library
   Mihaly Kallay                                 : mrcc  (arbitrary order and MRCC methods)
   Jiri Pittner, Ondrej Demel                    : Mk-CCSD
   Frank Weinhold                                : gennbo (NPA and NBO analysis)
   Christopher J. Cramer and Donald G. Truhlar   : smd solvation model
   Lars Goerigk                                  : TD-DFT with DH, B97 family of functionals
   V. Asgeirsson, H. Jonsson                     : NEB implementation
   FAccTs GmbH                                   : IRC, NEB, NEB-TS, DLPNO-Multilevel, CI-OPT
                                                   MM, QMMM, 2- and 3-layer-ONIOM, Crystal-QMMM,
                                                   LR-CPCM, SF, NACMEs, symmetry and pop. for TD-DFT,
                                                   nearIR, NL-DFT gradient (VV10), updates on ESD,
                                                   ML-optimized integration grids
   S Lehtola, MJT Oliveira, MAL Marques          : LibXC Library
   Liviu Ungur et al                             : ANISO software


 Your calculation uses the libint2 library for the computation of 2-el integrals
 For citations please refer to: http://libint.valeyev.net

 Your ORCA version has been built with support for libXC version: 5.1.0
 For citations please refer to: https://tddft.org/programs/libxc/

 This ORCA versions uses:
   CBLAS   interface :  Fast vector & matrix operations
   LAPACKE interface :  Fast linear algebra routines
   Shared memory     :  Shared parallel matrices


================================================================================

----- Orbital basis set information -----
Your calculation utilizes the basis: def2-TZVP
   F. Weigend and R. Ahlrichs, Phys. Chem. Chem. Phys. 7, 3297 (2005).

----- AuxJ basis set information -----
Your calculation utilizes the auxiliary basis: def2/J
   F. Weigend, Phys. Chem. Chem. Phys. 8, 1057 (2006).

================================================================================
                                        WARNINGS
                       Please study these warnings very carefully!
================================================================================


WARNING: Geometry Optimization
  ===> : Switching off AutoStart
         For restart on a previous wavefunction, please use MOREAD

INFO   : the flag for use of the SHARK integral package has been found!

================================================================================
                                       INPUT FILE
================================================================================
NAME = benezen.inp
|  1> !B3LYP DEF2-TZVP OPT FREQ
|  2> 
|  3> * xyz 0 1
|  4>    C       -4.12724        1.59809        0.00000
|  5>    C       -5.23614        0.75309        0.00000
|  6>    C       -5.05879       -0.62975        0.00000
|  7>    C       -3.77255       -1.16759        0.00000
|  8>    C       -2.66365       -0.32259        0.00000
|  9>    C       -2.84099        1.06025        0.00000
| 10>    H       -4.26555        2.67655        0.00000
| 11>    H       -1.97617        1.71926        0.00000
| 12>    H       -1.66052       -0.74204        0.00000
| 13>    H       -3.63424       -2.24605        0.00000
| 14>    H       -5.92362       -1.28876        0.00000
| 15>    H       -6.23927        1.17254        0.00000
| 16> **                         ****END OF INPUT****
================================================================================

                       *****************************
                       * Geometry Optimization Run *
                       *****************************

Geometry optimization settings:
Update method            Update   .... BFGS
Choice of coordinates    CoordSys .... Z-matrix Internals
Initial Hessian          InHess   .... Almoef's Model

Convergence Tolerances:
Energy Change            TolE     ....  5.0000e-06 Eh
Max. Gradient            TolMAXG  ....  3.0000e-04 Eh/bohr
RMS Gradient             TolRMSG  ....  1.0000e-04 Eh/bohr
Max. Displacement        TolMAXD  ....  4.0000e-03 bohr
RMS Displacement         TolRMSD  ....  2.0000e-03 bohr
Strict Convergence                ....  False
------------------------------------------------------------------------------
                        ORCA OPTIMIZATION COORDINATE SETUP
------------------------------------------------------------------------------

The optimization will be done in new redundant internal coordinates
Making redundant internal coordinates   ...  (new redundants) done
Evaluating the initial hessian          ...  (Almloef) done
Evaluating the coordinates              ...  done
Calculating the B-matrix                .... done
Calculating the G-matrix                .... done
Diagonalizing the G-matrix              .... done
The first mode is                       ....   24
The number of degrees of freedom        ....   30

    -----------------------------------------------------------------
                    Redundant Internal Coordinates


    -----------------------------------------------------------------
         Definition                    Initial Value    Approx d2E/dq
    -----------------------------------------------------------------
      1. B(C   1,C   0)                  1.3942         0.615319   
      2. B(C   2,C   1)                  1.3942         0.615307   
      3. B(C   3,C   2)                  1.3942         0.615318   
      4. B(C   4,C   3)                  1.3942         0.615319   
      5. B(C   5,C   4)                  1.3942         0.615309   
      6. B(C   5,C   0)                  1.3942         0.615297   
      7. B(H   6,C   0)                  1.0873         0.363699   
      8. B(H   7,C   5)                  1.0873         0.363698   
      9. B(H   8,C   4)                  1.0873         0.363698   
     10. B(H   9,C   3)                  1.0873         0.363699   
     11. B(H  10,C   2)                  1.0873         0.363687   
     12. B(H  11,C   1)                  1.0873         0.363698   
     13. A(C   1,C   0,C   5)          120.0000         0.432882   
     14. A(C   1,C   0,H   6)          119.9998         0.353050   
     15. A(C   5,C   0,H   6)          120.0002         0.353048   
     16. A(C   0,C   1,H  11)          120.0002         0.353050   
     17. A(C   0,C   1,C   2)          119.9997         0.432883   
     18. A(C   2,C   1,H  11)          120.0001         0.353049   
     19. A(C   3,C   2,H  10)          120.0000         0.353048   
     20. A(C   1,C   2,C   3)          120.0005         0.432883   
     21. A(C   1,C   2,H  10)          119.9995         0.353047   
     22. A(C   4,C   3,H   9)          119.9998         0.353050   
     23. A(C   2,C   3,H   9)          120.0004         0.353050   
     24. A(C   2,C   3,C   4)          119.9998         0.432884   
     25. A(C   5,C   4,H   8)          119.9997         0.353049   
     26. A(C   3,C   4,H   8)          120.0002         0.353050   
     27. A(C   3,C   4,C   5)          120.0001         0.432883   
     28. A(C   0,C   5,C   4)          119.9999         0.432880   
     29. A(C   4,C   5,H   7)          120.0002         0.353049   
     30. A(C   0,C   5,H   7)          119.9998         0.353048   
     31. D(H  11,C   1,C   0,C   5)    180.0000         0.026175   
     32. D(H  11,C   1,C   0,H   6)      0.0000         0.026175   
     33. D(C   2,C   1,C   0,H   6)    180.0000         0.026175   
     34. D(C   2,C   1,C   0,C   5)      0.0000         0.026175   
     35. D(H  10,C   2,C   1,C   0)    180.0000         0.026174   
     36. D(C   3,C   2,C   1,C   0)      0.0000         0.026174   
     37. D(C   3,C   2,C   1,H  11)    180.0000         0.026174   
     38. D(H  10,C   2,C   1,H  11)      0.0000         0.026174   
     39. D(H   9,C   3,C   2,H  10)      0.0000         0.026175   
     40. D(H   9,C   3,C   2,C   1)    180.0000         0.026175   
     41. D(C   4,C   3,C   2,H  10)    180.0000         0.026175   
     42. D(C   4,C   3,C   2,C   1)      0.0000         0.026175   
     43. D(H   8,C   4,C   3,C   2)    180.0000         0.026175   
     44. D(C   5,C   4,C   3,H   9)    180.0000         0.026175   
     45. D(C   5,C   4,C   3,C   2)      0.0000         0.026175   
     46. D(H   8,C   4,C   3,H   9)      0.0000         0.026175   
     47. D(H   7,C   5,C   4,H   8)      0.0000         0.026175   
     48. D(C   0,C   5,C   4,H   8)    180.0000         0.026175   
     49. D(C   0,C   5,C   4,C   3)      0.0000         0.026175   
     50. D(H   7,C   5,C   0,H   6)      0.0000         0.026174   
     51. D(H   7,C   5,C   0,C   1)    180.0000         0.026174   
     52. D(H   7,C   5,C   4,C   3)    180.0000         0.026175   
     53. D(C   4,C   5,C   0,H   6)    180.0000         0.026174   
     54. D(C   4,C   5,C   0,C   1)      0.0000         0.026174   
    -----------------------------------------------------------------

Number of atoms                         .... 12
Number of degrees of freedom            .... 54

         *************************************************************
         *                GEOMETRY OPTIMIZATION CYCLE   1            *
         *************************************************************
---------------------------------
CARTESIAN COORDINATES (ANGSTROEM)
---------------------------------
  C     -4.127240    1.598090    0.000000
  C     -5.236140    0.753090    0.000000
  C     -5.058790   -0.629750    0.000000
  C     -3.772550   -1.167590    0.000000
  C     -2.663650   -0.322590    0.000000
  C     -2.840990    1.060250    0.000000
  H     -4.265550    2.676550    0.000000
  H     -1.976170    1.719260    0.000000
  H     -1.660520   -0.742040    0.000000
  H     -3.634240   -2.246050    0.000000
  H     -5.923620   -1.288760    0.000000
  H     -6.239270    1.172540    0.000000

----------------------------
CARTESIAN COORDINATES (A.U.)
----------------------------
  NO LB      ZA    FRAG     MASS         X           Y           Z
   0 C     6.0000    0    12.011   -7.799353    3.019952    0.000000
   1 C     6.0000    0    12.011   -9.894871    1.423134    0.000000
   2 C     6.0000    0    12.011   -9.559728   -1.190055    0.000000
   3 C     6.0000    0    12.011   -7.129086   -2.206425    0.000000
   4 C     6.0000    0    12.011   -5.033569   -0.609607    0.000000
   5 C     6.0000    0    12.011   -5.368693    2.003582    0.000000
   6 H     1.0000    0     1.008   -8.060721    5.057946    0.000000
   7 H     1.0000    0     1.008   -3.734420    3.248931    0.000000
   8 H     1.0000    0     1.008   -3.137928   -1.402252    0.000000
   9 H     1.0000    0     1.008   -6.867718   -4.244419    0.000000
  10 H     1.0000    0     1.008  -11.194020   -2.435403    0.000000
  11 H     1.0000    0     1.008  -11.790512    2.215779    0.000000

--------------------------------
INTERNAL COORDINATES (ANGSTROEM)
--------------------------------
 C      0   0   0     0.000000000000     0.00000000     0.00000000
 C      1   0   0     1.394160754719     0.00000000     0.00000000
 C      2   1   0     1.394166234027   119.99967529     0.00000000
 C      3   2   1     1.394161110919   120.00051591     0.00000000
 C      4   3   2     1.394160754719   119.99980880     0.00000000
 C      5   4   3     1.394164961975   120.00008292     0.00000000
 H      1   2   3     1.087292797594   119.99983709   180.00000085
 H      6   5   4     1.087293802291   120.00020724   180.00000000
 H      5   4   3     1.087293934224   120.00018946   180.00000085
 H      4   3   2     1.087292797594   120.00035411   180.00000085
 H      3   2   1     1.087301756184   119.99948022   180.00000085
 H      2   1   3     1.087293934224   120.00018946   180.00000000

---------------------------
INTERNAL COORDINATES (A.U.)
---------------------------
 C      0   0   0     0.000000000000     0.00000000     0.00000000
 C      1   0   0     2.634582013081     0.00000000     0.00000000
 C      2   1   0     2.634592367471   119.99967529     0.00000000
 C      3   2   1     2.634582686201   120.00051591     0.00000000
 C      4   3   2     2.634582013081   119.99980880     0.00000000
 C      5   4   3     2.634589963642   120.00008292     0.00000000
 H      1   2   3     2.054685614838   119.99983709   180.00000085
 H      6   5   4     2.054687513440   120.00020724   180.00000000
 H      5   4   3     2.054687762757   120.00018946   180.00000085
 H      4   3   2     2.054685614838   120.00035411   180.00000085
 H      3   2   1     2.054702544119   119.99948022   180.00000085
 H      2   1   3     2.054687762757   120.00018946   180.00000000

---------------------
BASIS SET INFORMATION
---------------------
There are 2 groups of distinct atoms

 Group   1 Type C   : 11s6p2d1f contracted to 5s3p2d1f pattern {62111/411/11/1}
 Group   2 Type H   : 5s1p contracted to 3s1p pattern {311/1}

Atom   0C    basis set group =>   1
Atom   1C    basis set group =>   1
Atom   2C    basis set group =>   1
Atom   3C    basis set group =>   1
Atom   4C    basis set group =>   1
Atom   5C    basis set group =>   1
Atom   6H    basis set group =>   2
Atom   7H    basis set group =>   2
Atom   8H    basis set group =>   2
Atom   9H    basis set group =>   2
Atom  10H    basis set group =>   2
Atom  11H    basis set group =>   2
---------------------------------
AUXILIARY/J BASIS SET INFORMATION
---------------------------------
There are 2 groups of distinct atoms

 Group   1 Type C   : 12s5p4d2f1g contracted to 6s4p3d1f1g pattern {711111/2111/211/2/1}
 Group   2 Type H   : 5s2p1d contracted to 3s1p1d pattern {311/2/1}

Atom   0C    basis set group =>   1
Atom   1C    basis set group =>   1
Atom   2C    basis set group =>   1
Atom   3C    basis set group =>   1
Atom   4C    basis set group =>   1
Atom   5C    basis set group =>   1
Atom   6H    basis set group =>   2
Atom   7H    basis set group =>   2
Atom   8H    basis set group =>   2
Atom   9H    basis set group =>   2
Atom  10H    basis set group =>   2
Atom  11H    basis set group =>   2
------------------------------------------------------------------------------
                           ORCA GTO INTEGRAL CALCULATION
                           -- RI-GTO INTEGRALS CHOSEN --
------------------------------------------------------------------------------
------------------------------------------------------------------------------
                   ___                                                        
                  /   \      - P O W E R E D   B Y -                         
                 /     \                                                     
                 |  |  |   _    _      __       _____    __    __             
                 |  |  |  | |  | |    /  \     |  _  \  |  |  /  |          
                  \  \/   | |  | |   /    \    | | | |  |  | /  /          
                 / \  \   | |__| |  /  /\  \   | |_| |  |  |/  /          
                |  |  |   |  __  | /  /__\  \  |    /   |      \           
                |  |  |   | |  | | |   __   |  |    \   |  |\   \          
                \     /   | |  | | |  |  |  |  | |\  \  |  | \   \       
                 \___/    |_|  |_| |__|  |__|  |_| \__\ |__|  \__/        
                                                                              
                      - O R C A' S   B I G   F R I E N D -                    
                                      &                                       
                       - I N T E G R A L  F E E D E R -                       
                                                                              
 v1 FN, 2020, v2 2021                                                         
------------------------------------------------------------------------------


Reading SHARK input file benezen.SHARKINP.tmp ... ok
----------------------
SHARK INTEGRAL PACKAGE
----------------------

Number of atoms                             ...     12
Number of basis functions                   ...    222
Number of shells                            ...     90
Maximum angular momentum                    ...      3
Integral batch strategy                     ... SHARK/LIBINT Hybrid
RI-J (if used) integral strategy            ... SPLIT-RIJ (Revised 2003 algorithm where possible)
Printlevel                                  ...      1
Contraction scheme used                     ... SEGMENTED contraction
Coulomb Range Separation                    ... NOT USED
Exchange Range Separation                   ... NOT USED
Finite Nucleus Model                        ... NOT USED
Auxiliary Coulomb fitting basis             ... AVAILABLE
   # of basis functions in Aux-J            ...    360
   # of shells in Aux-J                     ...    120
   Maximum angular momentum in Aux-J        ...      4
Auxiliary J/K fitting basis                 ... NOT available
Auxiliary Correlation fitting basis         ... NOT available
Auxiliary 'external' fitting basis          ... NOT available
Integral threshold                          ...     2.500000e-11
Primitive cut-off                           ...     2.500000e-12
Primitive pair pre-selection threshold      ...     2.500000e-12

Calculating pre-screening integrals         ... done (  0.4 sec) Dimension = 90
Organizing shell pair data                  ... done (  0.3 sec)
Shell pair information
Total number of shell pairs                 ...      4095
Shell pairs after pre-screening             ...      3957
Total number of primitive shell pairs       ...     12396
Primitive shell pairs kept                  ...      9531
          la=0 lb=0:   1089 shell pairs
          la=1 lb=0:   1110 shell pairs
          la=1 lb=1:    297 shell pairs
          la=2 lb=0:    570 shell pairs
          la=2 lb=1:    288 shell pairs
          la=2 lb=2:     78 shell pairs
          la=3 lb=0:    288 shell pairs
          la=3 lb=1:    144 shell pairs
          la=3 lb=2:     72 shell pairs
          la=3 lb=3:     21 shell pairs

Calculating one electron integrals          ... done (  0.2 sec)
Calculating RI/J V-Matrix + Cholesky decomp.... done (  0.1 sec)
Calculating Nuclear repulsion               ... done (  0.0 sec) ENN=    203.482178309162 Eh

SHARK setup successfully completed in   2.0 seconds

Maximum memory used throughout the entire GTOINT-calculation: 60.1 MB
-------------------------------------------------------------------------------
                                 ORCA SCF
-------------------------------------------------------------------------------

------------
SCF SETTINGS
------------
Hamiltonian:
 Density Functional     Method          .... DFT(GTOs)
 Exchange Functional    Exchange        .... B88
   X-Alpha parameter    XAlpha          ....  0.666667
   Becke's b parameter  XBeta           ....  0.004200
 Correlation Functional Correlation     .... LYP
 LDA part of GGA corr.  LDAOpt          .... VWN-5
 Gradients option       PostSCFGGA      .... off
 Hybrid DFT is turned on
   Fraction HF Exchange ScalHFX         ....  0.200000
   Scaling of DF-GGA-X  ScalDFX         ....  0.720000
   Scaling of DF-GGA-C  ScalDFC         ....  0.810000
   Scaling of DF-LDA-C  ScalLDAC        ....  1.000000
   Perturbative correction              ....  0.000000
   Density functional embedding theory  .... OFF
   NL short-range parameter             ....  4.800000
 RI-approximation to the Coulomb term is turned on
   Number of AuxJ basis functions       .... 360
   RIJ-COSX (HFX calculated with COS-X)).... on


General Settings:
 Integral files         IntName         .... benezen
 Hartree-Fock type      HFTyp           .... RHF
 Total Charge           Charge          ....    0
 Multiplicity           Mult            ....    1
 Number of Electrons    NEL             ....   42
 Basis Dimension        Dim             ....  222
 Nuclear Repulsion      ENuc            ....    203.4821783092 Eh

Convergence Acceleration:
 DIIS                   CNVDIIS         .... on
   Start iteration      DIISMaxIt       ....    12
   Startup error        DIISStart       ....  0.200000
   # of expansion vecs  DIISMaxEq       ....     5
   Bias factor          DIISBfac        ....   1.050
   Max. coefficient     DIISMaxC        ....  10.000
 Trust-Rad. Augm. Hess. CNVTRAH         .... auto
   Auto Start mean grad. ratio tolernc. ....  1.125000
   Auto Start start iteration           ....    20
   Auto Start num. interpolation iter.  ....    10
   Max. Number of Micro iterations      ....    16
   Max. Number of Macro iterations      .... Maxiter - #DIIS iter
   Number of Davidson start vectors     ....     2
   Converg. threshold I  (grad. norm)   ....   1.000e-05
   Converg. threshold II (energy diff.) ....   1.000e-08
   Grad. Scal. Fac. for Micro threshold ....   0.100
   Minimum threshold for Micro iter.    ....   0.010
   NR start threshold (gradient norm)   ....   0.001
   Initial trust radius                 ....   0.400
   Minimum AH scaling param. (alpha)    ....   1.000
   Maximum AH scaling param. (alpha)    .... 1000.000
   Orbital update algorithm             .... Taylor
   White noise on init. David. guess    .... on
   Maximum white noise                  ....   0.010
   Quad. conv. algorithm                .... NR
 SOSCF                  CNVSOSCF        .... on
   Start iteration      SOSCFMaxIt      ....   150
   Startup grad/error   SOSCFStart      ....  0.003300
 Level Shifting         CNVShift        .... on
   Level shift para.    LevelShift      ....    0.2500
   Turn off err/grad.   ShiftErr        ....    0.0010
 Zerner damping         CNVZerner       .... off
 Static damping         CNVDamp         .... on
   Fraction old density DampFac         ....    0.7000
   Max. Damping (<1)    DampMax         ....    0.9800
   Min. Damping (>=0)   DampMin         ....    0.0000
   Turn off err/grad.   DampErr         ....    0.1000
 Fernandez-Rico         CNVRico         .... off

SCF Procedure:
 Maximum # iterations   MaxIter         ....   125
 SCF integral mode      SCFMode         .... Direct
   Integral package                     .... SHARK and LIBINT hybrid scheme
 Reset frequency        DirectResetFreq ....    20
 Integral Threshold     Thresh          ....  2.500e-11 Eh
 Primitive CutOff       TCut            ....  2.500e-12 Eh

Convergence Tolerance:
 Convergence Check Mode ConvCheckMode   .... Total+1el-Energy
 Convergence forced     ConvForced      .... 0
 Energy Change          TolE            ....  1.000e-08 Eh
 1-El. energy change                    ....  1.000e-05 Eh
 Orbital Gradient       TolG            ....  1.000e-05
 Orbital Rotation angle TolX            ....  1.000e-05
 DIIS Error             TolErr          ....  5.000e-07


Diagonalization of the overlap matrix:
Smallest eigenvalue                        ... 1.030e-05
Time for diagonalization                   ...    0.045 sec
Threshold for overlap eigenvalues          ... 1.000e-08
Number of eigenvalues below threshold      ... 0
Time for construction of square roots      ...    0.024 sec
Total time needed                          ...    0.071 sec

Time for model grid setup =    1.126 sec

------------------------------
INITIAL GUESS: MODEL POTENTIAL
------------------------------
Loading Hartree-Fock densities                     ... done
Calculating cut-offs                               ... done
Initializing the effective Hamiltonian             ... done
Setting up the integral package (SHARK)            ... done
Starting the Coulomb interaction                   ... done (   1.4 sec)
Reading the grid                                   ... done
Mapping shells                                     ... done
Starting the XC term evaluation                    ... done (   2.8 sec)
  promolecular density results
     # of electrons  =     41.996734249
     EX              =    -32.606761098
     EC              =     -1.377217072
     EX+EC           =    -33.983978169
Transforming the Hamiltonian                       ... done (   0.0 sec)
Diagonalizing the Hamiltonian                      ... done (   0.0 sec)
Back transforming the eigenvectors                 ... done (   0.0 sec)
Now organizing SCF variables                       ... done
                      ------------------
                      INITIAL GUESS DONE (   5.4 sec)
                      ------------------
-------------------
DFT GRID GENERATION
-------------------

General Integration Accuracy     IntAcc      ... 4.388
Radial Grid Type                 RadialGrid  ... OptM3 with GC (2021)
Angular Grid (max. ang.)         AngularGrid ... 4 (Lebedev-302)
Angular grid pruning method      GridPruning ... 4 (adaptive)
Weight generation scheme         WeightScheme... Becke
Basis function cutoff            BFCut       ... 1.0000e-11
Integration weight cutoff        WCut        ... 1.0000e-14
Angular grids for H and He will be reduced by one unit
Partially contracted basis set               ... off
Rotationally invariant grid construction     ... off

Total number of grid points                  ...    55560
Total number of batches                      ...      872
Average number of points per batch           ...       63
Average number of grid points per atom       ...     4630
Time for grid setup =    4.527 sec

--------------------
COSX GRID GENERATION
--------------------

GRIDX 1
-------
General Integration Accuracy     IntAcc      ... 3.816
Radial Grid Type                 RadialGrid  ... OptM3 with GC (2021)
Angular Grid (max. ang.)         AngularGrid ... 1 (Lebedev-50)
Angular grid pruning method      GridPruning ... 4 (adaptive)
Weight generation scheme         WeightScheme... Becke
Basis function cutoff            BFCut       ... 1.0000e-11
Integration weight cutoff        WCut        ... 1.0000e-14
Angular grids for H and He will be reduced by one unit
Partially contracted basis set               ... on
Rotationally invariant grid construction     ... off

Total number of grid points                  ...     7132
Total number of batches                      ...      114
Average number of points per batch           ...       62
Average number of grid points per atom       ...      594
UseSFitting                                  ... on

GRIDX 2
-------
General Integration Accuracy     IntAcc      ... 4.020
Radial Grid Type                 RadialGrid  ... OptM3 with GC (2021)
Angular Grid (max. ang.)         AngularGrid ... 2 (Lebedev-110)
Angular grid pruning method      GridPruning ... 4 (adaptive)
Weight generation scheme         WeightScheme... Becke
Basis function cutoff            BFCut       ... 1.0000e-11
Integration weight cutoff        WCut        ... 1.0000e-14
Angular grids for H and He will be reduced by one unit
Partially contracted basis set               ... on
Rotationally invariant grid construction     ... off

Total number of grid points                  ...    15506
Total number of batches                      ...      248
Average number of points per batch           ...       62
Average number of grid points per atom       ...     1292
UseSFitting                                  ... on

GRIDX 3
-------
General Integration Accuracy     IntAcc      ... 4.338
Radial Grid Type                 RadialGrid  ... OptM3 with GC (2021)
Angular Grid (max. ang.)         AngularGrid ... 3 (Lebedev-194)
Angular grid pruning method      GridPruning ... 4 (adaptive)
Weight generation scheme         WeightScheme... Becke
Basis function cutoff            BFCut       ... 1.0000e-11
Integration weight cutoff        WCut        ... 1.0000e-14
Angular grids for H and He will be reduced by one unit
Partially contracted basis set               ... on
Rotationally invariant grid construction     ... off

Total number of grid points                  ...    34078
Total number of batches                      ...      538
Average number of points per batch           ...       63
Average number of grid points per atom       ...     2840
UseSFitting                                  ... on

Time for X-Grid setup             =    5.939 sec

--------------
SCF ITERATIONS
--------------
ITER       Energy         Delta-E        Max-DP      RMS-DP      [F,P]     Damp
               ***  Starting incremental Fock matrix formation  ***
  0   -232.0165169432   0.000000000000 0.02870532  0.00117797  0.1509571 0.7000
  1   -232.0921791515  -0.075662208341 0.01790241  0.00083661  0.0789246 0.7000
                               ***Turning on DIIS***
  2   -232.1243251426  -0.032145991100 0.02890742  0.00141033  0.0317570 0.0000
  3   -232.1698522807  -0.045527138087 0.01089503  0.00053712  0.0438586 0.0000
  4   -232.1826602481  -0.012807967395 0.00367855  0.00016989  0.0082283 0.0000
                      *** Initiating the SOSCF procedure ***
                           *** Shutting down DIIS ***
                      *** Re-Reading the Fockian *** 
                      *** Removing any level shift *** 
ITER      Energy       Delta-E        Grad      Rot      Max-DP    RMS-DP
  5   -232.18322783  -0.0005675842  0.000680  0.000680  0.001843  0.000067
               *** Restarting incremental Fock matrix formation ***
  6   -232.18323463  -0.0000067936  0.000238  0.000527  0.001245  0.000066
  7   -232.18323577  -0.0000011427  0.000136  0.000136  0.000260  0.000014
  8   -232.18323623  -0.0000004601  0.000060  0.000058  0.000131  0.000007
  9   -232.18323628  -0.0000000522  0.000021  0.000017  0.000015  0.000001
 10   -232.18323629  -0.0000000069  0.000003  0.000002  0.000010  0.000000
                 **** Energy Check signals convergence ****
              ***Rediagonalizing the Fockian in SOSCF/NRSCF***

               *****************************************************
               *                     SUCCESS                       *
               *           SCF CONVERGED AFTER  11 CYCLES          *
               *****************************************************

Old exchange energy                            =     -6.646641775 Eh
New exchange energy                            =     -6.646636449 Eh
Exchange energy change after final integration =      0.000005326 Eh
Total energy after final integration           =   -232.183230964 Eh
Final COS-X integration done in                =    96.206 sec

----------------
TOTAL SCF ENERGY
----------------

Total Energy       :         -232.18323096 Eh           -6318.02692 eV

Components:
Nuclear Repulsion  :          203.48217831 Eh            5537.03157 eV
Electronic Energy  :         -435.66540927 Eh          -11855.05849 eV
One Electron Energy:         -714.33024260 Eh          -19437.91411 eV
Two Electron Energy:          278.66483333 Eh            7582.85562 eV
Max COSX asymmetry :            0.00000055 Eh               0.00002 eV

Virial components:
Potential Energy   :         -463.20034726 Eh          -12604.32224 eV
Kinetic Energy     :          231.01711630 Eh            6286.29532 eV
Virial Ratio       :            2.00504774


DFT components:
N(Alpha)           :       20.999982959725 electrons
N(Beta)            :       20.999982959725 electrons
N(Total)           :       41.999965919450 electrons
E(X)               :      -26.387679888696 Eh       
E(C)               :       -1.635014037329 Eh       
E(XC)              :      -28.022693926025 Eh       
DFET-embed. en.    :        0.000000000000 Eh       

---------------
SCF CONVERGENCE
---------------

  Last Energy change         ...   -2.6338e-09  Tolerance :   1.0000e-08
  Last MAX-Density change    ...    6.6613e-16  Tolerance :   1.0000e-07
  Last RMS-Density change    ...    1.7742e-17  Tolerance :   5.0000e-09
  Last Orbital Gradient      ...    9.2028e-07  Tolerance :   1.0000e-05
  Last Orbital Rotation      ...    1.9977e-06  Tolerance :   1.0000e-05

             **** THE GBW FILE WAS UPDATED (benezen.gbw) ****
             **** DENSITY benezen.scfp WAS UPDATED ****
             **** ENERGY FILE WAS UPDATED (benezen.en.tmp) ****
             **** THE GBW FILE WAS UPDATED (benezen.gbw) ****
             **** DENSITY benezen.scfp WAS UPDATED ****
----------------
ORBITAL ENERGIES
----------------

  NO   OCC          E(Eh)            E(eV) 
   0   2.0000     -10.174841      -276.8715 
   1   2.0000     -10.174611      -276.8653 
   2   2.0000     -10.174606      -276.8651 
   3   2.0000     -10.174041      -276.8497 
   4   2.0000     -10.174035      -276.8496 
   5   2.0000     -10.173766      -276.8422 
   6   2.0000      -0.853575       -23.2270 
   7   2.0000      -0.745256       -20.2794 
   8   2.0000      -0.745252       -20.2793 
   9   2.0000      -0.602192       -16.3865 
  10   2.0000      -0.602191       -16.3864 
  11   2.0000      -0.523791       -14.2531 
  12   2.0000      -0.460489       -12.5305 
  13   2.0000      -0.447566       -12.1789 
  14   2.0000      -0.421943       -11.4816 
  15   2.0000      -0.421937       -11.4815 
  16   2.0000      -0.369046       -10.0422 
  17   2.0000      -0.345177        -9.3927 
  18   2.0000      -0.345175        -9.3927 
  19   2.0000      -0.255807        -6.9609 
  20   2.0000      -0.255803        -6.9607 
  21   0.0000      -0.011941        -0.3249 
  22   0.0000      -0.011935        -0.3248 
  23   0.0000       0.046838         1.2745 
  24   0.0000       0.078873         2.1462 
  25   0.0000       0.078879         2.1464 
  26   0.0000       0.105727         2.8770 
  27   0.0000       0.105745         2.8775 
  28   0.0000       0.127762         3.4766 
  29   0.0000       0.141735         3.8568 
  30   0.0000       0.152139         4.1399 
  31   0.0000       0.208258         5.6670 
  32   0.0000       0.211885         5.7657 
  33   0.0000       0.216689         5.8964 
  34   0.0000       0.216697         5.8966 
  35   0.0000       0.234307         6.3758 
  36   0.0000       0.234319         6.3762 
  37   0.0000       0.249448         6.7878 
  38   0.0000       0.249479         6.7887 
  39   0.0000       0.269869         7.3435 
  40   0.0000       0.269889         7.3440 
  41   0.0000       0.327480         8.9112 
  42   0.0000       0.328390         8.9359 
  43   0.0000       0.328411         8.9365 
  44   0.0000       0.357280         9.7221 
  45   0.0000       0.357302         9.7227 
  46   0.0000       0.381505        10.3813 
  47   0.0000       0.404716        11.0129 
  48   0.0000       0.413724        11.2580 
  49   0.0000       0.413740        11.2584 
  50   0.0000       0.436864        11.8877 
  51   0.0000       0.436879        11.8881 
  52   0.0000       0.440634        11.9903 
  53   0.0000       0.463776        12.6200 
  54   0.0000       0.464869        12.6497 
  55   0.0000       0.489553        13.3214 
  56   0.0000       0.489564        13.3217 
  57   0.0000       0.492167        13.3925 
  58   0.0000       0.507475        13.8091 
  59   0.0000       0.507526        13.8105 
  60   0.0000       0.643670        17.5151 
  61   0.0000       0.643750        17.5173 
  62   0.0000       0.653047        17.7703 
  63   0.0000       0.678215        18.4552 
  64   0.0000       0.683998        18.6125 
  65   0.0000       0.747441        20.3389 
  66   0.0000       0.747464        20.3395 
  67   0.0000       0.754575        20.5330 
  68   0.0000       0.754589        20.5334 
  69   0.0000       0.798294        21.7227 
  70   0.0000       0.844725        22.9861 
  71   0.0000       0.844736        22.9864 
  72   0.0000       0.853560        23.2265 
  73   0.0000       0.890093        24.2207 
  74   0.0000       0.890182        24.2231 
  75   0.0000       1.001900        27.2631 
  76   0.0000       1.001914        27.2635 
  77   0.0000       1.012132        27.5415 
  78   0.0000       1.012177        27.5427 
  79   0.0000       1.051487        28.6124 
  80   0.0000       1.051520        28.6133 
  81   0.0000       1.167103        31.7585 
  82   0.0000       1.175145        31.9773 
  83   0.0000       1.175185        31.9784 
  84   0.0000       1.204073        32.7645 
  85   0.0000       1.204103        32.7653 
  86   0.0000       1.221331        33.2341 
  87   0.0000       1.221352        33.2347 
  88   0.0000       1.249776        34.0081 
  89   0.0000       1.249806        34.0089 
  90   0.0000       1.284428        34.9511 
  91   0.0000       1.374534        37.4030 
  92   0.0000       1.374886        37.4125 
  93   0.0000       1.386524        37.7292 
  94   0.0000       1.450576        39.4722 
  95   0.0000       1.450618        39.4733 
  96   0.0000       1.479468        40.2584 
  97   0.0000       1.479504        40.2593 
  98   0.0000       1.482758        40.3479 
  99   0.0000       1.482776        40.3484 
 100   0.0000       1.595546        43.4170 
 101   0.0000       1.608197        43.7613 
 102   0.0000       1.653284        44.9882 
 103   0.0000       1.664338        45.2889 
 104   0.0000       1.664342        45.2890 
 105   0.0000       1.677844        45.6565 
 106   0.0000       1.688621        45.9497 
 107   0.0000       1.688628        45.9499 
 108   0.0000       1.701264        46.2938 
 109   0.0000       1.701308        46.2949 
 110   0.0000       1.762303        47.9547 
 111   0.0000       1.838269        50.0219 
 112   0.0000       1.900930        51.7269 
 113   0.0000       1.900942        51.7273 
 114   0.0000       2.029887        55.2360 
 115   0.0000       2.029893        55.2362 
 116   0.0000       2.062543        56.1247 
 117   0.0000       2.075921        56.4887 
 118   0.0000       2.075944        56.4893 
 119   0.0000       2.079095        56.5750 
 120   0.0000       2.153788        58.6076 
 121   0.0000       2.153810        58.6081 
 122   0.0000       2.218781        60.3761 
 123   0.0000       2.232186        60.7409 
 124   0.0000       2.232206        60.7414 
 125   0.0000       2.317650        63.0665 
 126   0.0000       2.453857        66.7729 
 127   0.0000       2.484804        67.6149 
 128   0.0000       2.484830        67.6157 
 129   0.0000       2.549119        69.3651 
 130   0.0000       2.552775        69.4645 
 131   0.0000       2.552803        69.4653 
 132   0.0000       2.562173        69.7203 
 133   0.0000       2.584626        70.3313 
 134   0.0000       2.647955        72.0545 
 135   0.0000       2.647972        72.0550 
 136   0.0000       2.664057        72.4927 
 137   0.0000       2.666971        72.5720 
 138   0.0000       2.666977        72.5721 
 139   0.0000       2.670860        72.6778 
 140   0.0000       2.670869        72.6780 
 141   0.0000       2.735229        74.4294 
 142   0.0000       2.746373        74.7326 
 143   0.0000       2.746416        74.7338 
 144   0.0000       2.800576        76.2075 
 145   0.0000       2.801114        76.2222 
 146   0.0000       2.801144        76.2230 
 147   0.0000       2.838086        77.2282 
 148   0.0000       2.840613        77.2970 
 149   0.0000       2.840617        77.2971 
 150   0.0000       2.846587        77.4596 
 151   0.0000       2.846628        77.4607 
 152   0.0000       2.894461        78.7623 
 153   0.0000       3.009738        81.8991 
 154   0.0000       3.096209        84.2521 
 155   0.0000       3.096222        84.2525 
 156   0.0000       3.097592        84.2898 
 157   0.0000       3.097646        84.2912 
 158   0.0000       3.131861        85.2223 
 159   0.0000       3.131873        85.2226 
 160   0.0000       3.138796        85.4110 
 161   0.0000       3.138800        85.4111 
 162   0.0000       3.187231        86.7290 
 163   0.0000       3.209811        87.3434 
 164   0.0000       3.209858        87.3447 
 165   0.0000       3.244922        88.2988 
 166   0.0000       3.252807        88.5134 
 167   0.0000       3.252827        88.5139 
 168   0.0000       3.307369        89.9981 
 169   0.0000       3.348594        91.1199 
 170   0.0000       3.369041        91.6763 
 171   0.0000       3.369055        91.6766 
 172   0.0000       3.382073        92.0309 
 173   0.0000       3.441198        93.6397 
 174   0.0000       3.441225        93.6405 
 175   0.0000       3.463241        94.2396 
 176   0.0000       3.496491        95.1443 
 177   0.0000       3.520247        95.7908 
 178   0.0000       3.520274        95.7915 
 179   0.0000       3.593137        97.7742 
 180   0.0000       3.637642        98.9853 
 181   0.0000       3.637706        98.9870 
 182   0.0000       3.743014       101.8526 
 183   0.0000       3.752434       102.1089 
 184   0.0000       3.752457       102.1095 
 185   0.0000       3.792289       103.1934 
 186   0.0000       3.860307       105.0443 
 187   0.0000       3.988105       108.5218 
 188   0.0000       3.988109       108.5220 
 189   0.0000       4.058078       110.4259 
 190   0.0000       4.062445       110.5447 
 191   0.0000       4.062487       110.5459 
 192   0.0000       4.105219       111.7087 
 193   0.0000       4.194665       114.1426 
 194   0.0000       4.194713       114.1440 
 195   0.0000       4.194995       114.1516 
 196   0.0000       4.217436       114.7623 
 197   0.0000       4.217448       114.7626 
 198   0.0000       4.277384       116.3935 
 199   0.0000       4.277418       116.3945 
 200   0.0000       4.287899       116.6797 
 201   0.0000       4.287946       116.6809 
 202   0.0000       4.619137       125.6931 
 203   0.0000       4.638835       126.2291 
 204   0.0000       4.638853       126.2296 
 205   0.0000       4.650193       126.5382 
 206   0.0000       4.817584       131.0931 
 207   0.0000       4.817655       131.0950 
 208   0.0000       4.880610       132.8082 
 209   0.0000       4.880619       132.8084 
 210   0.0000       5.189649       141.2175 
 211   0.0000       5.189658       141.2178 
 212   0.0000       5.268609       143.3661 
 213   0.0000       5.285910       143.8369 
 214   0.0000       5.405692       147.0964 
 215   0.0000       5.616688       152.8379 
 216   0.0000      21.854039       594.6786 
 217   0.0000      22.514594       612.6532 
 218   0.0000      22.514606       612.6536 
 219   0.0000      22.609985       615.2490 
 220   0.0000      22.610008       615.2496 
 221   0.0000      23.028827       626.6462 

                    ********************************
                    * MULLIKEN POPULATION ANALYSIS *
                    ********************************

-----------------------
MULLIKEN ATOMIC CHARGES
-----------------------
   0 C :   -0.107097
   1 C :   -0.107298
   2 C :   -0.107040
   3 C :   -0.107186
   4 C :   -0.107208
   5 C :   -0.107138
   6 H :    0.107107
   7 H :    0.107069
   8 H :    0.107345
   9 H :    0.107083
  10 H :    0.107048
  11 H :    0.107314
Sum of atomic charges:    0.0000000

--------------------------------
MULLIKEN REDUCED ORBITAL CHARGES
--------------------------------
  0 C s       :     3.199971  s :     3.199971
      pz      :     0.965513  p :     2.821503
      px      :     0.895174
      py      :     0.960816
      dz2     :     0.004871  d :     0.078365
      dxz     :     0.022051
      dyz     :     0.004811
      dx2y2   :     0.027535
      dxy     :     0.019097
      f0      :     0.001495  f :     0.007257
      f+1     :     0.000458
      f-1     :     0.000608
      f+2     :     0.000233
      f-2     :     0.001090
      f+3     :     0.001992
      f-3     :     0.001380
  1 C s       :     3.199836  s :     3.199836
      pz      :     0.965604  p :     2.821864
      px      :     0.951977
      py      :     0.904283
      dz2     :     0.004871  d :     0.078340
      dxz     :     0.007175
      dyz     :     0.019688
      dx2y2   :     0.023238
      dxy     :     0.023368
      f0      :     0.001496  f :     0.007258
      f+1     :     0.000588
      f-1     :     0.000479
      f+2     :     0.000668
      f-2     :     0.000655
      f+3     :     0.001993
      f-3     :     0.001379
  2 C s       :     3.200402  s :     3.200402
      pz      :     0.965524  p :     2.821038
      px      :     0.936678
      py      :     0.918836
      dz2     :     0.004882  d :     0.078344
      dxz     :     0.011070
      dyz     :     0.015787
      dx2y2   :     0.019138
      dxy     :     0.027467
      f0      :     0.001495  f :     0.007256
      f+1     :     0.000554
      f-1     :     0.000512
      f+2     :     0.001083
      f-2     :     0.000240
      f+3     :     0.001992
      f-3     :     0.001380
  3 C s       :     3.200097  s :     3.200097
      pz      :     0.965514  p :     2.821468
      px      :     0.895162
      py      :     0.960792
      dz2     :     0.004870  d :     0.078364
      dxz     :     0.022051
      dyz     :     0.004811
      dx2y2   :     0.027533
      dxy     :     0.019098
      f0      :     0.001495  f :     0.007257
      f+1     :     0.000458
      f-1     :     0.000608
      f+2     :     0.000233
      f-2     :     0.001090
      f+3     :     0.001992
      f-3     :     0.001380
  4 C s       :     3.199676  s :     3.199676
      pz      :     0.965603  p :     2.821931
      px      :     0.952005
      py      :     0.904324
      dz2     :     0.004871  d :     0.078343
      dxz     :     0.007175
      dyz     :     0.019688
      dx2y2   :     0.023240
      dxy     :     0.023369
      f0      :     0.001496  f :     0.007258
      f+1     :     0.000588
      f-1     :     0.000479
      f+2     :     0.000668
      f-2     :     0.000655
      f+3     :     0.001993
      f-3     :     0.001379
  5 C s       :     3.200428  s :     3.200428
      pz      :     0.965526  p :     2.821110
      px      :     0.936716
      py      :     0.918869
      dz2     :     0.004881  d :     0.078345
      dxz     :     0.011070
      dyz     :     0.015787
      dx2y2   :     0.019138
      dxy     :     0.027469
      f0      :     0.001495  f :     0.007256
      f+1     :     0.000554
      f-1     :     0.000512
      f+2     :     0.001083
      f-2     :     0.000240
      f+3     :     0.001992
      f-3     :     0.001380
  6 H s       :     0.870720  s :     0.870720
      pz      :     0.004774  p :     0.022172
      px      :     0.003722
      py      :     0.013677
  7 H s       :     0.870759  s :     0.870759
      pz      :     0.004773  p :     0.022172
      px      :     0.010064
      py      :     0.007335
  8 H s       :     0.870484  s :     0.870484
      pz      :     0.004773  p :     0.022171
      px      :     0.012312
      py      :     0.005086
  9 H s       :     0.870744  s :     0.870744
      pz      :     0.004774  p :     0.022173
      px      :     0.003722
      py      :     0.013677
 10 H s       :     0.870779  s :     0.870779
      pz      :     0.004773  p :     0.022172
      px      :     0.010064
      py      :     0.007335
 11 H s       :     0.870514  s :     0.870514
      pz      :     0.004773  p :     0.022172
      px      :     0.012313
      py      :     0.005086


                     *******************************
                     * LOEWDIN POPULATION ANALYSIS *
                     *******************************

----------------------
LOEWDIN ATOMIC CHARGES
----------------------
   0 C :   -0.141642
   1 C :   -0.141682
   2 C :   -0.141641
   3 C :   -0.141643
   4 C :   -0.141681
   5 C :   -0.141640
   6 H :    0.141650
   7 H :    0.141647
   8 H :    0.141666
   9 H :    0.141651
  10 H :    0.141649
  11 H :    0.141666

-------------------------------
LOEWDIN REDUCED ORBITAL CHARGES
-------------------------------
  0 C s       :     2.768937  s :     2.768937
      pz      :     0.887062  p :     2.947094
      px      :     1.069388
      py      :     0.990643
      dz2     :     0.025922  d :     0.382768
      dxz     :     0.075603
      dyz     :     0.012385
      dx2y2   :     0.162144
      dxy     :     0.106714
      f0      :     0.002967  f :     0.042843
      f+1     :     0.004433
      f-1     :     0.003296
      f+2     :     0.001656
      f-2     :     0.007061
      f+3     :     0.014267
      f-3     :     0.009162
  1 C s       :     2.768937  s :     2.768937
      pz      :     0.887089  p :     2.947135
      px      :     1.001446
      py      :     1.058600
      dz2     :     0.025923  d :     0.382767
      dxz     :     0.021051
      dyz     :     0.066939
      dx2y2   :     0.134003
      dxy     :     0.134851
      f0      :     0.002967  f :     0.042843
      f+1     :     0.003452
      f-1     :     0.004277
      f+2     :     0.004400
      f-2     :     0.004318
      f+3     :     0.014267
      f-3     :     0.009162
  2 C s       :     2.768940  s :     2.768940
      pz      :     0.887067  p :     2.947088
      px      :     1.019218
      py      :     1.040803
      dz2     :     0.025924  d :     0.382770
      dxz     :     0.035330
      dyz     :     0.052660
      dx2y2   :     0.107140
      dxy     :     0.161716
      f0      :     0.002967  f :     0.042843
      f+1     :     0.003709
      f-1     :     0.004021
      f+2     :     0.007020
      f-2     :     0.001698
      f+3     :     0.014267
      f-3     :     0.009162
  3 C s       :     2.768935  s :     2.768935
      pz      :     0.887062  p :     2.947095
      px      :     1.069390
      py      :     0.990642
      dz2     :     0.025922  d :     0.382771
      dxz     :     0.075604
      dyz     :     0.012385
      dx2y2   :     0.162144
      dxy     :     0.106715
      f0      :     0.002967  f :     0.042843
      f+1     :     0.004433
      f-1     :     0.003296
      f+2     :     0.001656
      f-2     :     0.007061
      f+3     :     0.014267
      f-3     :     0.009162
  4 C s       :     2.768936  s :     2.768936
      pz      :     0.887088  p :     2.947133
      px      :     1.001445
      py      :     1.058601
      dz2     :     0.025923  d :     0.382768
      dxz     :     0.021052
      dyz     :     0.066939
      dx2y2   :     0.134003
      dxy     :     0.134851
      f0      :     0.002967  f :     0.042843
      f+1     :     0.003452
      f-1     :     0.004277
      f+2     :     0.004401
      f-2     :     0.004318
      f+3     :     0.014267
      f-3     :     0.009162
  5 C s       :     2.768941  s :     2.768941
      pz      :     0.887069  p :     2.947090
      px      :     1.019217
      py      :     1.040804
      dz2     :     0.025923  d :     0.382766
      dxz     :     0.035329
      dyz     :     0.052659
      dx2y2   :     0.107139
      dxy     :     0.161716
      f0      :     0.002967  f :     0.042843
      f+1     :     0.003709
      f-1     :     0.004021
      f+2     :     0.007020
      f-2     :     0.001698
      f+3     :     0.014267
      f-3     :     0.009162
  6 H s       :     0.800603  s :     0.800603
      pz      :     0.013253  p :     0.057747
      px      :     0.011048
      py      :     0.033445
  7 H s       :     0.800607  s :     0.800607
      pz      :     0.013254  p :     0.057746
      px      :     0.025316
      py      :     0.019176
  8 H s       :     0.800587  s :     0.800587
      pz      :     0.013253  p :     0.057747
      px      :     0.030375
      py      :     0.014118
  9 H s       :     0.800603  s :     0.800603
      pz      :     0.013253  p :     0.057747
      px      :     0.011048
      py      :     0.033445
 10 H s       :     0.800606  s :     0.800606
      pz      :     0.013253  p :     0.057745
      px      :     0.025316
      py      :     0.019176
 11 H s       :     0.800587  s :     0.800587
      pz      :     0.013254  p :     0.057747
      px      :     0.030375
      py      :     0.014118


                      *****************************
                      * MAYER POPULATION ANALYSIS *
                      *****************************

  NA   - Mulliken gross atomic population
  ZA   - Total nuclear charge
  QA   - Mulliken gross atomic charge
  VA   - Mayer's total valence
  BVA  - Mayer's bonded valence
  FA   - Mayer's free valence

  ATOM       NA         ZA         QA         VA         BVA        FA
  0 C      6.1071     6.0000    -0.1071     3.9207     3.9207     0.0000
  1 C      6.1073     6.0000    -0.1073     3.9208     3.9208    -0.0000
  2 C      6.1070     6.0000    -0.1070     3.9204     3.9204     0.0000
  3 C      6.1072     6.0000    -0.1072     3.9208     3.9208     0.0000
  4 C      6.1072     6.0000    -0.1072     3.9208     3.9208     0.0000
  5 C      6.1071     6.0000    -0.1071     3.9206     3.9206    -0.0000
  6 H      0.8929     1.0000     0.1071     0.9686     0.9686     0.0000
  7 H      0.8929     1.0000     0.1071     0.9686     0.9686    -0.0000
  8 H      0.8927     1.0000     0.1073     0.9685     0.9685     0.0000
  9 H      0.8929     1.0000     0.1071     0.9686     0.9686     0.0000
 10 H      0.8930     1.0000     0.1070     0.9686     0.9686     0.0000
 11 H      0.8927     1.0000     0.1073     0.9685     0.9685    -0.0000

  Mayer bond orders larger than 0.100000
B(  0-C ,  1-C ) :   1.4148 B(  0-C ,  5-C ) :   1.4144 B(  0-C ,  6-H ) :   0.9659 
B(  1-C ,  2-C ) :   1.4144 B(  1-C , 11-H ) :   0.9658 B(  2-C ,  3-C ) :   1.4143 
B(  2-C , 10-H ) :   0.9660 B(  3-C ,  4-C ) :   1.4148 B(  3-C ,  9-H ) :   0.9659 
B(  4-C ,  5-C ) :   1.4145 B(  4-C ,  8-H ) :   0.9657 B(  5-C ,  7-H ) :   0.9659 


-------
TIMINGS
-------

Total SCF time: 0 days 0 hours 10 min 31 sec 

Total time                  ....     631.987 sec
Sum of individual times     ....     629.774 sec  ( 99.6%)

Fock matrix formation       ....     612.828 sec  ( 97.0%)
  Split-RI-J                ....      34.661 sec  (  5.7% of F)
  Chain of spheres X        ....     488.803 sec  ( 79.8% of F)
  XC integration            ....      89.016 sec  ( 14.5% of F)
    Basis function eval.    ....      26.712 sec  ( 30.0% of XC)
    Density eval.           ....      26.601 sec  ( 29.9% of XC)
    XC-Functional eval.     ....       3.352 sec  (  3.8% of XC)
    XC-Potential eval.      ....      29.544 sec  ( 33.2% of XC)
Diagonalization             ....       0.295 sec  (  0.0%)
Density matrix formation    ....       0.047 sec  (  0.0%)
Population analysis         ....       0.138 sec  (  0.0%)
Initial guess               ....       4.322 sec  (  0.7%)
Orbital Transformation      ....       0.000 sec  (  0.0%)
Orbital Orthonormalization  ....       0.000 sec  (  0.0%)
DIIS solution               ....       0.316 sec  (  0.1%)
SOSCF solution              ....       0.236 sec  (  0.0%)
Grid generation             ....      11.592 sec  (  1.8%)

Maximum memory used throughout the entire SCF-calculation: 124.1 MB

-------------------------   --------------------
FINAL SINGLE POINT ENERGY      -232.183230964430
-------------------------   --------------------

------------------------------------------------------------------------------
                         ORCA SCF GRADIENT CALCULATION
------------------------------------------------------------------------------

 ... reading COSX grid (gridx3)
Gradient of the Kohn-Sham DFT energy:
Kohn-Sham wavefunction type      ... RKS
Hartree-Fock exchange scaling    ...    0.200
Number of operators              ...    1
Number of atoms                  ...   12
Basis set dimensions             ...  222
Integral neglect threshold       ... 2.5e-11
Integral primitive cutoff        ... 2.5e-12
SHARK Integral package           ... ON

Nuc. rep. gradient       (SHARK) ... done (  0.0 sec)
HCore & Overlap gradient (SHARK) ... done (  2.0 sec)
RI-J gradient            (SHARK) ... done ( 10.1 sec)
COSX-gradient                    ... done ( 89.2 sec)
Exchange-correlation gradient    ... done

------------------
CARTESIAN GRADIENT
------------------

   1   C   :    0.000049329   -0.000103086    0.000000038
   2   C   :    0.000091655   -0.000010241   -0.000000024
   3   C   :    0.000034349    0.000038947    0.000000001
   4   C   :   -0.000054005    0.000104621    0.000000012
   5   C   :   -0.000095385    0.000009296    0.000000006
   6   C   :   -0.000021533   -0.000037721   -0.000000032
   7   H   :   -0.000344911    0.002787325   -0.000000011
   8   H   :    0.002238662    0.001716786    0.000000007
   9   H   :    0.002602847   -0.001080937    0.000000000
  10   H   :    0.000344864   -0.002787342   -0.000000008
  11   H   :   -0.002242946   -0.001719146    0.000000002
  12   H   :   -0.002602867    0.001081505    0.000000008

Difference to translation invariance:
           :    0.0000000594    0.0000000077   -0.0000000007

Difference to rotation invariance:
           :   -0.0000000065    0.0000000152   -0.0003918433

Norm of the cartesian gradient     ...    0.0069035203
RMS gradient                       ...    0.0011505867
MAX gradient                       ...    0.0027873421

-------
TIMINGS
-------

Total SCF gradient time            ...      133.426 sec

One electron gradient       ....       1.973 sec  (  1.5%)
RI-J Coulomb gradient       ....      10.124 sec  (  7.6%)
COSX gradient               ....      89.248 sec  ( 66.9%)
XC gradient                 ....      27.125 sec  ( 20.3%)

Maximum memory used throughout the entire SCFGRAD-calculation: 95.3 MB
------------------------------------------------------------------------------
                         ORCA GEOMETRY RELAXATION STEP
------------------------------------------------------------------------------

Reading the OPT-File                    .... done
Getting information on internals        .... done
Copying old internal coords+grads       .... done
Making the new internal coordinates     .... (new redundants).... done
Validating the new internal coordinates .... (new redundants).... done
Calculating the B-matrix                .... done
Calculating the G,G- and P matrices     .... done
Transforming gradient to internals      .... done
Projecting the internal gradient        .... done
Number of atoms                         ....  12
Number of internal coordinates          ....  54
Current Energy                          ....  -232.183230964 Eh
Current gradient norm                   ....     0.006903520 Eh/bohr
Maximum allowed component of the step   ....  0.300
Current trust radius                    ....  0.300
Evaluating the initial hessian          ....  (Almloef) done
Projecting the Hessian                  .... done
Forming the augmented Hessian           .... done
Diagonalizing the augmented Hessian     .... done
Last element of RFO vector              ....  0.999761056
Lowest eigenvalues of augmented Hessian:
 -0.000203780  0.026173979  0.026174233  0.026174481  0.026174786
Length of the computed step             ....  0.021864578
The final length of the internal step   ....  0.021864578
Converting the step to cartesian space:
 Initial RMS(Int)=    0.0029753921
Transforming coordinates:
 Iter   0:  RMS(Cart)=    0.0052951249 RMS(Int)=    2.0943971866
 Iter   1:  RMS(Cart)=    0.0000001067 RMS(Int)=    0.0000000757
 Iter   2:  RMS(Cart)=    0.0000000003 RMS(Int)=    0.0000000002
done
Storing new coordinates                 .... done

                                .--------------------.
          ----------------------|Geometry convergence|-------------------------
          Item                value                   Tolerance       Converged
          ---------------------------------------------------------------------
          RMS gradient        0.0013088457            0.0001000000      NO
          MAX gradient        0.0028259926            0.0003000000      NO
          RMS step            0.0029753921            0.0020000000      NO
          MAX step            0.0077660421            0.0040000000      NO
          ........................................................
          Max(Bonds)      0.0041      Max(Angles)    0.01
          Max(Dihed)        0.00      Max(Improp)    0.00
          ---------------------------------------------------------------------

The optimization has not yet converged - more geometry cycles are needed


    ---------------------------------------------------------------------------
                         Redundant Internal Coordinates
                            (Angstroem and degrees)

        Definition                    Value    dE/dq     Step     New-Value
    ----------------------------------------------------------------------------
     1. B(C   1,C   0)                1.3942  0.002759 -0.0024    1.3918   
     2. B(C   2,C   1)                1.3942  0.002733 -0.0023    1.3918   
     3. B(C   3,C   2)                1.3942  0.002711 -0.0023    1.3918   
     4. B(C   4,C   3)                1.3942  0.002758 -0.0024    1.3918   
     5. B(C   5,C   4)                1.3942  0.002733 -0.0023    1.3918   
     6. B(C   5,C   0)                1.3942  0.002717 -0.0023    1.3918   
     7. B(H   6,C   0)                1.0873  0.002809 -0.0041    1.0832   
     8. B(H   7,C   5)                1.0873  0.002821 -0.0041    1.0832   
     9. B(H   8,C   4)                1.0873  0.002818 -0.0041    1.0832   
    10. B(H   9,C   3)                1.0873  0.002809 -0.0041    1.0832   
    11. B(H  10,C   2)                1.0873  0.002826 -0.0041    1.0832   
    12. B(H  11,C   1)                1.0873  0.002819 -0.0041    1.0832   
    13. A(C   1,C   0,C   5)          120.00  0.000026   -0.00    120.00   
    14. A(C   1,C   0,H   6)          120.00 -0.000011    0.00    120.00   
    15. A(C   5,C   0,H   6)          120.00 -0.000015    0.00    120.00   
    16. A(C   0,C   1,H  11)          120.00  0.000014   -0.00    120.00   
    17. A(C   0,C   1,C   2)          120.00  0.000006   -0.00    120.00   
    18. A(C   2,C   1,H  11)          120.00 -0.000021    0.00    120.00   
    19. A(C   3,C   2,H  10)          120.00 -0.000003    0.00    120.00   
    20. A(C   1,C   2,C   3)          120.00 -0.000031    0.00    120.00   
    21. A(C   1,C   2,H  10)          120.00  0.000035   -0.01    119.99   
    22. A(C   4,C   3,H   9)          120.00 -0.000011    0.00    120.00   
    23. A(C   2,C   3,H   9)          120.00 -0.000015    0.00    120.00   
    24. A(C   2,C   3,C   4)          120.00  0.000026   -0.00    120.00   
    25. A(C   5,C   4,H   8)          120.00 -0.000022    0.00    120.00   
    26. A(C   3,C   4,H   8)          120.00  0.000014   -0.00    120.00   
    27. A(C   3,C   4,C   5)          120.00  0.000008   -0.00    120.00   
    28. A(C   0,C   5,C   4)          120.00 -0.000034    0.00    120.00   
    29. A(C   4,C   5,H   7)          120.00  0.000037   -0.01    119.99   
    30. A(C   0,C   5,H   7)          120.00 -0.000003    0.00    120.00   
    31. D(H  11,C   1,C   0,C   5)    180.00  0.000000   -0.00    180.00   
    32. D(H  11,C   1,C   0,H   6)      0.00 -0.000000    0.00      0.00   
    33. D(C   2,C   1,C   0,H   6)    180.00 -0.000000    0.00    180.00   
    34. D(C   2,C   1,C   0,C   5)      0.00  0.000000   -0.00     -0.00   
    35. D(H  10,C   2,C   1,C   0)    180.00 -0.000000    0.00    180.00   
    36. D(C   3,C   2,C   1,C   0)      0.00 -0.000000    0.00      0.00   
    37. D(C   3,C   2,C   1,H  11)    180.00  0.000000   -0.00    180.00   
    38. D(H  10,C   2,C   1,H  11)      0.00  0.000000   -0.00     -0.00   
    39. D(H   9,C   3,C   2,H  10)      0.00  0.000000   -0.00     -0.00   
    40. D(H   9,C   3,C   2,C   1)    180.00  0.000000   -0.00    180.00   
    41. D(C   4,C   3,C   2,H  10)    180.00 -0.000000    0.00    180.00   
    42. D(C   4,C   3,C   2,C   1)      0.00 -0.000000    0.00      0.00   
    43. D(H   8,C   4,C   3,C   2)    180.00  0.000000   -0.00    180.00   
    44. D(C   5,C   4,C   3,H   9)    180.00 -0.000000    0.00    180.00   
    45. D(C   5,C   4,C   3,C   2)      0.00 -0.000000    0.00      0.00   
    46. D(H   8,C   4,C   3,H   9)      0.00 -0.000000    0.00      0.00   
    47. D(H   7,C   5,C   4,H   8)      0.00 -0.000000    0.00      0.00   
    48. D(C   0,C   5,C   4,H   8)    180.00  0.000000   -0.00    180.00   
    49. D(C   0,C   5,C   4,C   3)      0.00  0.000000   -0.00     -0.00   
    50. D(H   7,C   5,C   0,H   6)      0.00  0.000000   -0.00     -0.00   
    51. D(H   7,C   5,C   0,C   1)    180.00 -0.000000    0.00    180.00   
    52. D(H   7,C   5,C   4,C   3)    180.00 -0.000000    0.00    180.00   
    53. D(C   4,C   5,C   0,H   6)    180.00  0.000000   -0.00    180.00   
    54. D(C   4,C   5,C   0,C   1)      0.00 -0.000000    0.00      0.00   
    ----------------------------------------------------------------------------

         *************************************************************
         *                GEOMETRY OPTIMIZATION CYCLE   2            *
         *************************************************************
---------------------------------
CARTESIAN COORDINATES (ANGSTROEM)
---------------------------------
  C     -4.126989    1.595790   -0.000000
  C     -5.233980    0.752199    0.000000
  C     -5.056871   -0.628304    0.000000
  C     -3.772801   -1.165291   -0.000000
  C     -2.665810   -0.321699   -0.000000
  C     -2.842914    1.058803    0.000000
  H     -4.264779    2.670199    0.000000
  H     -1.981323    1.715282    0.000000
  H     -1.666467   -0.739582   -0.000000
  H     -3.635010   -2.239700    0.000000
  H     -5.918466   -1.284779    0.000000
  H     -6.233322    1.170083   -0.000000

----------------------------
CARTESIAN COORDINATES (A.U.)
----------------------------
  NO LB      ZA    FRAG     MASS         X           Y           Z
   0 C     6.0000    0    12.011   -7.798878    3.015605   -0.000000
   1 C     6.0000    0    12.011   -9.890788    1.421450    0.000000
   2 C     6.0000    0    12.011   -9.556102   -1.187322    0.000000
   3 C     6.0000    0    12.011   -7.129561   -2.202081   -0.000000
   4 C     6.0000    0    12.011   -5.037650   -0.607923   -0.000000
   5 C     6.0000    0    12.011   -5.372328    2.000847    0.000000
   6 H     1.0000    0     1.008   -8.059264    5.045944    0.000000
   7 H     1.0000    0     1.008   -3.744157    3.241412    0.000000
   8 H     1.0000    0     1.008   -3.149166   -1.397608   -0.000000
   9 H     1.0000    0     1.008   -6.869173   -4.232420    0.000000
  10 H     1.0000    0     1.008  -11.184280   -2.427880    0.000000
  11 H     1.0000    0     1.008  -11.779271    2.211136   -0.000000

--------------------------------
INTERNAL COORDINATES (ANGSTROEM)
--------------------------------
 C      0   0   0     0.000000000000     0.00000000     0.00000000
 C      1   0   0     1.391788392717     0.00000000     0.00000000
 C      2   1   0     1.391816805296   119.99878540     0.00000000
 C      3   2   1     1.391830547359   120.00497650     0.00000000
 C      4   3   2     1.391789323722   119.99619890     0.00000000
 C      5   4   3     1.391815568963   119.99899711     0.00000000
 H      1   2   3     1.083208675547   120.00134310   180.00000560
 H      6   5   4     1.083191357769   119.99462155   180.00000526
 H      5   4   3     1.083195535233   119.99782841   179.99999744
 H      4   3   2     1.083208659405   120.00247983   179.99999296
 H      3   2   1     1.083192143691   119.99416191   180.00000512
 H      2   1   3     1.083195176877   119.99781580   180.00001133

---------------------------
INTERNAL COORDINATES (A.U.)
---------------------------
 C      0   0   0     0.000000000000     0.00000000     0.00000000
 C      1   0   0     2.630098898606     0.00000000     0.00000000
 C      2   1   0     2.630152590599   119.99878540     0.00000000
 C      3   2   1     2.630178559335   120.00497650     0.00000000
 C      4   3   2     2.630100657949   119.99619890     0.00000000
 C      5   4   3     2.630150254268   119.99899711     0.00000000
 H      1   2   3     2.046967742671   120.00134310   180.00000560
 H      6   5   4     2.046935016813   119.99462155   180.00000526
 H      5   4   3     2.046942911076   119.99782841   179.99999744
 H      4   3   2     2.046967712167   120.00247983   179.99999296
 H      3   2   1     2.046936501991   119.99416191   180.00000512
 H      2   1   3     2.046942233882   119.99781580   180.00001133

------------------------------------------------------------------------------
                   ___                                                        
                  /   \      - P O W E R E D   B Y -                         
                 /     \                                                     
                 |  |  |   _    _      __       _____    __    __             
                 |  |  |  | |  | |    /  \     |  _  \  |  |  /  |          
                  \  \/   | |  | |   /    \    | | | |  |  | /  /          
                 / \  \   | |__| |  /  /\  \   | |_| |  |  |/  /          
                |  |  |   |  __  | /  /__\  \  |    /   |      \           
                |  |  |   | |  | | |   __   |  |    \   |  |\   \          
                \     /   | |  | | |  |  |  |  | |\  \  |  | \   \       
                 \___/    |_|  |_| |__|  |__|  |_| \__\ |__|  \__/        
                                                                              
                      - O R C A' S   B I G   F R I E N D -                    
                                      &                                       
                       - I N T E G R A L  F E E D E R -                       
                                                                              
 v1 FN, 2020, v2 2021                                                         
------------------------------------------------------------------------------


Reading SHARK input file benezen.SHARKINP.tmp ... ok
----------------------
SHARK INTEGRAL PACKAGE
----------------------

Number of atoms                             ...     12
Number of basis functions                   ...    222
Number of shells                            ...     90
Maximum angular momentum                    ...      3
Integral batch strategy                     ... SHARK/LIBINT Hybrid
RI-J (if used) integral strategy            ... SPLIT-RIJ (Revised 2003 algorithm where possible)
Printlevel                                  ...      1
Contraction scheme used                     ... SEGMENTED contraction
Coulomb Range Separation                    ... NOT USED
Exchange Range Separation                   ... NOT USED
Finite Nucleus Model                        ... NOT USED
Auxiliary Coulomb fitting basis             ... AVAILABLE
   # of basis functions in Aux-J            ...    360
   # of shells in Aux-J                     ...    120
   Maximum angular momentum in Aux-J        ...      4
Auxiliary J/K fitting basis                 ... NOT available
Auxiliary Correlation fitting basis         ... NOT available
Auxiliary 'external' fitting basis          ... NOT available
Integral threshold                          ...     2.500000e-11
Primitive cut-off                           ...     2.500000e-12
Primitive pair pre-selection threshold      ...     2.500000e-12

Calculating pre-screening integrals         ... done (  0.3 sec) Dimension = 90
Organizing shell pair data                  ... done (  0.2 sec)
Shell pair information
Total number of shell pairs                 ...      4095
Shell pairs after pre-screening             ...      3957
Total number of primitive shell pairs       ...     12396
Primitive shell pairs kept                  ...      9537
          la=0 lb=0:   1089 shell pairs
          la=1 lb=0:   1110 shell pairs
          la=1 lb=1:    297 shell pairs
          la=2 lb=0:    570 shell pairs
          la=2 lb=1:    288 shell pairs
          la=2 lb=2:     78 shell pairs
          la=3 lb=0:    288 shell pairs
          la=3 lb=1:    144 shell pairs
[...]
     22      -0.000000   0.000000  -0.000000   0.000000  -0.000001   0.182058
     23      -0.153459   0.549895  -0.258491   0.505684   0.404724  -0.000001
     24      -0.000000   0.000000  -0.000001   0.000000  -0.000001   0.277139
     25      -0.000000  -0.000000  -0.000000   0.000000  -0.000002  -0.116064
     26       0.399243   0.408125  -0.308805  -0.476709  -0.404754   0.000000
     27       0.000000  -0.000000   0.000000   0.000000   0.000000   0.038627
     28       0.000000  -0.000000   0.000000  -0.000000   0.000001  -0.298011
     29       0.553317  -0.141977   0.567102  -0.028988   0.404337   0.000000
     30       0.000000  -0.000000   0.000001  -0.000001   0.000002  -0.239107
     31      -0.000000   0.000000  -0.000000   0.000000  -0.000001  -0.182063
     32       0.153461  -0.549883  -0.258471   0.505694  -0.404741  -0.000001
     33      -0.000000   0.000000  -0.000000   0.000000  -0.000001  -0.277145
     34      -0.000000  -0.000000  -0.000000   0.000000  -0.000002   0.116057
     35      -0.399247  -0.408131  -0.308829  -0.476699   0.404738   0.000001
                 18         19         20         21         22         23    
      0       0.036879  -0.084088  -0.014250   0.038696  -0.059649   0.020030
      1      -0.287145   0.030213  -0.115086   0.004991  -0.008436   0.000320
      2      -0.000000  -0.000000   0.000001   0.000000  -0.000000  -0.000000
      3      -0.267154   0.045981   0.105302  -0.015063   0.002860  -0.024419
      4       0.111723  -0.089340   0.014954  -0.036042   0.012762  -0.057128
      5      -0.000000   0.000000  -0.000001  -0.000000  -0.000000  -0.000000
      6       0.230234   0.084662  -0.067094  -0.023623  -0.027442  -0.027003
      7       0.175420   0.083078   0.053574   0.031073   0.038663   0.032492
      8      -0.000000  -0.000000   0.000001   0.000000   0.000000   0.000000
      9       0.036878  -0.084088  -0.014251   0.038695   0.059649  -0.020030
     10      -0.287143   0.030214  -0.115088   0.004990   0.008435  -0.000321
     11       0.000001   0.000000  -0.000001   0.000000   0.000000  -0.000000
     12      -0.267156   0.045979   0.105303  -0.015062  -0.002859   0.024419
     13       0.111724  -0.089338   0.014954  -0.036043  -0.012762   0.057129
     14      -0.000000  -0.000000   0.000001   0.000000  -0.000000  -0.000000
     15       0.230232   0.084662  -0.067094  -0.023623   0.027442   0.027003
     16       0.175418   0.083076   0.053576   0.031074  -0.038663  -0.032492
     17      -0.000000   0.000000  -0.000001  -0.000000   0.000000   0.000000
     18       0.036983  -0.512722  -0.168364   0.402939  -0.540335   0.179012
     19      -0.285454  -0.021899  -0.142699   0.051702  -0.070112   0.020597
     20       0.000001   0.000001  -0.000002   0.000000   0.000000   0.000000
     21       0.229065   0.042539  -0.342264  -0.246194   0.258290   0.232879
     22       0.174204   0.151816   0.412326   0.323190  -0.341762  -0.302547
     23       0.000002  -0.000001   0.000001  -0.000000  -0.000000  -0.000000
     24      -0.265533  -0.084541   0.225155  -0.156856  -0.042690   0.217238
     25       0.111261  -0.415308   0.285146  -0.375144  -0.108297   0.518196
     26       0.000001  -0.000001  -0.000002  -0.000000   0.000000   0.000000
     27       0.036982  -0.512722  -0.168368   0.402931   0.540343  -0.179008
     28      -0.285452  -0.021898  -0.142701   0.051701   0.070112  -0.020598
     29      -0.000003  -0.000001   0.000005  -0.000000  -0.000000   0.000000
     30       0.229069   0.042538  -0.342261  -0.246190  -0.258297  -0.232878
     31       0.174203   0.151819   0.412322   0.323184   0.341772   0.302546
     32       0.000001   0.000002  -0.000002   0.000000   0.000000  -0.000000
     33      -0.265529  -0.084541   0.225153  -0.156858   0.042690  -0.217237
     34       0.111263  -0.415313   0.285147  -0.375146   0.108294  -0.518194
     35       0.000000  -0.000000   0.000002   0.000000   0.000000   0.000000
                 24         25         26         27         28         29    
      0      -0.266451  -0.059793   0.143416  -0.027082   0.259118   0.194356
      1      -0.034152  -0.007667  -0.006055  -0.093042  -0.063850   0.139746
      2      -0.000000  -0.000000   0.000000   0.000000  -0.000000  -0.000000
      3       0.103579  -0.023245  -0.019571   0.100225  -0.113101  -0.148229
      4       0.247733  -0.055574   0.121195   0.070076   0.110020  -0.285822
      5      -0.000000   0.000000  -0.000000  -0.000000   0.000000   0.000000
      6       0.162850   0.036521  -0.048178  -0.104600   0.226058   0.044766
      7      -0.213649  -0.047946  -0.083677   0.098638  -0.213438   0.172766
      8       0.000000   0.000000   0.000000   0.000000   0.000000   0.000000
      9      -0.266452   0.059792   0.143414  -0.027086  -0.259123  -0.194353
     10      -0.034149   0.007667  -0.006053  -0.093043   0.063853  -0.139744
     11       0.000000  -0.000000  -0.000000  -0.000001  -0.000000  -0.000000
     12       0.103574   0.023245  -0.019571   0.100228   0.113098   0.148226
     13       0.247734   0.055575   0.121192   0.070076  -0.110025   0.285823
     14       0.000000  -0.000000   0.000000   0.000000  -0.000000   0.000000
     15       0.162849  -0.036520  -0.048180  -0.104603  -0.226052  -0.044764
     16      -0.213652   0.047945  -0.083674   0.098639   0.213436  -0.172770
     17       0.000000   0.000000  -0.000000  -0.000000   0.000000  -0.000000
     18       0.305187   0.400447  -0.512275   0.154569  -0.305677  -0.285914
     19       0.039139   0.051341  -0.095324  -0.088806  -0.146448   0.090194
     20       0.000000   0.000000  -0.000000  -0.000000   0.000000  -0.000000
     21      -0.186488   0.244733  -0.168991   0.293503   0.196066  -0.209648
     22       0.244817  -0.321190   0.043648  -0.432070  -0.349272   0.019383
     23      -0.000000   0.000000   0.000000  -0.000000  -0.000000  -0.000000
     24      -0.118407  -0.155766  -0.220327  -0.073222   0.178493  -0.133028
     25      -0.283141  -0.372548  -0.323235  -0.380810   0.006540  -0.394052
     26      -0.000000  -0.000000   0.000000  -0.000000  -0.000000   0.000000
     27       0.305186  -0.400445  -0.512272   0.154579   0.305683   0.285906
     28       0.039143  -0.051342  -0.095323  -0.088804   0.146455  -0.090192
     29      -0.000000   0.000000   0.000000   0.000001   0.000000  -0.000000
     30      -0.186475  -0.244733  -0.168995   0.293501  -0.196067   0.209640
     31       0.244808   0.321192   0.043653  -0.432068   0.349284  -0.019377
     32      -0.000000  -0.000000  -0.000001   0.000001  -0.000000  -0.000000
     33      -0.118406   0.155765  -0.220330  -0.073223  -0.178487   0.133025
     34      -0.283149   0.372545  -0.323239  -0.380805  -0.006526   0.394053
     35       0.000000  -0.000000  -0.000000   0.000000  -0.000000   0.000000
                 30         31         32         33         34         35    
      0       0.004336  -0.005933  -0.002571  -0.003799  -0.006151  -0.004715
      1      -0.033729   0.037884   0.030587   0.043147   0.026518   0.036734
      2      -0.000000   0.000000   0.000000   0.000000   0.000000   0.000000
      3      -0.031433   0.041887  -0.017294  -0.042247   0.020783  -0.034133
      4       0.013153  -0.018192   0.005503   0.016030  -0.011784   0.014276
      5      -0.000000   0.000000  -0.000000  -0.000000  -0.000000  -0.000000
      6       0.026852  -0.006780   0.038321   0.000385   0.040786  -0.029649
      7       0.020456  -0.003036   0.029520  -0.003761   0.030923  -0.022588
      8      -0.000000   0.000000   0.000000   0.000000   0.000000   0.000000
      9       0.004336   0.005933   0.002571  -0.003800  -0.006151   0.004716
     10      -0.033727  -0.037879  -0.030586   0.043152   0.026519  -0.036735
     11       0.000000   0.000000   0.000000  -0.000000  -0.000000   0.000000
     12      -0.031436  -0.041891   0.017295  -0.042243   0.020782   0.034130
     13       0.013154   0.018194  -0.005504   0.016028  -0.011784  -0.014275
     14       0.000000  -0.000000  -0.000000   0.000000   0.000000  -0.000000
     15       0.026851   0.006779  -0.038317   0.000384   0.040790   0.029649
     16       0.020456   0.003035  -0.029517  -0.003761   0.030927   0.022588
     17      -0.000000  -0.000000   0.000000  -0.000000  -0.000000  -0.000000
     18      -0.051843   0.058634   0.043937   0.059496   0.042652   0.051611
     19       0.404208  -0.445864  -0.356968  -0.483434  -0.301753  -0.402468
     20       0.000000  -0.000000  -0.000000  -0.000000  -0.000000  -0.000000
     21      -0.321898  -0.068896   0.451193   0.014880  -0.458416  -0.324986
     22      -0.245266  -0.049590   0.344220   0.017180  -0.349061  -0.247615
     23       0.000000  -0.000000  -0.000000  -0.000000   0.000000   0.000000
     24       0.376701   0.493930  -0.196420   0.469676  -0.244624  -0.373931
     25      -0.157526  -0.207455   0.079774  -0.194040   0.106742   0.156364
     26      -0.000000  -0.000000  -0.000000  -0.000000   0.000000   0.000000
     27      -0.051841  -0.058627  -0.043934   0.059504   0.042654  -0.051614
     28       0.404189   0.445805   0.356950  -0.483493  -0.301767   0.402487
     29      -0.000000  -0.000000  -0.000000   0.000000   0.000000  -0.000000
     30      -0.321900   0.068908  -0.451241   0.014868  -0.458366   0.324988
     31      -0.245266   0.049599  -0.344255   0.017172  -0.349021   0.247615
     32       0.000000  -0.000000   0.000000   0.000000  -0.000000  -0.000000
     33       0.376671  -0.493881   0.196409   0.469725  -0.244634   0.373964
     34      -0.157514   0.207435  -0.079769  -0.194060   0.106747  -0.156378
     35       0.000000  -0.000000   0.000000   0.000000  -0.000000   0.000000


-----------
IR SPECTRUM
-----------

 Mode   freq       eps      Int      T**2         TX        TY        TZ
       cm**-1   L/(mol*cm) km/mol    a.u.
----------------------------------------------------------------------------
  6:    412.00   0.000000    0.00  0.000000  (-0.000001  0.000001  0.000112)
  7:    412.22   0.000000    0.00  0.000000  ( 0.000001  0.000001  0.000041)
  8:    623.62   0.000000    0.00  0.000000  (-0.000000  0.000000 -0.000000)
  9:    623.66   0.000000    0.00  0.000000  ( 0.000000 -0.000000  0.000000)
 10:    687.59   0.022820  115.32  0.010357  ( 0.000001 -0.000001 -0.101769)
 11:    715.07   0.000000    0.00  0.000000  ( 0.000001 -0.000008  0.000002)
 12:    862.25   0.000000    0.00  0.000000  (-0.000000  0.000002 -0.000000)
 13:    862.29   0.000000    0.00  0.000000  ( 0.000003 -0.000001  0.000001)
 14:    962.99   0.000000    0.00  0.000000  (-0.000000  0.000001  0.000029)
 15:    963.11   0.000000    0.00  0.000000  (-0.000000  0.000000  0.000051)
 16:    991.31   0.000000    0.00  0.000000  (-0.000000  0.000003 -0.000000)
 17:   1014.03   0.000000    0.00  0.000000  (-0.000000 -0.000000  0.000000)
 18:   1029.80   0.000000    0.00  0.000000  (-0.000009  0.000007  0.000000)
 19:   1060.52   0.000994    5.02  0.000293  (-0.015215 -0.007812 -0.000000)
 20:   1060.62   0.000996    5.03  0.000293  (-0.007812  0.015231  0.000000)
 21:   1175.96   0.000000    0.00  0.000000  ( 0.000010 -0.000062 -0.000000)
 22:   1199.08   0.000000    0.00  0.000000  ( 0.000000  0.000000 -0.000000)
 23:   1199.14   0.000000    0.00  0.000000  ( 0.000000  0.000000 -0.000000)
 24:   1334.13   0.000000    0.00  0.000000  ( 0.000024  0.000062  0.000000)
 25:   1388.26   0.000000    0.00  0.000000  ( 0.000000 -0.000000  0.000000)
 26:   1516.87   0.001496    7.56  0.000308  (-0.016200 -0.006732 -0.000000)
 27:   1516.94   0.001502    7.59  0.000309  ( 0.006770 -0.016222  0.000000)
 28:   1634.89   0.000000    0.00  0.000000  ( 0.000000  0.000000 -0.000000)
 29:   1634.96   0.000000    0.00  0.000000  (-0.000000  0.000000  0.000000)
 30:   3158.22   0.000000    0.00  0.000000  (-0.000089 -0.000045  0.000000)
 31:   3167.42   0.000000    0.00  0.000000  (-0.000001  0.000001  0.000000)
 32:   3167.55   0.000000    0.00  0.000000  ( 0.000001  0.000001  0.000000)
 33:   3182.74   0.007065   35.70  0.000693  (-0.016694  0.020348 -0.000000)
 34:   3182.86   0.007075   35.75  0.000694  ( 0.020361  0.016705 -0.000000)
 35:   3192.63   0.000000    0.00  0.000000  (-0.000001 -0.000000  0.000000)

* The epsilon (eps) is given for a Dirac delta lineshape.
** The dipole moment derivative (T) already includes vibrational overlap.

The first frequency considered to be a vibration is 6
The total number of vibrations considered is 30


--------------------------
THERMOCHEMISTRY AT 298.15K
--------------------------

Temperature         ... 298.15 K
Pressure            ... 1.00 atm
Total Mass          ... 78.11 AMU

Throughout the following assumptions are being made:
  (1) The electronic state is orbitally nondegenerate
  (2) There are no thermally accessible electronically excited states
  (3) Hindered rotations indicated by low frequency modes are not
      treated as such but are treated as vibrations and this may
      cause some error
  (4) All equations used are the standard statistical mechanics
      equations for an ideal gas
  (5) All vibrations are strictly harmonic

freq.     412.00  E(vib)   ...       0.19 
freq.     412.22  E(vib)   ...       0.19 
freq.     623.62  E(vib)   ...       0.09 
freq.     623.66  E(vib)   ...       0.09 
freq.     687.59  E(vib)   ...       0.07 
freq.     715.07  E(vib)   ...       0.07 
freq.     862.25  E(vib)   ...       0.04 
freq.     862.29  E(vib)   ...       0.04 
freq.     962.99  E(vib)   ...       0.03 
freq.     963.11  E(vib)   ...       0.03 
freq.     991.31  E(vib)   ...       0.02 
freq.    1014.03  E(vib)   ...       0.02 
freq.    1029.80  E(vib)   ...       0.02 
freq.    1060.52  E(vib)   ...       0.02 
freq.    1060.62  E(vib)   ...       0.02 
freq.    1175.96  E(vib)   ...       0.01 
freq.    1199.08  E(vib)   ...       0.01 
freq.    1199.14  E(vib)   ...       0.01 
freq.    1334.13  E(vib)   ...       0.01 
freq.    1388.26  E(vib)   ...       0.00 
freq.    1516.87  E(vib)   ...       0.00 
freq.    1516.94  E(vib)   ...       0.00 
freq.    1634.89  E(vib)   ...       0.00 
freq.    1634.96  E(vib)   ...       0.00 
freq.    3158.22  E(vib)   ...       0.00 
freq.    3167.42  E(vib)   ...       0.00 
freq.    3167.55  E(vib)   ...       0.00 
freq.    3182.74  E(vib)   ...       0.00 
freq.    3182.86  E(vib)   ...       0.00 
freq.    3192.63  E(vib)   ...       0.00 

------------
INNER ENERGY
------------

The inner energy is: U= E(el) + E(ZPE) + E(vib) + E(rot) + E(trans)
    E(el)   - is the total energy from the electronic structure calculation
              = E(kin-el) + E(nuc-el) + E(el-el) + E(nuc-nuc)
    E(ZPE)  - the the zero temperature vibrational energy from the frequency calculation
    E(vib)  - the the finite temperature correction to E(ZPE) due to population
              of excited vibrational states
    E(rot)  - is the rotational thermal energy
    E(trans)- is the translational thermal energy

Summary of contributions to the inner energy U:
Electronic energy                ...   -232.18334113 Eh
Zero point energy                ...      0.10008616 Eh      62.80 kcal/mol
Thermal vibrational correction   ...      0.00157278 Eh       0.99 kcal/mol
Thermal rotational correction    ...      0.00141627 Eh       0.89 kcal/mol
Thermal translational correction ...      0.00141627 Eh       0.89 kcal/mol
-----------------------------------------------------------------------
Total thermal energy                   -232.07884965 Eh


Summary of corrections to the electronic energy:
(perhaps to be used in another calculation)
Total thermal correction                  0.00440532 Eh       2.76 kcal/mol
Non-thermal (ZPE) correction              0.10008616 Eh      62.80 kcal/mol
-----------------------------------------------------------------------
Total correction                          0.10449148 Eh      65.57 kcal/mol


--------
ENTHALPY
--------

The enthalpy is H = U + kB*T
                kB is Boltzmann's constant
Total free energy                 ...   -232.07884965 Eh 
Thermal Enthalpy correction       ...      0.00094421 Eh       0.59 kcal/mol
-----------------------------------------------------------------------
Total Enthalpy                    ...   -232.07790545 Eh


Note: Rotational entropy computed according to Herzberg 
Infrared and Raman Spectra, Chapter V,1, Van Nostrand Reinhold, 1945 
Point Group:  C2h, Symmetry Number:   2  
Rotational constants in cm-1:     0.190972     0.190941     0.095478 

Vibrational entropy computed according to the QRRHO of S. Grimme
Chem.Eur.J. 2012 18 9955


-------
ENTROPY
-------

The entropy contributions are T*S = T*(S(el)+S(vib)+S(rot)+S(trans))
     S(el)   - electronic entropy
     S(vib)  - vibrational entropy
     S(rot)  - rotational entropy
     S(trans)- translational entropy
The entropies will be listed as multiplied by the temperature to get
units of energy

Electronic entropy                ...      0.00000000 Eh      0.00 kcal/mol
Vibrational entropy               ...      0.00210866 Eh      1.32 kcal/mol
Rotational entropy                ...      0.01152852 Eh      7.23 kcal/mol
Translational entropy             ...      0.01852142 Eh     11.62 kcal/mol
-----------------------------------------------------------------------
Final entropy term                ...      0.03215859 Eh     20.18 kcal/mol

In case the symmetry of your molecule has not been determined correctly
or in case you have a reason to use a different symmetry number we print 
out the resulting rotational entropy values for sn=1,12 :
 --------------------------------------------------------
|  sn= 1 | S(rot)=       0.01218297 Eh      7.64 kcal/mol|
|  sn= 2 | S(rot)=       0.01152852 Eh      7.23 kcal/mol|
|  sn= 3 | S(rot)=       0.01114568 Eh      6.99 kcal/mol|
|  sn= 4 | S(rot)=       0.01087406 Eh      6.82 kcal/mol|
|  sn= 5 | S(rot)=       0.01066337 Eh      6.69 kcal/mol|
|  sn= 6 | S(rot)=       0.01049123 Eh      6.58 kcal/mol|
|  sn= 7 | S(rot)=       0.01034568 Eh      6.49 kcal/mol|
|  sn= 8 | S(rot)=       0.01021960 Eh      6.41 kcal/mol|
|  sn= 9 | S(rot)=       0.01010839 Eh      6.34 kcal/mol|
|  sn=10 | S(rot)=       0.01000891 Eh      6.28 kcal/mol|
|  sn=11 | S(rot)=       0.00991892 Eh      6.22 kcal/mol|
|  sn=12 | S(rot)=       0.00983677 Eh      6.17 kcal/mol|
 --------------------------------------------------------


-------------------
GIBBS FREE ENERGY
-------------------

The Gibbs free energy is G = H - T*S

Total enthalpy                    ...   -232.07790545 Eh 
Total entropy correction          ...     -0.03215859 Eh    -20.18 kcal/mol
-----------------------------------------------------------------------
Final Gibbs free energy         ...   -232.11006404 Eh

For completeness - the Gibbs free energy minus the electronic energy
G-E(el)                           ...      0.07327710 Eh     45.98 kcal/mol


Timings for individual modules:

Sum of individual times         ...     4244.753 sec (=  70.746 min)
GTO integral calculation        ...       67.771 sec (=   1.130 min)   1.6 %
SCF iterations                  ...     1212.101 sec (=  20.202 min)  28.6 %
SCF Gradient evaluation         ...      253.287 sec (=   4.221 min)   6.0 %
Geometry relaxation             ...       17.727 sec (=   0.295 min)   0.4 %
Analytical frequency calculation...     2693.867 sec (=  44.898 min)  63.5 %
                             ****ORCA TERMINATED NORMALLY****
TOTAL RUN TIME: 0 days 1 hours 10 minutes 57 seconds 469 msec
