
                                 *****************
                                 * O   R   C   A *
                                 *****************

                                            #,                                       
                                            ###                                      
                                            ####                                     
                                            #####                                    
                                            ######                                   
                                           ########,                                 
                                     ,,################,,,,,                         
                               ,,#################################,,                 
                          ,,##########################################,,             
                       ,#########################################, ''#####,          
                    ,#############################################,,   '####,        
                  ,##################################################,,,,####,       
                ,###########''''           ''''###############################       
              ,#####''   ,,,,##########,,,,          '''####'''          '####       
            ,##' ,,,,###########################,,,                        '##       
           ' ,,###''''                  '''############,,,                           
         ,,##''                                '''############,,,,        ,,,,,,###''
      ,#''                                            '''#######################'''  
     '                                                          ''''####''''         
             ,#######,   #######,   ,#######,      ##                                
            ,#'     '#,  ##    ##  ,#'     '#,    #''#        ######   ,####,        
            ##       ##  ##   ,#'  ##            #'  '#       #        #'  '#        
            ##       ##  #######   ##           ,######,      #####,   #    #        
            '#,     ,#'  ##    ##  '#,     ,#' ,#      #,         ##   #,  ,#        
             '#######'   ##     ##  '#######'  #'      '#     #####' # '####'        



                  #######################################################
                  #                        -***-                        #
                  #          Department of theory and spectroscopy      #
                  #    Directorship and core code : Frank Neese         #
                  #        Max Planck Institute fuer Kohlenforschung    #
                  #                Kaiser Wilhelm Platz 1               #
                  #                 D-45470 Muelheim/Ruhr               #
                  #                      Germany                        #
                  #                                                     #
                  #                  All rights reserved                #
                  #                        -***-                        #
                  #######################################################



                         Program Version 5.0.4 -  RELEASE  -

 With contributions from (in alphabetic order):
   Daniel Aravena         : Magnetic Suceptibility
   Michael Atanasov       : Ab Initio Ligand Field Theory (pilot matlab implementation)
   Alexander A. Auer      : GIAO ZORA, VPT2 properties, NMR spectrum
   Ute Becker             : Parallelization
   Giovanni Bistoni       : ED, misc. LED, open-shell LED, HFLD
   Martin Brehm           : Molecular dynamics
   Dmytro Bykov           : SCF Hessian
   Vijay G. Chilkuri      : MRCI spin determinant printing, contributions to CSF-ICE
   Dipayan Datta          : RHF DLPNO-CCSD density
   Achintya Kumar Dutta   : EOM-CC, STEOM-CC
   Dmitry Ganyushin       : Spin-Orbit,Spin-Spin,Magnetic field MRCI
   Miquel Garcia          : C-PCM and meta-GGA Hessian, CC/C-PCM, Gaussian charge scheme
   Yang Guo               : DLPNO-NEVPT2, F12-NEVPT2, CIM, IAO-localization
   Andreas Hansen         : Spin unrestricted coupled pair/coupled cluster methods
   Benjamin Helmich-Paris : MC-RPA, TRAH-SCF, COSX integrals
   Lee Huntington         : MR-EOM, pCC
   Robert Izsak           : Overlap fitted RIJCOSX, COSX-SCS-MP3, EOM
   Marcus Kettner         : VPT2
   Christian Kollmar      : KDIIS, OOCD, Brueckner-CCSD(T), CCSD density, CASPT2, CASPT2-K
   Simone Kossmann        : Meta GGA functionals, TD-DFT gradient, OOMP2, MP2 Hessian
   Martin Krupicka        : Initial AUTO-CI
   Lucas Lang             : DCDCAS
   Marvin Lechner         : AUTO-CI (C++ implementation), FIC-MRCC
   Dagmar Lenk            : GEPOL surface, SMD
   Dimitrios Liakos       : Extrapolation schemes; Compound Job, initial MDCI parallelization
   Dimitrios Manganas     : Further ROCIS development; embedding schemes
   Dimitrios Pantazis     : SARC Basis sets
   Anastasios Papadopoulos: AUTO-CI, single reference methods and gradients
   Taras Petrenko         : DFT Hessian,TD-DFT gradient, ASA, ECA, R-Raman, ABS, FL, XAS/XES, NRVS
   Peter Pinski           : DLPNO-MP2, DLPNO-MP2 Gradient
   Christoph Reimann      : Effective Core Potentials
   Marius Retegan         : Local ZFS, SOC
   Christoph Riplinger    : Optimizer, TS searches, QM/MM, DLPNO-CCSD(T), (RO)-DLPNO pert. Triples
   Tobias Risthaus        : Range-separated hybrids, TD-DFT gradient, RPA, STAB
   Michael Roemelt        : Original ROCIS implementation
   Masaaki Saitow         : Open-shell DLPNO-CCSD energy and density
   Barbara Sandhoefer     : DKH picture change effects
   Avijit Sen             : IP-ROCIS
   Kantharuban Sivalingam : CASSCF convergence, NEVPT2, FIC-MRCI
   Bernardo de Souza      : ESD, SOC TD-DFT
   Georgi Stoychev        : AutoAux, RI-MP2 NMR, DLPNO-MP2 response
   Willem Van den Heuvel  : Paramagnetic NMR
   Boris Wezisla          : Elementary symmetry handling
   Frank Wennmohs         : Technical directorship


 We gratefully acknowledge several colleagues who have allowed us to
 interface, adapt or use parts of their codes:
   Stefan Grimme, W. Hujo, H. Kruse, P. Pracht,  : VdW corrections, initial TS optimization,
                  C. Bannwarth, S. Ehlert          DFT functionals, gCP, sTDA/sTD-DF
   Ed Valeev, F. Pavosevic, A. Kumar             : LibInt (2-el integral package), F12 methods
   Garnet Chan, S. Sharma, J. Yang, R. Olivares  : DMRG
   Ulf Ekstrom                                   : XCFun DFT Library
   Mihaly Kallay                                 : mrcc  (arbitrary order and MRCC methods)
   Jiri Pittner, Ondrej Demel                    : Mk-CCSD
   Frank Weinhold                                : gennbo (NPA and NBO analysis)
   Christopher J. Cramer and Donald G. Truhlar   : smd solvation model
   Lars Goerigk                                  : TD-DFT with DH, B97 family of functionals
   V. Asgeirsson, H. Jonsson                     : NEB implementation
   FAccTs GmbH                                   : IRC, NEB, NEB-TS, DLPNO-Multilevel, CI-OPT
                                                   MM, QMMM, 2- and 3-layer-ONIOM, Crystal-QMMM,
                                                   LR-CPCM, SF, NACMEs, symmetry and pop. for TD-DFT,
                                                   nearIR, NL-DFT gradient (VV10), updates on ESD,
                                                   ML-optimized integration grids
   S Lehtola, MJT Oliveira, MAL Marques          : LibXC Library
   Liviu Ungur et al                             : ANISO software


 Your calculation uses the libint2 library for the computation of 2-el integrals
 For citations please refer to: http://libint.valeyev.net

 Your ORCA version has been built with support for libXC version: 5.1.0
 For citations please refer to: https://tddft.org/programs/libxc/

 This ORCA versions uses:
   CBLAS   interface :  Fast vector & matrix operations
   LAPACKE interface :  Fast linear algebra routines
   Shared memory     :  Shared parallel matrices


Your calculation utilizes the atom-pairwise dispersion correction
based on tight binding partial charges (D4)
Cite in your paper:
E.Caldeweyher, C.Bannwarth, S.Grimme, J.Chem.Phys., (2017), 147, 034112.
E.Caldeweyher, S.Ehlert, A.Hansen, H.Neugebauer, S.Grimme, J.Chem.Phys., (2018), in progress.
   

XCFun DFT library Copyright 2009-2010 Ulf Ekstrom and contributors.
See http://admol.org/xcfun for more information.
This is free software; see the source code for copying conditions.
There is ABSOLUTELY NO WARRANTY; not even for MERCHANTABILITY or FITNESS FOR A PARTICULAR PURPOSE.
For details see the documentation.
Scientific users of this library should cite U. Ekstrom, L. Visscher, R. Bast, A. J. Thorvaldsen and K. Ruud;
J.Chem.Theor.Comp. 2010, DOI: 10.1021/ct100117s
XCFun Version 0.99 

================================================================================

----- Orbital basis set information -----
Your calculation utilizes the basis: def2-SVP
   F. Weigend and R. Ahlrichs, Phys. Chem. Chem. Phys. 7, 3297 (2005).

----- AuxJ basis set information -----
Your calculation utilizes the auxiliary basis: def2/J
   F. Weigend, Phys. Chem. Chem. Phys. 8, 1057 (2006).

================================================================================
                                        WARNINGS
                       Please study these warnings very carefully!
================================================================================


INFO   : the flag for use of the SHARK integral package has been found!

================================================================================
                                       INPUT FILE
================================================================================
NAME = new_freq.inp
|  1> !cam-B3LYP DEF2-SVP FREQ D4
|  2> 
|  3> * xyz 1 1
|  4>   C   -2.59096763099183      1.35707632868311     -1.29637108519819
|  5>   C   -3.50747628417126      0.37240827878264     -1.80457451714020
|  6>   C   -3.45236690447404     -0.93835909424729     -1.38160475434772
|  7>   C   -2.48817531049545     -1.33980578122810     -0.43443843007945
|  8>   C   -1.57552392964272     -0.40393778752883      0.08434612922563
|  9>   C   -1.61563141305945      0.91521024662854     -0.32827199413195
| 10>   H   -4.25195182069650      0.69125864725650     -2.53800219692391
| 11>   H   -4.15949510762728     -1.66738594169357     -1.78278233677945
| 12>   H   -2.44437445211484     -2.37789999359236     -0.09889195510160
| 13>   H   -0.82178865975236     -0.69300555649948      0.81747370321744
| 14>   H   8.82976292378174     -2.55970494046663     16.90895843887601
| 15>   N   -2.66677522711290      2.61583751867298     -1.72250405352587
| 16>   H   -3.36682596193991      2.89167503631130     -2.40514066495180
| 17>   H   -1.99583134244529      3.28982669128129     -1.33755351490510
| 18>   N   -0.63051392660352      1.84453632440211      0.25570501831424
| 19>   O   -0.66519690147805      3.01805597300700     -0.11265600787859
| 20>   O   0.15310194882382      1.39786405023072      1.06215822133048
| 21> *
| 22> 
| 23>                          ****END OF INPUT****
================================================================================

                       ****************************
                       * Single Point Calculation *
                       ****************************

---------------------------------
CARTESIAN COORDINATES (ANGSTROEM)
---------------------------------
  C     -2.590968    1.357076   -1.296371
  C     -3.507476    0.372408   -1.804575
  C     -3.452367   -0.938359   -1.381605
  C     -2.488175   -1.339806   -0.434438
  C     -1.575524   -0.403938    0.084346
  C     -1.615631    0.915210   -0.328272
  H     -4.251952    0.691259   -2.538002
  H     -4.159495   -1.667386   -1.782782
  H     -2.444374   -2.377900   -0.098892
  H     -0.821789   -0.693006    0.817474
  H      8.829763   -2.559705   16.908958
  N     -2.666775    2.615838   -1.722504
  H     -3.366826    2.891675   -2.405141
  H     -1.995831    3.289827   -1.337554
  N     -0.630514    1.844536    0.255705
  O     -0.665197    3.018056   -0.112656
  O      0.153102    1.397864    1.062158

----------------------------
CARTESIAN COORDINATES (A.U.)
----------------------------
  NO LB      ZA    FRAG     MASS         X           Y           Z
   0 C     6.0000    0    12.011   -4.896219    2.564503   -2.449786
   1 C     6.0000    0    12.011   -6.628170    0.703750   -3.410152
   2 C     6.0000    0    12.011   -6.524028   -1.773242   -2.610855
   3 C     6.0000    0    12.011   -4.701970   -2.531866   -0.820970
   4 C     6.0000    0    12.011   -2.977309   -0.763332    0.159391
   5 C     6.0000    0    12.011   -3.053101    1.729497   -0.620344
   6 H     1.0000    0     1.008   -8.035024    1.306290   -4.796129
   7 H     1.0000    0     1.008   -7.860307   -3.150903   -3.368970
   8 H     1.0000    0     1.008   -4.619198   -4.493580   -0.186879
   9 H     1.0000    0     1.008   -1.552956   -1.309591    1.544801
  10 H     1.0000    0     1.008   16.685834   -4.837141   31.953301
  11 N     7.0000    0    14.007   -5.039475    4.943217   -3.255061
  12 H     1.0000    0     1.008   -6.362379    5.464474   -4.545057
  13 H     1.0000    0     1.008   -3.771575    6.216871   -2.527610
  14 N     7.0000    0    14.007   -1.191499    3.485668    0.483212
  15 O     8.0000    0    15.999   -1.257040    5.703299   -0.212889
  16 O     8.0000    0    15.999    0.289321    2.641580    2.007188

--------------------------------
INTERNAL COORDINATES (ANGSTROEM)
--------------------------------
 C      0   0   0     0.000000000000     0.00000000     0.00000000
 C      1   0   0     1.437995134931     0.00000000     0.00000000
 C      2   1   0     1.378423581548   121.14567958     0.00000000
 C      3   2   1     1.409946423881   120.27988325     0.02835750
 C      4   3   2     1.406385033899   120.13960127   359.96900317
 C      5   4   3     1.382755893848   120.39340688     0.02431256
 H      2   1   3     1.092623239472   118.14297120   180.00800245
 H      3   2   1     1.091995372077   119.75035849   180.01274239
 H      4   3   2     1.091856009650   120.30391831   179.98062276
 H      5   4   3     1.090482953503   121.34149359   180.00874826
 H     10   5   4    18.856640622276   162.50273043   250.67261410
 N      1   2   3     1.331095725990   119.87450035   179.99217765
 H     12   1   2     1.015947887801   120.73732271     0.00000000
 H     12   1   2     1.025969794073   117.63702447   180.02402240
 N      6   5   4     1.474833065813   117.62007547   179.97306214
 O     15   6   5     1.230463782492   117.61940541   179.91623182
 O     15   6   5     1.209932530925   117.63883696   359.91674478

---------------------------
INTERNAL COORDINATES (A.U.)
---------------------------
 C      0   0   0     0.000000000000     0.00000000     0.00000000
 C      1   0   0     2.717416986931     0.00000000     0.00000000
 C      2   1   0     2.604843065664   121.14567958     0.00000000
 C      3   2   1     2.664412604637   120.27988325     0.02835750
 C      4   3   2     2.657682552916   120.13960127   359.96900317
 C      5   4   3     2.613029949438   120.39340688     0.02431256
 H      2   1   3     2.064758690159   118.14297120   180.00800245
 H      3   2   1     2.063572192735   119.75035849   180.01274239
 H      4   3   2     2.063308835915   120.30391831   179.98062276
 H      5   4   3     2.060714135831   121.34149359   180.00874826
 H     10   5   4    35.633886581875   162.50273043   250.67261410
 N      1   2   3     2.515406380155   119.87450035   179.99217765
 H     12   1   2     1.919863274280   120.73732271     0.00000000
 H     12   1   2     1.938801932474   117.63702447   180.02402240
 N      6   5   4     2.787030587639   117.62007547   179.97306214
 O     15   6   5     2.325239566620   117.61940541   179.91623182
 O     15   6   5     2.286441123970   117.63883696   359.91674478

---------------------
BASIS SET INFORMATION
---------------------
There are 4 groups of distinct atoms

 Group   1 Type C   : 7s4p1d contracted to 3s2p1d pattern {511/31/1}
 Group   2 Type H   : 4s1p contracted to 2s1p pattern {31/1}
 Group   3 Type N   : 7s4p1d contracted to 3s2p1d pattern {511/31/1}
 Group   4 Type O   : 7s4p1d contracted to 3s2p1d pattern {511/31/1}

Atom   0C    basis set group =>   1
Atom   1C    basis set group =>   1
Atom   2C    basis set group =>   1
Atom   3C    basis set group =>   1
Atom   4C    basis set group =>   1
Atom   5C    basis set group =>   1
Atom   6H    basis set group =>   2
Atom   7H    basis set group =>   2
Atom   8H    basis set group =>   2
Atom   9H    basis set group =>   2
Atom  10H    basis set group =>   2
Atom  11N    basis set group =>   3
Atom  12H    basis set group =>   2
Atom  13H    basis set group =>   2
Atom  14N    basis set group =>   3
Atom  15O    basis set group =>   4
Atom  16O    basis set group =>   4
---------------------------------
AUXILIARY/J BASIS SET INFORMATION
---------------------------------
There are 4 groups of distinct atoms

 Group   1 Type C   : 12s5p4d2f1g contracted to 6s4p3d1f1g pattern {711111/2111/211/2/1}
 Group   2 Type H   : 5s2p1d contracted to 3s1p1d pattern {311/2/1}
 Group   3 Type N   : 12s5p4d2f1g contracted to 6s4p3d1f1g pattern {711111/2111/211/2/1}
 Group   4 Type O   : 12s5p4d2f1g contracted to 6s4p3d1f1g pattern {711111/2111/211/2/1}

Atom   0C    basis set group =>   1
Atom   1C    basis set group =>   1
Atom   2C    basis set group =>   1
Atom   3C    basis set group =>   1
Atom   4C    basis set group =>   1
Atom   5C    basis set group =>   1
Atom   6H    basis set group =>   2
Atom   7H    basis set group =>   2
Atom   8H    basis set group =>   2
Atom   9H    basis set group =>   2
Atom  10H    basis set group =>   2
Atom  11N    basis set group =>   3
Atom  12H    basis set group =>   2
Atom  13H    basis set group =>   2
Atom  14N    basis set group =>   3
Atom  15O    basis set group =>   4
Atom  16O    basis set group =>   4
------------------------------------------------------------------------------
                           ORCA GTO INTEGRAL CALCULATION
                           -- RI-GTO INTEGRALS CHOSEN --
------------------------------------------------------------------------------
------------------------------------------------------------------------------
                   ___                                                        
                  /   \      - P O W E R E D   B Y -                         
                 /     \                                                     
                 |  |  |   _    _      __       _____    __    __             
                 |  |  |  | |  | |    /  \     |  _  \  |  |  /  |          
                  \  \/   | |  | |   /    \    | | | |  |  | /  /          
                 / \  \   | |__| |  /  /\  \   | |_| |  |  |/  /          
                |  |  |   |  __  | /  /__\  \  |    /   |      \           
                |  |  |   | |  | | |   __   |  |    \   |  |\   \          
                \     /   | |  | | |  |  |  |  | |\  \  |  | \   \       
                 \___/    |_|  |_| |__|  |__|  |_| \__\ |__|  \__/        
                                                                              
                      - O R C A' S   B I G   F R I E N D -                    
                                      &                                       
                       - I N T E G R A L  F E E D E R -                       
                                                                              
 v1 FN, 2020, v2 2021                                                         
------------------------------------------------------------------------------


Reading SHARK input file new_freq.SHARKINP.tmp ... ok
----------------------
SHARK INTEGRAL PACKAGE
----------------------

Number of atoms                             ...     17
Number of basis functions                   ...    175
Number of shells                            ...     81
Maximum angular momentum                    ...      2
Integral batch strategy                     ... SHARK/LIBINT Hybrid
RI-J (if used) integral strategy            ... SPLIT-RIJ (Revised 2003 algorithm where possible)
Printlevel                                  ...      1
Contraction scheme used                     ... SEGMENTED contraction
Coulomb Range Separation                    ... NOT USED
Exchange Range Separation                   ... Long Range
   Mu parameter                             ...  0.330000
   Scaling (regular/separated)              ...  0.190000  0.460000
Finite Nucleus Model                        ... NOT USED
Auxiliary Coulomb fitting basis             ... AVAILABLE
   # of basis functions in Aux-J            ...    567
   # of shells in Aux-J                     ...    185
   Maximum angular momentum in Aux-J        ...      4
Auxiliary J/K fitting basis                 ... NOT available
Auxiliary Correlation fitting basis         ... NOT available
Auxiliary 'external' fitting basis          ... NOT available
Integral threshold                          ...     1.000000e-10
Primitive cut-off                           ...     1.000000e-11
Primitive pair pre-selection threshold      ...     1.000000e-11

Calculating pre-screening integrals         ... done (  0.1 sec) Dimension = 81
Organizing shell pair data                  ... done (  0.0 sec)
Shell pair information
Total number of shell pairs                 ...      3321
Shell pairs after pre-screening             ...      2823
Total number of primitive shell pairs       ...     12241
Primitive shell pairs kept                  ...      7493
          la=0 lb=0:    825 shell pairs
          la=1 lb=0:   1006 shell pairs
          la=1 lb=1:    328 shell pairs
          la=2 lb=0:    378 shell pairs
          la=2 lb=1:    236 shell pairs
          la=2 lb=2:     50 shell pairs

Calculating one electron integrals          ... done (  0.0 sec)
Calculating RI/J V-Matrix + Cholesky decomp.... done (  0.0 sec)
Calculating Nuclear repulsion               ... done (  0.0 sec) ENN=    510.018949079399 Eh

SHARK setup successfully completed in   0.3 seconds

Maximum memory used throughout the entire GTOINT-calculation: 24.1 MB
-------------------------------------------------------------------------------
                                 ORCA SCF
-------------------------------------------------------------------------------

------------
SCF SETTINGS
------------
Hamiltonian:
 Density Functional     Method          .... DFT(GTOs)
 Exchange Functional    Exchange        .... WB88
 Correlation Functional Correlation     .... LYP
 LDA part of GGA corr.  LDAOpt          .... VWN-5
 Gradients option       PostSCFGGA      .... off
 Hybrid DFT is turned on
   Fraction HF Exchange ScalHFX         ....  0.190000
   Scaling of DF-GGA-X  ScalDFX         ....  0.350000
   Scaling of DF-GGA-C  ScalDFC         ....  0.810000
   Scaling of DF-LDA-C  ScalLDAC        ....  1.000000
   Perturbative correction              ....  0.000000
   Density functional embedding theory  .... OFF
 Long-range corrected/Screened/Range-Separated Hybrid DFT is turned on
   Amount of maximum screened exact exchange              ....  0.460000
   Range separation parameter mu (erf(mu*r12)/r12)        ....  0.330000
 RI-approximation to the Coulomb term is turned on
   Number of AuxJ basis functions       .... 567
   RIJ-COSX (HFX calculated with COS-X)).... on


General Settings:
 Integral files         IntName         .... new_freq
 Hartree-Fock type      HFTyp           .... RHF
 Total Charge           Charge          ....    1
 Multiplicity           Mult            ....    1
 Number of Electrons    NEL             ....   72
 Basis Dimension        Dim             ....  175
 Nuclear Repulsion      ENuc            ....    510.0189490794 Eh

Convergence Acceleration:
 DIIS                   CNVDIIS         .... on
   Start iteration      DIISMaxIt       ....    12
   Startup error        DIISStart       ....  0.200000
   # of expansion vecs  DIISMaxEq       ....     5
   Bias factor          DIISBfac        ....   1.050
   Max. coefficient     DIISMaxC        ....  10.000
 Trust-Rad. Augm. Hess. CNVTRAH         .... auto
   Auto Start mean grad. ratio tolernc. ....  1.125000
   Auto Start start iteration           ....    20
   Auto Start num. interpolation iter.  ....    10
   Max. Number of Micro iterations      ....    16
   Max. Number of Macro iterations      .... Maxiter - #DIIS iter
   Number of Davidson start vectors     ....     2
   Converg. threshold I  (grad. norm)   ....   5.000e-05
   Converg. threshold II (energy diff.) ....   1.000e-06
   Grad. Scal. Fac. for Micro threshold ....   0.100
   Minimum threshold for Micro iter.    ....   0.010
   NR start threshold (gradient norm)   ....   0.001
   Initial trust radius                 ....   0.400
   Minimum AH scaling param. (alpha)    ....   1.000
   Maximum AH scaling param. (alpha)    .... 1000.000
   Orbital update algorithm             .... Taylor
   White noise on init. David. guess    .... on
   Maximum white noise                  ....   0.010
   Quad. conv. algorithm                .... NR
 SOSCF                  CNVSOSCF        .... on
   Start iteration      SOSCFMaxIt      ....   150
   Startup grad/error   SOSCFStart      ....  0.003300
 Level Shifting         CNVShift        .... on
   Level shift para.    LevelShift      ....    0.2500
   Turn off err/grad.   ShiftErr        ....    0.0010
 Zerner damping         CNVZerner       .... off
 Static damping         CNVDamp         .... on
   Fraction old density DampFac         ....    0.7000
   Max. Damping (<1)    DampMax         ....    0.9800
   Min. Damping (>=0)   DampMin         ....    0.0000
   Turn off err/grad.   DampErr         ....    0.1000
 Fernandez-Rico         CNVRico         .... off

SCF Procedure:
 Maximum # iterations   MaxIter         ....   125
 SCF integral mode      SCFMode         .... Direct
   Integral package                     .... SHARK and LIBINT hybrid scheme
 Reset frequency        DirectResetFreq ....    20
 Integral Threshold     Thresh          ....  1.000e-10 Eh
 Primitive CutOff       TCut            ....  1.000e-11 Eh

Convergence Tolerance:
 Convergence Check Mode ConvCheckMode   .... Total+1el-Energy
 Convergence forced     ConvForced      .... 0
 Energy Change          TolE            ....  1.000e-06 Eh
 1-El. energy change                    ....  1.000e-03 Eh
 Orbital Gradient       TolG            ....  5.000e-05
 Orbital Rotation angle TolX            ....  5.000e-05
 DIIS Error             TolErr          ....  1.000e-06


Diagonalization of the overlap matrix:
Smallest eigenvalue                        ... 2.261e-04
Time for diagonalization                   ...    0.011 sec
Threshold for overlap eigenvalues          ... 1.000e-08
Number of eigenvalues below threshold      ... 0
Time for construction of square roots      ...    0.006 sec
Total time needed                          ...    0.018 sec

Time for model grid setup =    0.332 sec

------------------------------
INITIAL GUESS: MODEL POTENTIAL
------------------------------
Loading Hartree-Fock densities                     ... done
Calculating cut-offs                               ... done
Initializing the effective Hamiltonian             ... done
Setting up the integral package (SHARK)            ... done
Starting the Coulomb interaction                   ... done (   0.3 sec)
Reading the grid                                   ... done
Mapping shells                                     ... done
Starting the XC term evaluation                    ... done (   0.6 sec)
  promolecular density results
     # of electrons  =     72.995590106
     EX              =    -62.095779849
     EC              =     -2.443894407
     EX+EC           =    -64.539674256
Transforming the Hamiltonian                       ... done (   0.0 sec)
Diagonalizing the Hamiltonian                      ... done (   0.0 sec)
Back transforming the eigenvectors                 ... done (   0.0 sec)
Now organizing SCF variables                       ... done
                      ------------------
                      INITIAL GUESS DONE (   1.2 sec)
                      ------------------
-------------------
DFT GRID GENERATION
-------------------

General Integration Accuracy     IntAcc      ... 4.388
Radial Grid Type                 RadialGrid  ... OptM3 with GC (2021)
Angular Grid (max. ang.)         AngularGrid ... 4 (Lebedev-302)
Angular grid pruning method      GridPruning ... 4 (adaptive)
Weight generation scheme         WeightScheme... Becke
Basis function cutoff            BFCut       ... 1.0000e-10
Integration weight cutoff        WCut        ... 1.0000e-14
Angular grids for H and He will be reduced by one unit
Partially contracted basis set               ... off
Rotationally invariant grid construction     ... off

Total number of grid points                  ...    83010
Total number of batches                      ...     1305
Average number of points per batch           ...       63
Average number of grid points per atom       ...     4883
Time for grid setup =    1.807 sec

--------------------
COSX GRID GENERATION
--------------------

GRIDX 1
-------
General Integration Accuracy     IntAcc      ... 3.816
Radial Grid Type                 RadialGrid  ... OptM3 with GC (2021)
Angular Grid (max. ang.)         AngularGrid ... 1 (Lebedev-50)
Angular grid pruning method      GridPruning ... 4 (adaptive)
Weight generation scheme         WeightScheme... Becke
Basis function cutoff            BFCut       ... 1.0000e-10
Integration weight cutoff        WCut        ... 1.0000e-14
Angular grids for H and He will be reduced by one unit
Partially contracted basis set               ... on
Rotationally invariant grid construction     ... off

Total number of grid points                  ...    10602
Total number of batches                      ...      173
Average number of points per batch           ...       61
Average number of grid points per atom       ...      624
UseSFitting                                  ... on

GRIDX 2
-------
General Integration Accuracy     IntAcc      ... 4.020
Radial Grid Type                 RadialGrid  ... OptM3 with GC (2021)
Angular Grid (max. ang.)         AngularGrid ... 2 (Lebedev-110)
Angular grid pruning method      GridPruning ... 4 (adaptive)
Weight generation scheme         WeightScheme... Becke
Basis function cutoff            BFCut       ... 1.0000e-10
Integration weight cutoff        WCut        ... 1.0000e-14
Angular grids for H and He will be reduced by one unit
Partially contracted basis set               ... on
Rotationally invariant grid construction     ... off

Total number of grid points                  ...    23474
Total number of batches                      ...      375
Average number of points per batch           ...       62
Average number of grid points per atom       ...     1381
UseSFitting                                  ... on

GRIDX 3
-------
General Integration Accuracy     IntAcc      ... 4.338
Radial Grid Type                 RadialGrid  ... OptM3 with GC (2021)
Angular Grid (max. ang.)         AngularGrid ... 3 (Lebedev-194)
Angular grid pruning method      GridPruning ... 4 (adaptive)
Weight generation scheme         WeightScheme... Becke
Basis function cutoff            BFCut       ... 1.0000e-10
Integration weight cutoff        WCut        ... 1.0000e-14
Angular grids for H and He will be reduced by one unit
Partially contracted basis set               ... on
Rotationally invariant grid construction     ... off

Total number of grid points                  ...    51633
Total number of batches                      ...      817
Average number of points per batch           ...       63
Average number of grid points per atom       ...     3037
UseSFitting                                  ... on

Time for X-Grid setup             =    1.850 sec

--------------
SCF ITERATIONS
--------------
ITER       Energy         Delta-E        Max-DP      RMS-DP      [F,P]     Damp
               ***  Starting incremental Fock matrix formation  ***
  0   -491.2735882376   0.000000000000 0.20729189  0.00331814  0.2076924 0.7000
  1   -491.5016857399  -0.228097502329 0.13624958  0.00214831  0.0889859 0.7000
                               ***Turning on DIIS***
  2   -491.5031466257  -0.001460885782 0.40233886  0.00470759  0.0390584 0.0000
  3   -491.1455244403   0.357622185329 0.19991982  0.00244790  0.1889564 0.7000
  4   -491.4769134495  -0.331389009131 0.46647958  0.00572688  0.0565711 0.0000
  5   -491.4901160612  -0.013202611718 0.01164641  0.00038042  0.0768255 0.0000
  6   -491.4993939216  -0.009277860398 0.00458775  0.00017130  0.0628891 0.0000
  7   -491.5028973097  -0.003503388093 0.01214673  0.00047026  0.0579878 0.0000
  8   -491.5103876184  -0.007490308765 0.00712937  0.00029094  0.0452630 0.0000
  9   -491.5144024668  -0.004014848348 0.02700463  0.00110303  0.0389923 0.0000
 10   -491.5236677558  -0.009265289042 0.01122065  0.00043200  0.0091689 0.0000
 11   -491.5242510483  -0.000583292437 0.00612118  0.00016045  0.0108816 0.0000
                      *** Initiating the SOSCF procedure ***
                           *** Shutting down DIIS ***
                      *** Re-Reading the Fockian *** 
                      *** Removing any level shift *** 
ITER      Energy       Delta-E        Grad      Rot      Max-DP    RMS-DP
 12   -491.52461513  -0.0003640839  0.000910  0.000910  0.001764  0.000060
               *** Restarting incremental Fock matrix formation ***
 13   -491.52468066  -0.0000655230  0.000678  0.002901  0.001332  0.000065
 14   -491.52468919  -0.0000085347  0.000974  0.003268  0.001158  0.000057
 15   -491.52469730  -0.0000081105  0.000161  0.000718  0.000557  0.000023
                 **** Energy Check signals convergence ****
              ***Rediagonalizing the Fockian in SOSCF/NRSCF***

               *****************************************************
               *                     SUCCESS                       *
               *           SCF CONVERGED AFTER  16 CYCLES          *
               *****************************************************

Old exchange energy                            =    -17.570327583 Eh
New exchange energy                            =    -17.570271621 Eh
Exchange energy change after final integration =      0.000055962 Eh
Total energy after final integration           =   -491.524642198 Eh
Final COS-X integration done in                =    23.236 sec

----------------
TOTAL SCF ENERGY
----------------

Total Energy       :         -491.52464220 Eh          -13375.06549 eV

Components:
Nuclear Repulsion  :          510.01894908 Eh           13878.32116 eV
Electronic Energy  :        -1001.54359128 Eh          -27253.38665 eV
One Electron Energy:        -1677.20715987 Eh          -45639.12707 eV
Two Electron Energy:          675.66356859 Eh           18385.74041 eV
Max COSX asymmetry :            0.00000387 Eh               0.00011 eV

Virial components:
Potential Energy   :         -978.55035323 Eh          -26627.70884 eV
Kinetic Energy     :          487.02571103 Eh           13252.64335 eV
Virial Ratio       :            2.00923756


DFT components:
N(Alpha)           :       36.000027866377 electrons
N(Beta)            :       36.000027866377 electrons
N(Total)           :       72.000055732753 electrons
E(XC)              :      -47.877932589439 Eh       
DFET-embed. en.    :        0.000000000000 Eh       

---------------
SCF CONVERGENCE
---------------

  Last Energy change         ...   -8.5959e-07  Tolerance :   1.0000e-06
  Last MAX-Density change    ...    3.1086e-15  Tolerance :   1.0000e-05
  Last RMS-Density change    ...    4.1413e-17  Tolerance :   1.0000e-06
  Last Orbital Gradient      ...    3.9436e-05  Tolerance :   5.0000e-05
  Last Orbital Rotation      ...    1.3497e-04  Tolerance :   5.0000e-05

             **** THE GBW FILE WAS UPDATED (new_freq.gbw) ****
             **** DENSITY new_freq.scfp WAS UPDATED ****
             **** ENERGY FILE WAS UPDATED (new_freq.en.tmp) ****
             **** THE GBW FILE WAS UPDATED (new_freq.gbw) ****
             **** DENSITY new_freq.scfp WAS UPDATED ****
----------------
ORBITAL ENERGIES
----------------

  NO   OCC          E(Eh)            E(eV) 
   0   2.0000     -19.262054      -524.1471 
   1   2.0000     -19.261814      -524.1406 
   2   2.0000     -14.667228      -399.1156 
   3   2.0000     -14.452457      -393.2713 
   4   2.0000     -10.367890      -282.1246 
   5   2.0000     -10.338124      -281.3147 
   6   2.0000     -10.310919      -280.5744 
   7   2.0000     -10.310636      -280.5667 
   8   2.0000     -10.301423      -280.3160 
   9   2.0000     -10.294294      -280.1220 
  10   2.0000      -1.334198       -36.3054 
  11   2.0000      -1.157769       -31.5045 
  12   2.0000      -1.050317       -28.5806 
  13   2.0000      -0.963737       -26.2246 
  14   2.0000      -0.902644       -24.5622 
  15   2.0000      -0.841687       -22.9035 
  16   2.0000      -0.788347       -21.4520 
  17   2.0000      -0.727940       -19.8083 
  18   2.0000      -0.705274       -19.1915 
  19   2.0000      -0.656940       -17.8763 
  20   2.0000      -0.642726       -17.4895 
  21   2.0000      -0.627655       -17.0794 
  22   2.0000      -0.621712       -16.9176 
  23   2.0000      -0.609189       -16.5769 
  24   2.0000      -0.569039       -15.4843 
  25   2.0000      -0.538489       -14.6530 
  26   2.0000      -0.536006       -14.5855 
  27   2.0000      -0.504771       -13.7355 
  28   2.0000      -0.480574       -13.0771 
  29   2.0000      -0.459320       -12.4987 
  30   2.0000      -0.428098       -11.6491 
  31   2.0000      -0.400962       -10.9107 
  32   2.0000      -0.400694       -10.9034 
  33   2.0000      -0.390809       -10.6345 
  34   2.0000      -0.362355        -9.8602 
  35   2.0000      -0.295074        -8.0294 
  36   0.0000      -0.498311       -13.5597 
  37   0.0000      -0.060550        -1.6476 
  38   0.0000       0.012399         0.3374 
  39   0.0000       0.030919         0.8414 
  40   0.0000       0.069650         1.8953 
  41   0.0000       0.083754         2.2791 
  42   0.0000       0.119817         3.2604 
  43   0.0000       0.142491         3.8774 
  44   0.0000       0.155271         4.2251 
  45   0.0000       0.174708         4.7540 
  46   0.0000       0.182666         4.9706 
  47   0.0000       0.182816         4.9747 
  48   0.0000       0.199598         5.4313 
  49   0.0000       0.270913         7.3719 
  50   0.0000       0.285150         7.7593 
  51   0.0000       0.297360         8.0916 
  52   0.0000       0.319185         8.6855 
  53   0.0000       0.329698         8.9715 
  54   0.0000       0.335337         9.1250 
  55   0.0000       0.378661        10.3039 
  56   0.0000       0.412630        11.2282 
  57   0.0000       0.425194        11.5701 
  58   0.0000       0.427196        11.6246 
  59   0.0000       0.474948        12.9240 
  60   0.0000       0.483879        13.1670 
  61   0.0000       0.497160        13.5284 
  62   0.0000       0.504798        13.7363 
  63   0.0000       0.527268        14.3477 
  64   0.0000       0.533806        14.5256 
  65   0.0000       0.552592        15.0368 
  66   0.0000       0.559035        15.2121 
  67   0.0000       0.562609        15.3094 
  68   0.0000       0.587465        15.9857 
  69   0.0000       0.619691        16.8626 
  70   0.0000       0.629543        17.1307 
  71   0.0000       0.648930        17.6583 
  72   0.0000       0.672965        18.3123 
  73   0.0000       0.688800        18.7432 
  74   0.0000       0.716141        19.4872 
  75   0.0000       0.718957        19.5638 
  76   0.0000       0.727505        19.7964 
  77   0.0000       0.744077        20.2474 
  78   0.0000       0.752001        20.4630 
  79   0.0000       0.781371        21.2622 
  80   0.0000       0.782668        21.2975 
  81   0.0000       0.813146        22.1268 
  82   0.0000       0.821604        22.3570 
  83   0.0000       0.850806        23.1516 
  84   0.0000       0.857454        23.3325 
  85   0.0000       0.885045        24.0833 
  86   0.0000       0.925119        25.1738 
  87   0.0000       0.965230        26.2653 
  88   0.0000       0.997709        27.1490 
  89   0.0000       1.005828        27.3700 
  90   0.0000       1.035160        28.1681 
  91   0.0000       1.048510        28.5314 
  92   0.0000       1.049438        28.5567 
  93   0.0000       1.049438        28.5567 
  94   0.0000       1.049440        28.5567 
  95   0.0000       1.051404        28.6102 
  96   0.0000       1.120867        30.5004 
  97   0.0000       1.159831        31.5606 
  98   0.0000       1.215424        33.0734 
  99   0.0000       1.220747        33.2182 
 100   0.0000       1.242759        33.8172 
 101   0.0000       1.265693        34.4412 
 102   0.0000       1.289231        35.0818 
 103   0.0000       1.292530        35.1715 
 104   0.0000       1.292764        35.1779 
 105   0.0000       1.331419        36.2297 
 106   0.0000       1.351353        36.7722 
 107   0.0000       1.375108        37.4186 
 108   0.0000       1.375695        37.4346 
 109   0.0000       1.451040        39.4848 
 110   0.0000       1.464460        39.8500 
 111   0.0000       1.500198        40.8225 
 112   0.0000       1.533922        41.7402 
 113   0.0000       1.608905        43.7805 
 114   0.0000       1.688584        45.9487 
 115   0.0000       1.721722        46.8504 
 116   0.0000       1.722682        46.8766 
 117   0.0000       1.762404        47.9575 
 118   0.0000       1.771164        48.1958 
 119   0.0000       1.773341        48.2550 
 120   0.0000       1.790960        48.7345 
 121   0.0000       1.806804        49.1656 
 122   0.0000       1.822735        49.5991 
 123   0.0000       1.826860        49.7114 
 124   0.0000       1.835506        49.9467 
 125   0.0000       1.848979        50.3133 
 126   0.0000       1.896270        51.6001 
 127   0.0000       1.915990        52.1367 
 128   0.0000       1.941779        52.8385 
 129   0.0000       1.988810        54.1183 
 130   0.0000       2.016603        54.8746 
 131   0.0000       2.044208        55.6257 
 132   0.0000       2.065848        56.2146 
 133   0.0000       2.107464        57.3470 
 134   0.0000       2.157190        58.7001 
 135   0.0000       2.166340        58.9491 
 136   0.0000       2.177102        59.2420 
 137   0.0000       2.230922        60.7065 
 138   0.0000       2.241756        61.0013 
 139   0.0000       2.262960        61.5783 
 140   0.0000       2.324435        63.2511 
 141   0.0000       2.342967        63.7554 
 142   0.0000       2.363778        64.3217 
 143   0.0000       2.383705        64.8639 
 144   0.0000       2.396154        65.2027 
 145   0.0000       2.430936        66.1491 
 146   0.0000       2.455750        66.8244 
 147   0.0000       2.514878        68.4333 
 148   0.0000       2.586959        70.3947 
 149   0.0000       2.589065        70.4520 
 150   0.0000       2.638143        71.7875 
 151   0.0000       2.652498        72.1781 
 152   0.0000       2.678162        72.8765 
 153   0.0000       2.690782        73.2199 
 154   0.0000       2.726326        74.1871 
 155   0.0000       2.756265        75.0018 
 156   0.0000       2.758256        75.0560 
 157   0.0000       2.763661        75.2030 
 158   0.0000       2.780294        75.6557 
 159   0.0000       2.806778        76.3763 
 160   0.0000       2.837366        77.2086 
 161   0.0000       2.897838        78.8542 
 162   0.0000       2.975985        80.9807 
 163   0.0000       3.091559        84.1256 
 164   0.0000       3.097571        84.2892 
 165   0.0000       3.109234        84.6066 
 166   0.0000       3.162697        86.0614 
 167   0.0000       3.280357        89.2630 
 168   0.0000       3.320093        90.3443 
 169   0.0000       3.338691        90.8504 
 170   0.0000       3.446496        93.7839 
 171   0.0000       3.592787        97.7647 
 172   0.0000       3.638767        99.0159 
 173   0.0000       3.824398       104.0671 
 174   0.0000       3.836768       104.4038 

                    ********************************
                    * MULLIKEN POPULATION ANALYSIS *
                    ********************************

-----------------------
MULLIKEN ATOMIC CHARGES
-----------------------
   0 C :   -0.028284
   1 C :   -0.059898
   2 C :    0.054461
   3 C :   -0.010198
   4 C :   -0.040104
   5 C :    0.119614
   6 H :   -0.028495
   7 H :    0.003517
   8 H :   -0.005546
   9 H :    0.008386
  10 H :    1.000000
  11 N :   -0.008858
  12 H :    0.121466
  13 H :    0.146963
  14 N :    0.253555
  15 O :   -0.288994
  16 O :   -0.237585
Sum of atomic charges:    1.0000000

--------------------------------
MULLIKEN REDUCED ORBITAL CHARGES
--------------------------------
  0 C s       :     3.024319  s :     3.024319
      pz      :     0.996253  p :     2.939748
      px      :     1.018342
      py      :     0.925153
      dz2     :     0.010607  d :     0.064218
      dxz     :     0.006489
      dyz     :     0.016271
      dx2y2   :     0.014534
      dxy     :     0.016317
  1 C s       :     3.239545  s :     3.239545
      pz      :     0.955319  p :     2.788848
      px      :     0.941633
      py      :     0.891896
      dz2     :     0.003769  d :     0.031504
      dxz     :     0.004248
      dyz     :     0.007501
      dx2y2   :     0.006826
      dxy     :     0.009161
  2 C s       :     3.153789  s :     3.153789
      pz      :     0.931760  p :     2.754799
      px      :     0.904362
      py      :     0.918677
      dz2     :     0.006640  d :     0.036951
      dxz     :     0.004665
      dyz     :     0.008350
      dx2y2   :     0.007370
      dxy     :     0.009925
  3 C s       :     3.138080  s :     3.138080
      pz      :     0.990576  p :     2.839100
      px      :     0.979753
      py      :     0.868770
      dz2     :     0.005333  d :     0.033018
      dxz     :     0.005544
      dyz     :     0.006364
      dx2y2   :     0.008598
      dxy     :     0.007179
  4 C s       :     3.291157  s :     3.291157
      pz      :     0.873432  p :     2.713204
      px      :     0.850375
      py      :     0.989397
      dz2     :     0.004117  d :     0.035743
      dxz     :     0.005161
      dyz     :     0.008558
      dx2y2   :     0.009951
      dxy     :     0.007957
  5 C s       :     3.009114  s :     3.009114
      pz      :     1.058497  p :     2.827267
      px      :     0.993700
      py      :     0.775070
      dz2     :     0.006197  d :     0.044005
      dxz     :     0.006169
      dyz     :     0.010137
      dx2y2   :     0.007559
      dxy     :     0.013942
  6 H s       :     1.005868  s :     1.005868
      pz      :     0.009359  p :     0.022628
      px      :     0.009324
      py      :     0.003945
  7 H s       :     0.974307  s :     0.974307
      pz      :     0.005160  p :     0.022176
      px      :     0.008415
      py      :     0.008601
  8 H s       :     0.982985  s :     0.982985
      pz      :     0.005129  p :     0.022561
      px      :     0.003754
      py      :     0.013678
  9 H s       :     0.968376  s :     0.968376
      pz      :     0.009295  p :     0.023238
      px      :     0.009785
      py      :     0.004158
 10 H s       :     0.000000  s :     0.000000
      pz      :     0.000000  p :     0.000000
      px      :     0.000000
      py      :     0.000000
 11 N s       :     3.241775  s :     3.241775
      pz      :     1.373368  p :     3.751251
      px      :     1.283599
      py      :     1.094284
      dz2     :     0.001592  d :     0.015833
      dxz     :     0.002419
      dyz     :     0.003822
      dx2y2   :     0.003868
      dxy     :     0.004131
 12 H s       :     0.834489  s :     0.834489
      pz      :     0.017794  p :     0.044044
      px      :     0.017363
      py      :     0.008888
 13 H s       :     0.803235  s :     0.803235
      pz      :     0.014266  p :     0.049802
      px      :     0.020394
      py      :     0.015142
 14 N s       :     3.302066  s :     3.302066
      pz      :     1.115176  p :     3.326627
      px      :     1.133876
      py      :     1.077576
      dz2     :     0.021533  d :     0.117751
      dxz     :     0.012393
      dyz     :     0.028613
      dx2y2   :     0.024642
      dxy     :     0.030571
 15 O s       :     3.842403  s :     3.842403
      pz      :     1.572274  p :     4.425527
      px      :     1.695992
      py      :     1.157260
      dz2     :     0.002651  d :     0.021064
      dxz     :     0.000481
      dyz     :     0.006150
      dx2y2   :     0.007233
      dxy     :     0.004550
 16 O s       :     3.841566  s :     3.841566
      pz      :     1.292724  p :     4.372881
      px      :     1.367651
      py      :     1.712506
      dz2     :     0.005586  d :     0.023138
      dxz     :     0.006867
      dyz     :     0.003612
      dx2y2   :     0.003143
      dxy     :     0.003929


                     *******************************
                     * LOEWDIN POPULATION ANALYSIS *
                     *******************************

----------------------
LOEWDIN ATOMIC CHARGES
----------------------
   0 C :    0.055787
   1 C :   -0.075169
   2 C :    0.009536
   3 C :   -0.070093
   4 C :    0.005414
   5 C :   -0.084944
   6 H :    0.028554
   7 H :    0.036916
   8 H :    0.029432
   9 H :    0.041934
  10 H :    1.000000
  11 N :    0.014159
  12 H :    0.083673
  13 H :    0.069578
  14 N :    0.291028
  15 O :   -0.232966
  16 O :   -0.202839

-------------------------------
LOEWDIN REDUCED ORBITAL CHARGES
-------------------------------
  0 C s       :     2.835753  s :     2.835753
      pz      :     0.964244  p :     2.957614
      px      :     1.000859
      py      :     0.992512
      dz2     :     0.023113  d :     0.150846
      dxz     :     0.016227
      dyz     :     0.037611
      dx2y2   :     0.035439
      dxy     :     0.038457
  1 C s       :     2.856844  s :     2.856844
      pz      :     1.047883  p :     3.134533
      px      :     1.034415
      py      :     1.052235
      dz2     :     0.009073  d :     0.083793
      dxz     :     0.010129
      dyz     :     0.019708
      dx2y2   :     0.019916
      dxy     :     0.024967
  2 C s       :     2.859904  s :     2.859904
      pz      :     0.982487  p :     3.037025
      px      :     0.996505
      py      :     1.058034
      dz2     :     0.015093  d :     0.093535
      dxz     :     0.012059
      dyz     :     0.021268
      dx2y2   :     0.020098
      dxy     :     0.025017
  3 C s       :     2.855617  s :     2.855617
      pz      :     1.044609  p :     3.128587
      px      :     1.046645
      py      :     1.037333
      dz2     :     0.012223  d :     0.085889
      dxz     :     0.015652
      dyz     :     0.016169
      dx2y2   :     0.022350
      dxy     :     0.019494
  4 C s       :     2.861442  s :     2.861442
      pz      :     0.981386  p :     3.041297
      px      :     1.005229
      py      :     1.054682
      dz2     :     0.009714  d :     0.091847
      dxz     :     0.012035
      dyz     :     0.021701
      dx2y2   :     0.026368
      dxy     :     0.022028
  5 C s       :     2.857340  s :     2.857340
      pz      :     1.084867  p :     3.113836
      px      :     1.016950
      py      :     1.012018
      dz2     :     0.014317  d :     0.113768
      dxz     :     0.016378
      dyz     :     0.025864
      dx2y2   :     0.022142
      dxy     :     0.035067
  6 H s       :     0.903494  s :     0.903494
      pz      :     0.027720  p :     0.067952
      px      :     0.027660
      py      :     0.012572
  7 H s       :     0.897600  s :     0.897600
      pz      :     0.015970  p :     0.065483
      px      :     0.024748
      py      :     0.024765
  8 H s       :     0.903049  s :     0.903049
      pz      :     0.016383  p :     0.067519
      px      :     0.012616
      py      :     0.038520
  9 H s       :     0.886924  s :     0.886924
      pz      :     0.027874  p :     0.071142
      px      :     0.029544
      py      :     0.013724
 10 H s       :     0.000000  s :     0.000000
      pz      :     0.000000  p :     0.000000
      px      :     0.000000
      py      :     0.000000
 11 N s       :     3.012798  s :     3.012798
      pz      :     1.401823  p :     3.929932
      px      :     1.345728
      py      :     1.182381
      dz2     :     0.004142  d :     0.043111
      dxz     :     0.005719
      dyz     :     0.010358
      dx2y2   :     0.011053
      dxy     :     0.011839
 12 H s       :     0.795804  s :     0.795804
      pz      :     0.050852  p :     0.120523
      px      :     0.049197
      py      :     0.020474
 13 H s       :     0.782955  s :     0.782955
      pz      :     0.045169  p :     0.147466
      px      :     0.063522
      py      :     0.038776
 14 N s       :     3.048443  s :     3.048443
      pz      :     1.127288  p :     3.415505
      px      :     1.147473
      py      :     1.140743
      dz2     :     0.039605  d :     0.245024
      dxz     :     0.027901
      dyz     :     0.061446
      dx2y2   :     0.053522
      dxy     :     0.062550
 15 O s       :     3.604468  s :     3.604468
      pz      :     1.583946  p :     4.587980
      px      :     1.687063
      py      :     1.316971
      dz2     :     0.005357  d :     0.040518
      dxz     :     0.000801
      dyz     :     0.011059
      dx2y2   :     0.016617
      dxy     :     0.006683
 16 O s       :     3.604768  s :     3.604768
      pz      :     1.377036  p :     4.553929
      px      :     1.446051
      py      :     1.730842
      dz2     :     0.007960  d :     0.044142
      dxz     :     0.016107
      dyz     :     0.007192
      dx2y2   :     0.005549
      dxy     :     0.007334


                      *****************************
                      * MAYER POPULATION ANALYSIS *
                      *****************************

  NA   - Mulliken gross atomic population
  ZA   - Total nuclear charge
  QA   - Mulliken gross atomic charge
  VA   - Mayer's total valence
  BVA  - Mayer's bonded valence
  FA   - Mayer's free valence

  ATOM       NA         ZA         QA         VA         BVA        FA
  0 C      6.0283     6.0000    -0.0283     4.1548     4.1548    -0.0000
  1 C      6.0599     6.0000    -0.0599     3.8220     3.8220    -0.0000
  2 C      5.9455     6.0000     0.0545     3.8249     3.8249     0.0000
  3 C      6.0102     6.0000    -0.0102     3.7862     3.7862     0.0000
  4 C      6.0401     6.0000    -0.0401     3.8890     3.8890     0.0000
  5 C      5.8804     6.0000     0.1196     3.7228     3.7228     0.0000
  6 H      1.0285     1.0000    -0.0285     0.9914     0.9914    -0.0000
  7 H      0.9965     1.0000     0.0035     0.9798     0.9798     0.0000
  8 H      1.0055     1.0000    -0.0055     0.9834     0.9834     0.0000
  9 H      0.9916     1.0000     0.0084     1.0203     1.0203    -0.0000
 10 H      0.0000     1.0000     1.0000     0.0000     0.0000    -0.0000
 11 N      7.0089     7.0000    -0.0089     3.3089     3.3089    -0.0000
 12 H      0.8785     1.0000     0.1215     0.9980     0.9980    -0.0000
 13 H      0.8530     1.0000     0.1470     1.0444     1.0444    -0.0000
 14 N      6.7464     7.0000     0.2536     3.9890     3.9890    -0.0000
 15 O      8.2890     8.0000    -0.2890     1.9078     1.9078    -0.0000
 16 O      8.2376     8.0000    -0.2376     1.9852     1.9852    -0.0000

  Mayer bond orders larger than 0.100000
B(  0-C ,  1-C ) :   1.2667 B(  0-C ,  5-C ) :   1.2512 B(  0-C , 11-N ) :   1.4140 
B(  1-C ,  2-C ) :   1.4481 B(  1-C ,  6-H ) :   0.9880 B(  2-C ,  3-C ) :   1.3075 
B(  2-C ,  7-H ) :   0.9863 B(  3-C ,  4-C ) :   1.3936 B(  3-C ,  8-H ) :   0.9870 
B(  4-C ,  5-C ) :   1.3724 B(  4-C ,  9-H ) :   0.9807 B(  5-C , 14-N ) :   0.9017 
B( 11-N , 12-H ) :   0.9268 B( 11-N , 13-H ) :   0.8912 B( 14-N , 15-O ) :   1.4606 
B( 14-N , 16-O ) :   1.5853 B( 15-O , 16-O ) :   0.2419 

-------
TIMINGS
-------

Total SCF time: 0 days 0 hours 2 min 46 sec 

Total time                  ....     166.886 sec
Sum of individual times     ....     166.488 sec  ( 99.8%)

Fock matrix formation       ....     161.227 sec  ( 96.6%)
  Split-RI-J                ....       9.366 sec  (  5.8% of F)
  Chain of spheres X        ....     131.384 sec  ( 81.5% of F)
  XC integration            ....      20.301 sec  ( 12.6% of F)
    Basis function eval.    ....       6.450 sec  ( 31.8% of XC)
    Density eval.           ....       4.969 sec  ( 24.5% of XC)
    XC-Functional eval.     ....       4.467 sec  ( 22.0% of XC)
    XC-Potential eval.      ....       3.545 sec  ( 17.5% of XC)
Diagonalization             ....       0.103 sec  (  0.1%)
Density matrix formation    ....       0.016 sec  (  0.0%)
Population analysis         ....       0.035 sec  (  0.0%)
Initial guess               ....       0.867 sec  (  0.5%)
Orbital Transformation      ....       0.000 sec  (  0.0%)
Orbital Orthonormalization  ....       0.000 sec  (  0.0%)
DIIS solution               ....       0.220 sec  (  0.1%)
SOSCF solution              ....       0.031 sec  (  0.0%)
Grid generation             ....       3.989 sec  (  2.4%)

Maximum memory used throughout the entire SCF-calculation: 73.8 MB


-------------------------------------------------------------------------------
                          DFT DISPERSION CORRECTION                            
                                                                               
                                 DFTD4 V2.5                                    
-------------------------------------------------------------------------------
The CAM-B3LYP functional is recognized
Active option DFTDOPT                   ...         5   

Starting D4
-------------------------   ----------------
Dispersion correction           -0.014063127
-------------------------   ----------------


-------------------------   --------------------
FINAL SINGLE POINT ENERGY      -491.538705325495
-------------------------   --------------------


                            ***************************************
                            *     ORCA property calculations      *
                            ***************************************

                                    ---------------------
                                    Active property flags
                                    ---------------------
   (+) Dipole Moment


------------------------------------------------------------------------------
                       ORCA ELECTRIC PROPERTIES CALCULATION
------------------------------------------------------------------------------

Dipole Moment Calculation                       ... on
Quadrupole Moment Calculation                   ... off
Polarizability Calculation                      ... off
GBWName                                         ... new_freq.gbw
Electron density                                ... new_freq.scfp
The origin for moment calculation is the CENTER OF MASS  = (-3.335530,  1.796211 -0.783706)

-------------
DIPOLE MOMENT
-------------
                                X             Y             Z
Electronic contribution:     14.75883      -0.29877      19.93737
Nuclear contribution   :      3.93475      -6.58991      11.71913
                        -----------------------------------------
Total Dipole Moment    :     18.69359      -6.88868      31.65650
                        -----------------------------------------
Magnitude (a.u.)       :     37.40372
Magnitude (Debye)      :     95.07270



--------------------
Rotational spectrum 
--------------------
 
Rotational constants in cm-1:     0.050365     0.023232     0.016225 
Rotational constants in MHz :  1509.894465   696.474483   486.414794 

 Dipole components along the rotational axes: 
x,y,z [a.u.] :    35.997791     9.372350    -3.918720 
x,y,z [Debye]:    91.499114    23.822620    -9.960594 

 

-------------------------------------------------------------------------------
                               ORCA SCF HESSIAN
-------------------------------------------------------------------------------

                   --------- SHARK INITIALIZATION DONE ---------

Hessian of the Kohn-Sham DFT energy:
Kohn-Sham wavefunction type                      ... RKS
Hartree-Fock exchange scaling                    ...    0.190
Number of operators                              ...    1
Number of atoms                                  ...   17
Basis set dimensions                             ...  175
Integral neglect threshold                       ... 1.0e-10
Integral primitive cutoff                        ... 1.0e-11

Setting up DFT Hessian calculations              ... 

HESS GRID
---------

General Integration Accuracy     IntAcc      ... 4.629
Radial Grid Type                 RadialGrid  ... OptM3 with GC (2021)
Angular Grid (max. ang.)         AngularGrid ... 5 (Lebedev-434)
Angular grid pruning method      GridPruning ... 4 (adaptive)
Weight generation scheme         WeightScheme... Becke
Basis function cutoff            BFCut       ... 1.0000e-10
Integration weight cutoff        WCut        ... 1.0000e-14
Angular grids for H and He will be reduced by one unit
Partially contracted basis set               ... off
Rotationally invariant grid construction     ... off

Total number of grid points                  ...   129266
Total number of batches                      ...     2028
Average number of points per batch           ...       63
Average number of grid points per atom       ...     7604

Building densities                               ... done   (      0.0 sec)
Calculating rho(r) on the grid                   ... done   (      1.2 sec)
Building xc-kernel on the grid                   ... done   (      1.4 sec)
                                                     done   (      4.5 sec)

Nuclear repulsion Hessian  (SHARK)               ... done   (      0.0 sec)

----------------------------------------------
Forming right-hand sides of CP-SCF equations     ...
----------------------------------------------
One electron integral derivatives  (SHARK)       ... done   (      0.2 sec)
Transforming the overlap derivative matrices     ... done   (      0.1 sec)
Making the Q(x) pseudodensities                  ... done   (      0.1 sec)
Adding the E*S(x)*S(y) terms to the Hessian      ... done   (      0.1 sec)
Calculating energy weighted overlap derivatives  ... done   (      1.9 sec)
Two electron integral derivatives (SHARK-RI)     ... done   (     39.0 sec)
Exchange-correlation integral derivatives        ... done   (     97.0 sec)
tr(F(y)Q(x)) contribution to the Hessian         ... done   (      0.0 sec)
Response fock operator R(S(x)) (SHARK-RIJCOSX)   ... done   (     27.2 sec)
XC Response fock operator R(S(x))                ... done   (     34.0 sec)
tr(F(y)S(x)) contribution to the Hessian         ... done   (      0.0 sec)
Transforming and finalizing RHSs                 ... done   (      0.1 sec)

----------------------------------------------
Solving the CP-SCF equations (RIJCOSX)           ...
----------------------------------------------
     CP-SCF ITERATION   0:   3.4310e-01 (  14.9 sec   3/ 51 done)
     CP-SCF ITERATION   1:   5.4093e-02 (  14.0 sec   3/ 51 done)
     CP-SCF ITERATION   2:   3.3044e-02 (  14.2 sec   3/ 51 done)
     CP-SCF ITERATION   3:   1.1779e-02 (  14.4 sec   5/ 51 done)
     CP-SCF ITERATION   4:   5.0780e-03 (  13.9 sec  19/ 51 done)
     CP-SCF ITERATION   5:   1.7713e-03 (  10.8 sec  28/ 51 done)
     CP-SCF ITERATION   6:   8.2972e-04 (   9.6 sec  51/ 51 done)
                    *** THE CP-SCF HAS CONVERGED ***

                                                 ... done   (     92.4 sec)
Forming perturbed density Hessian contributions  ... done   (      0.0 sec)
2nd integral derivative contribs (SHARK-RI)      ... done   (    142.9 sec)
Exchange-correlation Hessian                     ... done   (     83.5 sec)
Dispersion correction in the Hessian             ... Starting D4


------------------- 
Dispersion Gradient 
------------------- 
   1  :   -0.000094073    0.000083390   -0.000105315
   2  :   -0.000203194   -0.000060418   -0.000157968
   3  :   -0.000160392   -0.000238411   -0.000070040
   4  :   -0.000070071   -0.000308861    0.000028088
   5  :    0.000072779   -0.000223183    0.000126735
   6  :    0.000088520    0.000046749    0.000062965
   7  :   -0.000072347    0.000007085   -0.000064410
   8  :   -0.000052429   -0.000061523   -0.000027568
   9  :   -0.000004679   -0.000085729    0.000020584
  10  :    0.000061591   -0.000051405    0.000067914
  11  :   -0.000000143    0.000000026   -0.000000218
  12  :   -0.000104648    0.000232521   -0.000157007
  13  :   -0.000111093    0.000093571   -0.000122557
  14  :    0.000069597    0.000149089    0.000017277
  15  :    0.000225138    0.000155690    0.000149677
  16  :    0.000142024    0.000214642    0.000060837
  17  :    0.000213421    0.000046768    0.000171007

  |G| =    0.000907083

Starting D4


------------------- 
Dispersion Gradient 
------------------- 
   1  :   -0.000094889    0.000083257   -0.000105493
   2  :   -0.000203197   -0.000060419   -0.000157975
   3  :   -0.000160323   -0.000238330   -0.000070037
   4  :   -0.000069998   -0.000308871    0.000028092
   5  :    0.000072870   -0.000223267    0.000126800
   6  :    0.000088518    0.000046758    0.000062943
   7  :   -0.000072317    0.000007094   -0.000064402
   8  :   -0.000052398   -0.000061532   -0.000027568
   9  :   -0.000004652   -0.000085727    0.000020585
  10  :    0.000061624   -0.000051401    0.000067913
  11  :   -0.000000143    0.000000026   -0.000000218
  12  :   -0.000104592    0.000232523   -0.000157049
  13  :   -0.000111084    0.000093549   -0.000122526
  14  :    0.000069613    0.000149117    0.000017298
  15  :    0.000225310    0.000155725    0.000149772
  16  :    0.000142194    0.000214732    0.000060901
  17  :    0.000213465    0.000046764    0.000170963

  |G| =    0.000907345

Starting D4


------------------- 
Dispersion Gradient 
------------------- 
   1  :   -0.000094415    0.000083845   -0.000105415
   2  :   -0.000203193   -0.000060420   -0.000157970
   3  :   -0.000160403   -0.000238513   -0.000070043
   4  :   -0.000070030   -0.000309020    0.000028128
   5  :    0.000072872   -0.000223329    0.000126832
   6  :    0.000088521    0.000046752    0.000062953
   7  :   -0.000072338    0.000007082   -0.000064411
   8  :   -0.000052412   -0.000061541   -0.000027567
   9  :   -0.000004668   -0.000085699    0.000020571
  10  :    0.000061604   -0.000051420    0.000067911
  11  :   -0.000000143    0.000000026   -0.000000218
  12  :   -0.000104625    0.000232557   -0.000157057
  13  :   -0.000111146    0.000093552   -0.000122586
  14  :    0.000069651    0.000149121    0.000017325
  15  :    0.000225213    0.000155677    0.000149717
  16  :    0.000142069    0.000214615    0.000060846
  17  :    0.000213442    0.000046716    0.000170985

  |G| =    0.000907378

Starting D4


------------------- 
Dispersion Gradient 
------------------- 
   1  :   -0.000094547    0.000082801   -0.000105393
   2  :   -0.000203198   -0.000060416   -0.000157973
   3  :   -0.000160311   -0.000238227   -0.000070035
   4  :   -0.000070039   -0.000308712    0.000028053
   5  :    0.000072776   -0.000223121    0.000126703
   6  :    0.000088517    0.000046754    0.000062955
   7  :   -0.000072326    0.000007097   -0.000064401
   8  :   -0.000052416   -0.000061514   -0.000027569
   9  :   -0.000004664   -0.000085756    0.000020598
  10  :    0.000061610   -0.000051385    0.000067915
  11  :   -0.000000143    0.000000026   -0.000000218
  12  :   -0.000104615    0.000232487   -0.000156999
  13  :   -0.000111031    0.000093568   -0.000122497
  14  :    0.000069560    0.000149085    0.000017251
  15  :    0.000225235    0.000155738    0.000149732
  16  :    0.000142148    0.000214758    0.000060892
  17  :    0.000213444    0.000046816    0.000170986

  |G| =    0.000907050

Starting D4


------------------- 
Dispersion Gradient 
------------------- 
   1  :   -0.000094392    0.000083313   -0.000105041
   2  :   -0.000203193   -0.000060418   -0.000157972
   3  :   -0.000160358   -0.000238370   -0.000070058
   4  :   -0.000070037   -0.000308828    0.000028042
   5  :    0.000072790   -0.000223165    0.000126699
   6  :    0.000088528    0.000046747    0.000062954
   7  :   -0.000072336    0.000007085   -0.000064416
   8  :   -0.000052414   -0.000061525   -0.000027585
   9  :   -0.000004666   -0.000085741    0.000020575
  10  :    0.000061608   -0.000051404    0.000067898
  11  :   -0.000000143    0.000000026   -0.000000218
  12  :   -0.000104598    0.000232496   -0.000157053
  13  :   -0.000111084    0.000093575   -0.000122532
  14  :    0.000069578    0.000149089    0.000017277
  15  :    0.000225174    0.000155694    0.000149661
  16  :    0.000142075    0.000214659    0.000060815
  17  :    0.000213466    0.000046768    0.000170956

  |G| =    0.000907096

Starting D4


------------------- 
Dispersion Gradient 
------------------- 
   1  :   -0.000094569    0.000083335   -0.000105767
   2  :   -0.000203198   -0.000060418   -0.000157971
   3  :   -0.000160357   -0.000238371   -0.000070019
   4  :   -0.000070033   -0.000308904    0.000028139
   5  :    0.000072858   -0.000223284    0.000126836
   6  :    0.000088510    0.000046760    0.000062955
   7  :   -0.000072328    0.000007094   -0.000064395
   8  :   -0.000052414   -0.000061530   -0.000027551
   9  :   -0.000004665   -0.000085715    0.000020594
  10  :    0.000061607   -0.000051401    0.000067928
  11  :   -0.000000143    0.000000026   -0.000000218
  12  :   -0.000104642    0.000232548   -0.000157002
  13  :   -0.000111093    0.000093545   -0.000122551
  14  :    0.000069633    0.000149117    0.000017298
  15  :    0.000225273    0.000155721    0.000149788
  16  :    0.000142142    0.000214714    0.000060923
  17  :    0.000213420    0.000046764    0.000171014

  |G| =    0.000907332

Starting D4


------------------- 
Dispersion Gradient 
------------------- 
   1  :   -0.000094480    0.000083326   -0.000105402
   2  :   -0.000202987   -0.000060451   -0.000158006
   3  :   -0.000160365   -0.000238373   -0.000070042
   4  :   -0.000070082   -0.000308815    0.000028052
   5  :    0.000072724   -0.000223200    0.000126707
   6  :    0.000088403    0.000046722    0.000062880
   7  :   -0.000072277    0.000007066   -0.000064357
   8  :   -0.000052419   -0.000061537   -0.000027565
   9  :   -0.000004684   -0.000085725    0.000020583
  10  :    0.000061616   -0.000051410    0.000067934
  11  :   -0.000000143    0.000000026   -0.000000218
  12  :   -0.000104672    0.000232441   -0.000157032
  13  :   -0.000111092    0.000093560   -0.000122537
  14  :    0.000069583    0.000149091    0.000017283
  15  :    0.000225237    0.000155743    0.000149770
  16  :    0.000142145    0.000214751    0.000060912
  17  :    0.000213491    0.000046784    0.000171037

  |G| =    0.000907145

Starting D4


------------------- 
Dispersion Gradient 
------------------- 
   1  :   -0.000094482    0.000083321   -0.000105407
   2  :   -0.000203406   -0.000060384   -0.000157939
   3  :   -0.000160350   -0.000238368   -0.000070035
   4  :   -0.000069987   -0.000308917    0.000028128
   5  :    0.000072924   -0.000223250    0.000126828
   6  :    0.000088634    0.000046784    0.000063028
   7  :   -0.000072385    0.000007112   -0.000064453
   8  :   -0.000052408   -0.000061518   -0.000027571
   9  :   -0.000004647   -0.000085731    0.000020586
  10  :    0.000061599   -0.000051396    0.000067893
  11  :   -0.000000143    0.000000026   -0.000000218
  12  :   -0.000104569    0.000232602   -0.000157023
  13  :   -0.000111085    0.000093560   -0.000122547
  14  :    0.000069627    0.000149115    0.000017292
  15  :    0.000225210    0.000155672    0.000149679
  16  :    0.000142072    0.000214623    0.000060825
  17  :    0.000213395    0.000046748    0.000170934

  |G| =    0.000907283

Starting D4


------------------- 
Dispersion Gradient 
------------------- 
   1  :   -0.000094480    0.000083322   -0.000105404
   2  :   -0.000203228   -0.000059893   -0.000158076
   3  :   -0.000160358   -0.000238375   -0.000070038
   4  :   -0.000069989   -0.000308964    0.000028151
   5  :    0.000072849   -0.000223272    0.000126791
   6  :    0.000088493    0.000046725    0.000062934
   7  :   -0.000072358    0.000007107   -0.000064431
   8  :   -0.000052421   -0.000061553   -0.000027569
   9  :   -0.000004667   -0.000085744    0.000020583
  10  :    0.000061598   -0.000051414    0.000067904
  11  :   -0.000000143    0.000000026   -0.000000218
  12  :   -0.000104701    0.000232293   -0.000157037
  13  :   -0.000111079    0.000093523   -0.000122526
  14  :    0.000069590    0.000149073    0.000017280
  15  :    0.000225257    0.000155675    0.000149748
  16  :    0.000142177    0.000214715    0.000060909
  17  :    0.000213461    0.000046756    0.000170999

  |G| =    0.000907230

Starting D4


------------------- 
Dispersion Gradient 
------------------- 
   1  :   -0.000094482    0.000083326   -0.000105405
   2  :   -0.000203161   -0.000060940   -0.000157867
   3  :   -0.000160357   -0.000238366   -0.000070039
   4  :   -0.000070080   -0.000308768    0.000028029
   5  :    0.000072800   -0.000223178    0.000126744
   6  :    0.000088545    0.000046781    0.000062975
   7  :   -0.000072305    0.000007072   -0.000064380
   8  :   -0.000052407   -0.000061503   -0.000027568
   9  :   -0.000004665   -0.000085712    0.000020586
  10  :    0.000061617   -0.000051391    0.000067922
  11  :   -0.000000143    0.000000026   -0.000000218
  12  :   -0.000104541    0.000232749   -0.000157018
  13  :   -0.000111098    0.000093597   -0.000122558
  14  :    0.000069620    0.000149132    0.000017296
  15  :    0.000225191    0.000155740    0.000149701
  16  :    0.000142041    0.000214659    0.000060828
  17  :    0.000213425    0.000046776    0.000170972

  |G| =    0.000907196

Starting D4


------------------- 
Dispersion Gradient 
------------------- 
   1  :   -0.000094477    0.000083326   -0.000105405
   2  :   -0.000203230   -0.000060523   -0.000157712
   3  :   -0.000160361   -0.000238372   -0.000070044
   4  :   -0.000070071   -0.000308799    0.000028020
   5  :    0.000072764   -0.000223201    0.000126670
   6  :    0.000088443    0.000046728    0.000062877
   7  :   -0.000072282    0.000007066   -0.000064350
   8  :   -0.000052412   -0.000061530   -0.000027571
   9  :   -0.000004666   -0.000085726    0.000020566
  10  :    0.000061629   -0.000051409    0.000067920
  11  :   -0.000000143    0.000000026   -0.000000218
  12  :   -0.000104625    0.000232512   -0.000157049
  13  :   -0.000111086    0.000093568   -0.000122551
  14  :    0.000069602    0.000149098    0.000017274
  15  :    0.000225270    0.000155733    0.000149706
  16  :    0.000142151    0.000214724    0.000060860
  17  :    0.000213495    0.000046779    0.000171008

  |G| =    0.000907199

Starting D4


------------------- 
Dispersion Gradient 
------------------- 
   1  :   -0.000094484    0.000083322   -0.000105404
   2  :   -0.000203163   -0.000060313   -0.000158233
   3  :   -0.000160354   -0.000238369   -0.000070033
   4  :   -0.000069998   -0.000308932    0.000028161
   5  :    0.000072884   -0.000223249    0.000126865
   6  :    0.000088594    0.000046778    0.000063032
   7  :   -0.000072380    0.000007112   -0.000064460
   8  :   -0.000052416   -0.000061525   -0.000027565
   9  :   -0.000004665   -0.000085730    0.000020603
  10  :    0.000061586   -0.000051396    0.000067906
  11  :   -0.000000143    0.000000026   -0.000000218
  12  :   -0.000104615    0.000232532   -0.000157007
  13  :   -0.000111091    0.000093552   -0.000122533
  14  :    0.000069609    0.000149108    0.000017302
  15  :    0.000225178    0.000155682    0.000149743
  16  :    0.000142066    0.000214650    0.000060878
  17  :    0.000213392    0.000046753    0.000170962

  |G| =    0.000907228

Starting D4


------------------- 
Dispersion Gradient 
------------------- 
   1  :   -0.000094516    0.000083278   -0.000105405
   2  :   -0.000203203   -0.000060418   -0.000157975
   3  :   -0.000160127   -0.000238456   -0.000070023
   4  :   -0.000070039   -0.000308869    0.000028090
   5  :    0.000072711   -0.000223250    0.000126695
   6  :    0.000088429    0.000046700    0.000062923
   7  :   -0.000072338    0.000007101   -0.000064412
   8  :   -0.000052378   -0.000061503   -0.000027555
   9  :   -0.000004672   -0.000085719    0.000020579
  10  :    0.000061594   -0.000051401    0.000067915
  11  :   -0.000000143    0.000000026   -0.000000218
  12  :   -0.000104688    0.000232529   -0.000157024
  13  :   -0.000111105    0.000093561   -0.000122549
  14  :    0.000069609    0.000149117    0.000017291
  15  :    0.000225264    0.000155781    0.000149768
  16  :    0.000142123    0.000214725    0.000060882
  17  :    0.000213479    0.000046797    0.000171019

  |G| =    0.000907238

Starting D4


------------------- 
Dispersion Gradient 
------------------- 
   1  :   -0.000094446    0.000083369   -0.000105404
   2  :   -0.000203188   -0.000060418   -0.000157968
   3  :   -0.000160589   -0.000238286   -0.000070055
   4  :   -0.000070030   -0.000308863    0.000028090
   5  :    0.000072937   -0.000223201    0.000126840
   6  :    0.000088609    0.000046807    0.000062986
   7  :   -0.000072326    0.000007078   -0.000064400
   8  :   -0.000052448   -0.000061551   -0.000027580
   9  :   -0.000004659   -0.000085737    0.000020590
[...]
     30       0.000297  -0.000046  -0.000407  -0.000107  -0.000292  -0.000628
     31       0.000548  -0.000122  -0.001309  -0.000466  -0.000815  -0.001871
     32       0.000198  -0.000029   0.000217   0.000141   0.000030   0.000182
     33       0.004594  -0.013052   0.027979   0.013474   0.038209   0.040080
     34      -0.039342   0.067606   0.072415   0.015204   0.016220   0.031706
     35       0.015277  -0.030664   0.003353   0.007233   0.028274   0.025415
     36      -0.046211   0.141918  -0.104122   0.192069  -0.121429  -0.030119
     37      -0.186569   0.507594  -0.262950   0.519008  -0.418225  -0.144985
     38       0.013681  -0.023003  -0.014690   0.016845   0.015051   0.015377
     39       0.076795  -0.116924  -0.026981  -0.272049   0.069450  -0.092208
     40      -0.122766   0.202054   0.210770   0.448158  -0.013839   0.243143
     41       0.101329  -0.158747  -0.083571  -0.363258   0.063904  -0.149319
     42      -0.034823   0.063919  -0.149418  -0.089946   0.039044   0.022079
     43      -0.061086   0.103980  -0.194159  -0.029222   0.069627   0.032077
     44      -0.012581   0.025362  -0.073306  -0.069416   0.013690   0.009846
     45      -0.001145  -0.008680   0.021516   0.003259  -0.006401   0.001057
     46       0.042315  -0.086299   0.182701   0.027642  -0.073511  -0.019630
     47      -0.013150   0.017376  -0.034139  -0.005142   0.015602   0.006474
     48       0.053873  -0.044826   0.087417   0.069938  -0.026599  -0.023579
     49      -0.008039   0.011209  -0.023202  -0.021111   0.005077   0.005045
     50       0.048931  -0.042014   0.082263   0.066544  -0.024477  -0.021882
                 42         43         44         45         46         47    
      0       0.017271   0.033116   0.015282  -0.001540   0.000711   0.000803
      1      -0.155710  -0.187008  -0.325896  -0.002238   0.001352   0.001069
      2       0.059477   0.082127   0.106569  -0.000689   0.000224   0.000386
      3       0.000238   0.010422   0.031008   0.051972  -0.022949  -0.016179
      4      -0.122312   0.139564   0.247202  -0.021933   0.011700   0.011184
      5       0.035259  -0.030958  -0.044081   0.051111  -0.023147  -0.017161
      6      -0.045928   0.028015   0.052383  -0.024120  -0.021603  -0.046537
      7       0.178227  -0.105812  -0.184263  -0.022187  -0.027277  -0.048269
      8      -0.090712   0.054493   0.097918  -0.014450  -0.010819  -0.026319
      9      -0.008300   0.008303  -0.011152  -0.000274  -0.002124   0.004547
     10      -0.094743   0.040475   0.085575   0.015173   0.067104  -0.043004
     11       0.019994  -0.004437  -0.034240  -0.004588  -0.021078   0.016259
     12       0.042449  -0.030364  -0.030328   0.002260   0.007059  -0.008739
     13       0.170304  -0.093272  -0.255027  -0.001141  -0.005558   0.005750
     14      -0.012194   0.000562   0.046835   0.002275   0.007690  -0.009196
     15      -0.013725  -0.012298  -0.065502   0.000096   0.000240   0.000109
     16      -0.085652   0.089988   0.313979   0.000362  -0.000043  -0.000352
     17       0.012719  -0.036355  -0.146569  -0.000022   0.000221   0.000194
     18       0.063067  -0.103709  -0.159386  -0.597930   0.260541   0.184203
     19       0.003496  -0.136274  -0.232098   0.254221  -0.112032  -0.082089
     20       0.053435  -0.050662  -0.070802  -0.588501   0.256805   0.182386
     21       0.153000  -0.083547  -0.130010   0.280579   0.266567   0.514827
     22      -0.142100   0.068384   0.103758   0.287068   0.280084   0.530413
     23       0.172617  -0.091670  -0.141994   0.159834   0.149731   0.292260
     24       0.038215  -0.032667   0.032931   0.007421   0.032171  -0.023623
     25      -0.097613   0.035039   0.113053  -0.179184  -0.768245   0.482048
     26       0.060960  -0.038375  -0.003902   0.057733   0.248016  -0.158617
     27      -0.093111   0.028681   0.172826  -0.030058  -0.099553   0.114276
     28      -0.188773   0.072732   0.223271   0.012568   0.042308  -0.047920
     29      -0.026273   0.003504   0.085863  -0.029533  -0.098034   0.112340
     30       0.000046  -0.000010   0.000284  -0.000005   0.000004  -0.000015
     31       0.000406  -0.000032   0.001154  -0.000000   0.000015  -0.000031
     32      -0.000226   0.000051  -0.000453   0.000005   0.000001  -0.000002
     33      -0.013857  -0.021337  -0.002997   0.000381  -0.000095  -0.000109
     34       0.184073   0.151123   0.130083   0.000521  -0.000222  -0.000160
     35      -0.064705  -0.061735  -0.039849   0.000177  -0.000018  -0.000048
     36      -0.267384  -0.229697  -0.064828   0.001831   0.001058  -0.000027
     37      -0.489598  -0.416170  -0.031649   0.003390  -0.002412  -0.000992
     38      -0.090264  -0.078800  -0.046744   0.000610   0.001600   0.000257
     39       0.331160   0.333227   0.043375  -0.004916  -0.000708   0.000181
     40      -0.319136  -0.424412   0.079062  -0.003364  -0.002068  -0.000706
     41       0.377371   0.409408   0.014735  -0.003276  -0.000016   0.000366
     42       0.042845  -0.133038   0.205163  -0.000063   0.000182  -0.000132
     43      -0.068021   0.189649  -0.327661  -0.000324  -0.000040   0.000213
     44       0.056642  -0.169707   0.271783   0.000039   0.000169  -0.000176
     45      -0.000322   0.005970  -0.018598  -0.000012  -0.000002   0.000018
     46       0.040933  -0.101490   0.147582   0.000125  -0.000014  -0.000063
     47      -0.012069   0.034429  -0.058542  -0.000046   0.000002   0.000033
     48      -0.033230   0.106787  -0.145555   0.000034  -0.000033  -0.000023
     49       0.017663  -0.059271   0.098142   0.000092   0.000180  -0.000202
     50      -0.033800   0.109406  -0.154068   0.000004  -0.000080   0.000039
                 48         49         50    
      0      -0.000310   0.000093  -0.000438
      1       0.000112  -0.000767  -0.002046
      2      -0.000300   0.000298   0.000206
      3      -0.001813   0.001248   0.000206
      4       0.001238   0.002663  -0.000010
      5      -0.001920   0.000314   0.000179
      6      -0.003865   0.000271   0.000099
      7      -0.003078  -0.001463   0.000033
      8      -0.002459   0.000655   0.000075
      9      -0.001716  -0.000891  -0.000071
     10      -0.020017   0.000383  -0.000164
     11       0.004254  -0.000879  -0.000016
     12       0.058765   0.000245  -0.000141
     13      -0.024255   0.000763   0.000237
     14       0.057655  -0.000009  -0.000189
     15       0.000071  -0.001690   0.000358
     16       0.003909  -0.000848  -0.000694
     17      -0.001063  -0.001215   0.000509
     18       0.019353  -0.003912  -0.001056
     19      -0.008644  -0.000073   0.001891
     20       0.019164  -0.003362  -0.001461
     21       0.035419   0.002221  -0.000136
     22       0.035678   0.002249   0.000030
     23       0.020335   0.001290  -0.000127
     24      -0.006619  -0.000113  -0.000120
     25       0.204667  -0.002812   0.000304
     26      -0.064383   0.000704  -0.000194
     27      -0.667645   0.000973   0.000934
     28       0.266465   0.000476   0.000309
     29      -0.652350   0.000699   0.000711
     30       0.000031  -0.000007   0.000004
     31       0.000041  -0.000007   0.000044
     32       0.000011   0.000001  -0.000019
     33      -0.000075  -0.023584  -0.062089
     34      -0.000115  -0.055009   0.002324
     35      -0.000028  -0.004542  -0.054191
     36       0.000308  -0.250837   0.645323
     37      -0.000410   0.115449  -0.246449
     38       0.000387  -0.249355   0.627060
     39       0.001147   0.584578   0.219405
     40       0.001578   0.643625   0.246220
     41       0.000538   0.319198   0.118499
     42       0.000926   0.001453   0.000105
     43      -0.000621   0.004290   0.000988
     44       0.000980   0.000020  -0.000193
     45      -0.000153  -0.001096  -0.000341
     46      -0.000099  -0.003037  -0.000751
     47      -0.000101  -0.000073  -0.000077
     48      -0.000042   0.000041   0.000139
     49       0.000880  -0.000922  -0.000311
     50      -0.000289   0.000300   0.000211


-----------
IR SPECTRUM
-----------

 Mode   freq       eps      Int      T**2         TX        TY        TZ
       cm**-1   L/(mol*cm) km/mol    a.u.
----------------------------------------------------------------------------
  7:     21.05   0.087723  443.31  1.300231  (-0.295515  1.002717  0.455478)
  8:     35.44   0.102006  515.49  0.898275  (-0.707732 -0.559997  0.289471)
  9:    105.47   0.001577    7.97  0.004665  ( 0.037147 -0.047747 -0.031713)
 10:    159.21   0.001224    6.19  0.002400  (-0.041105  0.009871  0.024751)
 11:    253.01   0.000330    1.67  0.000407  ( 0.015113 -0.001378 -0.013274)
 12:    313.40   0.000489    2.47  0.000487  (-0.005602  0.018848 -0.010037)
 13:    391.87   0.000230    1.16  0.000183  ( 0.009954 -0.002053  0.008942)
 14:    415.78   0.000888    4.49  0.000666  (-0.016959  0.009707 -0.016863)
 15:    443.47   0.005658   28.59  0.003981  (-0.040653  0.014682  0.045968)
 16:    481.15   0.025364  128.18  0.016450  ( 0.082028 -0.028420 -0.094415)
 17:    557.52   0.000686    3.47  0.000384  (-0.013059 -0.012041 -0.008272)
 18:    568.52   0.003221   16.28  0.001768  ( 0.026500 -0.008755 -0.031447)
 19:    573.73   0.000358    1.81  0.000195  ( 0.008406 -0.006794  0.008820)
 20:    687.09   0.000827    4.18  0.000376  ( 0.012137  0.013473  0.006844)
 21:    719.90   0.010411   52.61  0.004513  (-0.042575  0.014111  0.050010)
 22:    744.84   0.000096    0.49  0.000040  ( 0.003887 -0.001855 -0.004661)
 23:    781.58   0.008863   44.79  0.003539  (-0.037843  0.012792  0.044080)
 24:    801.71   0.000339    1.71  0.000132  (-0.007385  0.002034  0.008567)
 25:    847.97   0.000678    3.43  0.000250  ( 0.011812  0.006413  0.008303)
 26:    883.46   0.000562    2.84  0.000198  ( 0.009105 -0.003160 -0.010274)
 27:    898.05   0.007773   39.28  0.002701  (-0.034497 -0.033066 -0.020434)
 28:   1008.58   0.000161    0.82  0.000050  (-0.004397  0.001154  0.005412)
 29:   1032.57   0.000030    0.15  0.000009  (-0.001844  0.000827  0.002232)
 30:   1040.74   0.004548   22.98  0.001364  ( 0.020305 -0.020227  0.023284)
 31:   1058.21   0.005154   26.05  0.001520  ( 0.027212  0.022019  0.017161)
 32:   1101.84   0.009937   50.22  0.002814  ( 0.040619  0.014818  0.030740)
 33:   1162.12   0.001615    8.16  0.000434  (-0.007395  0.016004 -0.011079)
 34:   1173.56   0.005041   25.47  0.001340  ( 0.024696 -0.011390  0.024511)
 35:   1296.58   0.008466   42.78  0.002038  ( 0.034564  0.003417  0.028830)
 36:   1323.50   0.026172  132.26  0.006171  (-0.060004 -0.022646 -0.045362)
 37:   1385.99   0.010215   51.62  0.002300  ( 0.026325  0.038338  0.011711)
 38:   1421.90   0.035196  177.87  0.007724  (-0.057579 -0.057549 -0.033124)
 39:   1523.33   0.023246  117.47  0.004762  (-0.052184 -0.024306 -0.038055)
 40:   1532.67   0.003755   18.98  0.000765  (-0.008675  0.022294 -0.013868)
 41:   1590.75   0.007649   38.66  0.001501  (-0.028868 -0.015885 -0.020369)
 42:   1630.32   0.047235  238.71  0.009041  ( 0.038655 -0.068753  0.053106)
 43:   1703.26   0.011942   60.35  0.002188  (-0.021096 -0.041237 -0.006510)
 44:   1743.64   0.083282  420.87  0.014905  ( 0.033601 -0.101855  0.058324)
 45:   3198.31   0.000639    3.23  0.000062  ( 0.001585 -0.006953  0.003387)
 46:   3210.94   0.001071    5.41  0.000104  (-0.006078  0.004837 -0.006615)
 47:   3224.79   0.000823    4.16  0.000080  (-0.004824 -0.007212 -0.002093)
 48:   3242.84   0.000843    4.26  0.000081  (-0.006893 -0.002611 -0.005177)
 49:   3438.43   0.028358  143.31  0.002574  ( 0.021843  0.045418  0.005813)
 50:   3639.00   0.019202   97.04  0.001647  ( 0.029422 -0.006447  0.027193)

* The epsilon (eps) is given for a Dirac delta lineshape.
** The dipole moment derivative (T) already includes vibrational overlap.

The first frequency considered to be a vibration is 7
The total number of vibrations considered is 44


--------------------------
THERMOCHEMISTRY AT 298.15K
--------------------------

Temperature         ... 298.15 K
Pressure            ... 1.00 atm
Total Mass          ... 139.13 AMU

Throughout the following assumptions are being made:
  (1) The electronic state is orbitally nondegenerate
  (2) There are no thermally accessible electronically excited states
  (3) Hindered rotations indicated by low frequency modes are not
      treated as such but are treated as vibrations and this may
      cause some error
  (4) All equations used are the standard statistical mechanics
      equations for an ideal gas
  (5) All vibrations are strictly harmonic

freq.      21.05  E(vib)   ...       0.56 
freq.      35.44  E(vib)   ...       0.54 
freq.     105.47  E(vib)   ...       0.45 
freq.     159.21  E(vib)   ...       0.39 
freq.     253.01  E(vib)   ...       0.30 
freq.     313.40  E(vib)   ...       0.25 
freq.     391.87  E(vib)   ...       0.20 
freq.     415.78  E(vib)   ...       0.18 
freq.     443.47  E(vib)   ...       0.17 
freq.     481.15  E(vib)   ...       0.15 
freq.     557.52  E(vib)   ...       0.12 
freq.     568.52  E(vib)   ...       0.11 
freq.     573.73  E(vib)   ...       0.11 
freq.     687.09  E(vib)   ...       0.07 
freq.     719.90  E(vib)   ...       0.07 
freq.     744.84  E(vib)   ...       0.06 
freq.     781.58  E(vib)   ...       0.05 
freq.     801.71  E(vib)   ...       0.05 
freq.     847.97  E(vib)   ...       0.04 
freq.     883.46  E(vib)   ...       0.04 
freq.     898.05  E(vib)   ...       0.03 
freq.    1008.58  E(vib)   ...       0.02 
freq.    1032.57  E(vib)   ...       0.02 
freq.    1040.74  E(vib)   ...       0.02 
freq.    1058.21  E(vib)   ...       0.02 
freq.    1101.84  E(vib)   ...       0.02 
freq.    1162.12  E(vib)   ...       0.01 
freq.    1173.56  E(vib)   ...       0.01 
freq.    1296.58  E(vib)   ...       0.01 
freq.    1323.50  E(vib)   ...       0.01 
freq.    1385.99  E(vib)   ...       0.00 
freq.    1421.90  E(vib)   ...       0.00 
freq.    1523.33  E(vib)   ...       0.00 
freq.    1532.67  E(vib)   ...       0.00 
freq.    1590.75  E(vib)   ...       0.00 
freq.    1630.32  E(vib)   ...       0.00 
freq.    1703.26  E(vib)   ...       0.00 
freq.    1743.64  E(vib)   ...       0.00 
freq.    3198.31  E(vib)   ...       0.00 
freq.    3210.94  E(vib)   ...       0.00 
freq.    3224.79  E(vib)   ...       0.00 
freq.    3242.84  E(vib)   ...       0.00 
freq.    3438.43  E(vib)   ...       0.00 
freq.    3639.00  E(vib)   ...       0.00 

------------
INNER ENERGY
------------

The inner energy is: U= E(el) + E(ZPE) + E(vib) + E(rot) + E(trans)
    E(el)   - is the total energy from the electronic structure calculation
              = E(kin-el) + E(nuc-el) + E(el-el) + E(nuc-nuc)
    E(ZPE)  - the the zero temperature vibrational energy from the frequency calculation
    E(vib)  - the the finite temperature correction to E(ZPE) due to population
              of excited vibrational states
    E(rot)  - is the rotational thermal energy
    E(trans)- is the translational thermal energy

Summary of contributions to the inner energy U:
Electronic energy                ...   -491.53870533 Eh
Zero point energy                ...      0.12158140 Eh      76.29 kcal/mol
Thermal vibrational correction   ...      0.00656320 Eh       4.12 kcal/mol
Thermal rotational correction    ...      0.00141627 Eh       0.89 kcal/mol
Thermal translational correction ...      0.00141627 Eh       0.89 kcal/mol
-----------------------------------------------------------------------
Total thermal energy                   -491.40772819 Eh


Summary of corrections to the electronic energy:
(perhaps to be used in another calculation)
Total thermal correction                  0.00939574 Eh       5.90 kcal/mol
Non-thermal (ZPE) correction              0.12158140 Eh      76.29 kcal/mol
-----------------------------------------------------------------------
Total correction                          0.13097714 Eh      82.19 kcal/mol


--------
ENTHALPY
--------

The enthalpy is H = U + kB*T
                kB is Boltzmann's constant
Total free energy                 ...   -491.40772819 Eh 
Thermal Enthalpy correction       ...      0.00094421 Eh       0.59 kcal/mol
-----------------------------------------------------------------------
Total Enthalpy                    ...   -491.40678398 Eh


Note: Only C1 symmetry has been detected, increase convergence thresholds 
      if your molecule has a higher symmetry. Symmetry factor of 1.0 is   
      used for the rotational entropy correction. 
 

Note: Rotational entropy computed according to Herzberg 
Infrared and Raman Spectra, Chapter V,1, Van Nostrand Reinhold, 1945 
Point Group:  C1, Symmetry Number:   1  
Rotational constants in cm-1:     0.050365     0.023232     0.016225 

Vibrational entropy computed according to the QRRHO of S. Grimme
Chem.Eur.J. 2012 18 9955


-------
ENTROPY
-------

The entropy contributions are T*S = T*(S(el)+S(vib)+S(rot)+S(trans))
     S(el)   - electronic entropy
     S(vib)  - vibrational entropy
     S(rot)  - rotational entropy
     S(trans)- translational entropy
The entropies will be listed as multiplied by the temperature to get
units of energy

Electronic entropy                ...      0.00000000 Eh      0.00 kcal/mol
Vibrational entropy               ...      0.01157256 Eh      7.26 kcal/mol
Rotational entropy                ...      0.01464333 Eh      9.19 kcal/mol
Translational entropy             ...      0.01933899 Eh     12.14 kcal/mol
-----------------------------------------------------------------------
Final entropy term                ...      0.04555488 Eh     28.59 kcal/mol

In case the symmetry of your molecule has not been determined correctly
or in case you have a reason to use a different symmetry number we print 
out the resulting rotational entropy values for sn=1,12 :
 --------------------------------------------------------
|  sn= 1 | S(rot)=       0.01464333 Eh      9.19 kcal/mol|
|  sn= 2 | S(rot)=       0.01398887 Eh      8.78 kcal/mol|
|  sn= 3 | S(rot)=       0.01360604 Eh      8.54 kcal/mol|
|  sn= 4 | S(rot)=       0.01333442 Eh      8.37 kcal/mol|
|  sn= 5 | S(rot)=       0.01312373 Eh      8.24 kcal/mol|
|  sn= 6 | S(rot)=       0.01295158 Eh      8.13 kcal/mol|
|  sn= 7 | S(rot)=       0.01280604 Eh      8.04 kcal/mol|
|  sn= 8 | S(rot)=       0.01267996 Eh      7.96 kcal/mol|
|  sn= 9 | S(rot)=       0.01256875 Eh      7.89 kcal/mol|
|  sn=10 | S(rot)=       0.01246927 Eh      7.82 kcal/mol|
|  sn=11 | S(rot)=       0.01237928 Eh      7.77 kcal/mol|
|  sn=12 | S(rot)=       0.01229713 Eh      7.72 kcal/mol|
 --------------------------------------------------------


-------------------
GIBBS FREE ENERGY
-------------------

The Gibbs free energy is G = H - T*S

Total enthalpy                    ...   -491.40678398 Eh 
Total entropy correction          ...     -0.04555488 Eh    -28.59 kcal/mol
-----------------------------------------------------------------------
Final Gibbs free energy         ...   -491.45233886 Eh

For completeness - the Gibbs free energy minus the electronic energy
G-E(el)                           ...      0.08636647 Eh     54.20 kcal/mol


Timings for individual modules:

Sum of individual times         ...      736.786 sec (=  12.280 min)
GTO integral calculation        ...        4.809 sec (=   0.080 min)   0.7 %
SCF iterations                  ...      175.918 sec (=   2.932 min)  23.9 %
Analytical frequency calculation...      556.059 sec (=   9.268 min)  75.5 %
                             ****ORCA TERMINATED NORMALLY****
TOTAL RUN TIME: 0 days 0 hours 12 minutes 20 seconds 411 msec
