
                                 *****************
                                 * O   R   C   A *
                                 *****************

           --- An Ab Initio, DFT and Semiempirical electronic structure package ---

                  #######################################################
                  #                        -***-                        #
                  #          Department of theory and spectroscopy      #
                  #               Directorship: Frank Neese             #
                  #        Max Planck Institute fuer Kohlenforschung    #
                  #                Kaiser Wilhelm Platz 1               #
                  #                 D-45470 Muelheim/Ruhr               #
                  #                      Germany                        #
                  #                                                     #
                  #                  All rights reserved                #
                  #                        -***-                        #
                  #######################################################


                         Program Version 4.2.1 -  RELEASE  -


 With contributions from (in alphabetic order):
   Daniel Aravena         : Magnetic Suceptibility
   Michael Atanasov       : Ab Initio Ligand Field Theory (pilot matlab implementation)
   Alexander A. Auer      : GIAO ZORA, VPT2
   Ute Becker             : Parallelization
   Giovanni Bistoni       : ED, misc. LED, open-shell LED, HFLD
   Martin Brehm           : Molecular dynamics
   Dmytro Bykov           : SCF Hessian
   Vijay G. Chilkuri      : MRCI spin determinant printing, contributions to CSF-ICE
   Dipayan Datta          : RHF DLPNO-CCSD density
   Achintya Kumar Dutta   : EOM-CC, STEOM-CC
   Dmitry Ganyushin       : Spin-Orbit,Spin-Spin,Magnetic field MRCI
   Miquel Garcia          : C-PCM Hessian, Gaussian charge scheme
   Yang Guo               : DLPNO-NEVPT2, CIM, IAO-localization
   Andreas Hansen         : Spin unrestricted coupled pair/coupled cluster methods
   Benjamin Helmich-Paris : CASSCF linear response (MC-RPA)
   Lee Huntington         : MR-EOM, pCC
   Robert Izsak           : Overlap fitted RIJCOSX, COSX-SCS-MP3, EOM
   Christian Kollmar      : KDIIS, OOCD, Brueckner-CCSD(T), CCSD density
   Simone Kossmann        : Meta GGA functionals, TD-DFT gradient, OOMP2, MP2 Hessian
   Martin Krupicka        : AUTO-CI
   Lucas Lang             : DCDCAS
   Dagmar Lenk            : GEPOL surface, SMD
   Dimitrios Liakos       : Extrapolation schemes; Compound Job, initial MDCI parallelization
   Dimitrios Manganas     : Further ROCIS development; embedding schemes
   Dimitrios Pantazis     : SARC Basis sets
   Taras Petrenko         : DFT Hessian,TD-DFT gradient, ASA, ECA, R-Raman, ABS, FL, XAS/XES, NRVS
   Peter Pinski           : DLPNO-MP2, DLPNO-MP2 Gradient
   Christoph Reimann      : Effective Core Potentials
   Marius Retegan         : Local ZFS, SOC
   Christoph Riplinger    : Optimizer, TS searches, QM/MM, DLPNO-CCSD(T), (RO)-DLPNO pert. Triples
   Tobias Risthaus        : Range-separated hybrids, TD-DFT gradient, RPA, STAB
   Michael Roemelt        : Original ROCIS implementation
   Masaaki Saitow         : Open-shell DLPNO-CCSD energy and density
   Barbara Sandhoefer     : DKH picture change effects
   Avijit Sen             : IP-ROCIS
   Kantharuban Sivalingam : CASSCF convergence, NEVPT2, FIC-MRCI
   Bernardo de Souza      : ESD, SOC TD-DFT
   Georgi Stoychev        : AutoAux, RI-MP2 NMR
   Willem Van den Heuvel  : Paramagnetic NMR
   Boris Wezisla          : Elementary symmetry handling
   Frank Wennmohs         : Technical directorship


 We gratefully acknowledge several colleagues who have allowed us to
 interface, adapt or use parts of their codes:
   Stefan Grimme, W. Hujo, H. Kruse,             : VdW corrections, initial TS optimization,
                  C. Bannwarth                     DFT functionals, gCP, sTDA/sTD-DF
   Ed Valeev, F. Pavosevic, A. Kumar             : LibInt (2-el integral package), F12 methods
   Garnet Chan, S. Sharma, J. Yang, R. Olivares  : DMRG
   Ulf Ekstrom                                   : XCFun DFT Library
   Mihaly Kallay                                 : mrcc  (arbitrary order and MRCC methods)
   Andreas Klamt, Michael Diedenhofen            : otool_cosmo (COSMO solvation model)
   Jiri Pittner, Ondrej Demel                    : Mk-CCSD
   Frank Weinhold                                : gennbo (NPA and NBO analysis)
   Christopher J. Cramer and Donald G. Truhlar   : smd solvation model
   Lars Goerigk                                  : TD-DFT with DH, B97 family of functionals
   V. Asgeirsson, H. Jonsson                     : NEB implementation
   FAccTs GmbH                                   : IRC, NEB, NEB-TS, Multilevel, MM, QM/MM, CI optimization
   S Lehtola, MJT Oliveira, MAL Marques          : LibXC Library


 Your calculation uses the libint2 library for the computation of 2-el integrals
 For citations please refer to: http://libint.valeyev.net

 Your ORCA version has been built with support for libXC version: 4.2.3
 For citations please refer to: https://tddft.org/programs/libxc/

 This ORCA versions uses:
   CBLAS   interface :  Fast vector & matrix operations
   LAPACKE interface :  Fast linear algebra routines


----- Orbital basis set information -----
Your calculation utilizes the basis: def2-SVP
   F. Weigend and R. Ahlrichs, Phys. Chem. Chem. Phys. 7, 3297 (2005).

================================================================================
                                        WARNINGS
                       Please study these warnings very carefully!
================================================================================


WARNING: Gradients are needed
  ===> : At least TightSCF should be used for SCF convergence

WARNING: Geometry Optimization
  ===> : Switching off AutoStart
         For restart on a previous wavefunction, please use MOREAD

INFO   : the flag for use of LIBINT has been found!

================================================================================
                                       INPUT FILE
================================================================================
NAME = meta_products_optfreq.inp
|  1> !B3LYP DEF2-SVP OPT TIGHTSCF FREQ
|  2> 
|  3> %scf
|  4> maxIter 500
|  5> Convergence loose
|  6> end
|  7> 
|  8> %geom
|  9> maxIter 500
| 10> end
| 11> 
| 12> * xyz 1 1
| 13>    C       -4.03509        2.51180       -0.55514
| 14>    C       -4.77000        2.02965       -1.64029
| 15>    C       -4.49367        0.77149       -2.18320
| 16>    C       -3.47487       -0.00554       -1.62492
| 17>    C       -2.74214        0.47083       -0.53695
| 18>    C       -3.02295        1.72728        0.00045
| 19>    C       -4.36577        3.87817        0.04488
| 20>    H       -3.24371       -0.98447       -2.03032
| 21>    H       -5.55404        2.64675       -2.06457
| 22>    H       -4.07775        3.90721        1.10620
| 23>    H       -5.44544        4.07300       -0.03675
| 24>    H       -3.81370        4.65625       -0.50267
| 25>    H       -2.44723        2.09392        0.84317
| 26>    H       -1.95284       -0.13692       -0.10813
| 27>    N       -5.20347        0.31135       -3.23556
| 28>    O       -4.98693       -0.67912       -3.66416
| 29>    O       -6.00679        0.92121       -3.67641
| 30>    H       -9.13448       -1.06040        3.05524
| 31> **                         ****END OF INPUT****
================================================================================

                       *****************************
                       * Geometry Optimization Run *
                       *****************************

Geometry optimization settings:
Update method            Update   .... BFGS
Choice of coordinates    CoordSys .... Z-matrix Internals
Initial Hessian          InHess   .... Almoef's Model

Convergence Tolerances:
Energy Change            TolE     ....  5.0000e-06 Eh
Max. Gradient            TolMAXG  ....  3.0000e-04 Eh/bohr
RMS Gradient             TolRMSG  ....  1.0000e-04 Eh/bohr
Max. Displacement        TolMAXD  ....  4.0000e-03 bohr
RMS Displacement         TolRMSD  ....  2.0000e-03 bohr
Strict Convergence                ....  False
------------------------------------------------------------------------------
                        ORCA OPTIMIZATION COORDINATE SETUP
------------------------------------------------------------------------------

The optimization will be done in new redundant internal coordinates
Making redundant internal coordinates   ...  (new redundants) done
Evaluating the initial hessian          ...  (Almloef) done
Evaluating the coordinates              ...  done
Calculating the B-matrix                .... done
Calculating the G-matrix                .... done
Diagonalizing the G-matrix              .... done
The first mode is                       ....  752
The number of degrees of freedom        ....   48

    -----------------------------------------------------------------
                    Redundant Internal Coordinates


    -----------------------------------------------------------------
         Definition                    Initial Value    Approx d2E/dq
    -----------------------------------------------------------------
      1. B(C   1,C   0)                  1.3965         0.610134   
      2. B(C   2,C   1)                  1.3979         0.606963   
      3. B(C   3,C   2)                  1.3976         0.607498   
      4. B(C   4,C   3)                  1.3955         0.612235   
      5. B(C   5,C   4)                  1.3951         0.613187   
      6. B(C   5,C   0)                  1.3959         0.611366   
      7. B(C   6,C   0)                  1.5285         0.375626   
      8. B(H   7,C   3)                  1.0845         0.367482   
      9. B(H   8,C   1)                  1.0842         0.367821   
     10. B(H   9,C   6)                  1.1001         0.346996   
     11. B(H  10,C   6)                  1.1001         0.346932   
     12. B(H  11,C   6)                  1.1000         0.347111   
     13. B(H  12,C   5)                  1.0845         0.367503   
     14. B(H  13,C   4)                  1.0845         0.367387   
     15. B(N  14,C   2)                  1.3502         0.647730   
     16. B(O  15,N  14)                  1.1007         1.450493   
     17. B(O  16,O  15)                  1.8977         0.077622   
     18. B(O  16,N  14)                  1.1007         1.450535   
     19. B(H  17,H  12)                  7.7177         0.000000   
     20. B(H  17,H  10)                  7.0371         0.000000   
     21. B(H  17,H   9)                  7.3516         0.000000   
     22. B(H  17,H   7)                  7.7827         0.000000   
     23. B(H  17,C   6)                  7.4962         0.000000   
     24. B(H  17,C   5)                  7.3793         0.000000   
     25. B(H  17,C   4)                  7.4907         0.000000   
     26. B(H  17,H   8)                  7.2646         0.000000   
     27. B(H  17,C   3)                  7.4194         0.000000   
     28. B(H  17,C   2)                  7.2342         0.000000   
     29. B(H  17,C   1)                  7.1165         0.000000   
     30. B(H  17,H  13)                  7.9016         0.000000   
     31. B(H  17,C   0)                  7.1972         0.000000   
     32. B(H  17,O  16)                  7.6827         0.000000   
     33. B(H  17,O  15)                  7.9056         0.000000   
     34. B(H  17,N  14)                  7.5438         0.000000   
     35. A(C   1,C   0,C   6)          119.9886         0.395949   
     36. A(C   1,C   0,C   5)          119.7898         0.431726   
     37. A(C   1,C   0,H  17)           81.1162         0.090639   
     38. A(C   5,C   0,H  17)           92.0132         0.090640   
     39. A(C   5,C   0,C   6)          120.1999         0.396089   
     40. A(C   6,C   0,H  17)           95.3639         0.090468   
     41. A(C   2,C   1,H  17)           89.2369         0.090750   
     42. A(H   8,C   1,H  17)           93.5455         0.090352   
     43. A(C   0,C   1,H   8)          119.2179         0.353218   
     44. A(C   0,C   1,H  17)           87.7049         0.090752   
     45. A(C   0,C   1,C   2)          120.5655         0.431166   
     46. A(C   2,C   1,H   8)          120.2145         0.352907   
     47. A(N  14,C   2,H  17)           98.0970         0.090597   
     48. A(C   3,C   2,N  14)          120.3362         0.433043   
     49. A(C   1,C   2,C   3)          119.2977         0.430831   
     50. A(C   3,C   2,H  17)           92.1545         0.090588   
     51. A(C   1,C   2,N  14)          120.3661         0.432974   
     52. A(C   1,C   2,H  17)           79.6227         0.090587   
     53. A(H   7,C   3,H  17)          105.6680         0.090051   
     54. A(C   2,C   3,C   4)          120.2894         0.431500   
     55. A(C   4,C   3,H  17)           87.5511         0.090363   
     56. A(C   4,C   3,H   7)          119.1862         0.353369   
     57. A(C   2,C   3,H   7)          120.5244         0.352904   
     58. A(C   2,C   3,H  17)           76.9952         0.090361   
     59. A(H  13,C   4,H  17)          108.4753         0.089990   
     60. A(C   3,C   4,C   5)          120.1359         0.432224   
     61. A(C   5,C   4,H  13)          119.9246         0.353446   
     62. A(C   3,C   4,H  17)           81.7218         0.090285   
     63. A(C   3,C   4,H  13)          119.9395         0.353353   
     64. A(C   5,C   4,H  17)           80.0730         0.090285   
     65. A(C   0,C   5,H  12)          120.2789         0.353287   
     66. A(H  12,C   5,H  17)          104.2236         0.090086   
     67. A(C   0,C   5,H  17)           77.0894         0.090409   
     68. A(C   4,C   5,H  17)           89.1943         0.090410   
     69. A(C   0,C   5,C   4)          119.9195         0.432113   
     70. A(C   4,C   5,H  12)          119.7993         0.353465   
     71. A(H   9,C   6,H  17)           78.2590         0.089973   
     72. A(C   0,C   6,H   9)          110.2229         0.322642   
     73. A(C   0,C   6,H  10)          109.9682         0.322632   
     74. A(H   9,C   6,H  10)          108.8961         0.287473   
     75. A(H  10,C   6,H  17)           61.4552         0.089973   
     76. A(C   0,C   6,H  17)           72.9229         0.090145   
     77. A(H   9,C   6,H  11)          109.2783         0.287496   
     78. A(H  10,C   6,H  11)          109.2895         0.287487   
     79. A(H  11,C   6,H  17)          170.1242         0.089973   
     80. A(C   0,C   6,H  11)          109.1676         0.322660   
     81. A(C   3,H   7,H  17)           66.6215         0.089427   
     82. A(C   1,H   8,H  17)           77.8878         0.089657   
     83. A(C   6,H   9,H  17)           93.3164         0.089603   
     84. A(C   6,H  10,H  17)          110.6515         0.089784   
     85. A(C   5,H  12,H  17)           67.9479         0.089451   
     86. A(C   4,H  13,H  17)           64.0446         0.089387   
     87. A(C   2,N  14,O  15)          120.4460         0.501014   
     88. A(C   2,N  14,O  16)          120.4647         0.501017   
     89. A(O  15,N  14,O  16)          119.0893         0.579344   
     90. A(O  16,N  14,H  17)           93.1205         0.090417   
     91. A(O  15,N  14,H  17)          105.2832         0.090417   
     92. A(C   2,N  14,H  17)           71.6966         0.090191   
     93. A(N  14,O  15,O  16)           30.4552         0.341757   
     94. A(N  14,O  15,H  17)           66.9980         0.090049   
     95. A(O  16,O  15,H  17)           76.3618         0.089541   
     96. A(N  14,O  16,O  15)           30.4555         0.341759   
     97. A(N  14,O  16,H  17)           78.6545         0.090262   
     98. A(O  15,O  16,H  17)           89.7489         0.089651   
     99. A(C   2,H  17,H  13)           25.5054         0.089002   
    100. A(C   0,H  17,H  13)           25.4710         0.089002   
    101. A(C   4,H  17,C   5)           10.7327         0.089005   
    102. A(C   3,H  17,C   5)           18.8085         0.089006   
    103. A(H   9,H  17,H  12)           18.5284         0.089001   
    104. A(H   8,H  17,H  12)           33.1100         0.089001   
    105. A(C   2,H  17,C   5)           22.0708         0.089007   
    106. A(C   1,H  17,C   5)           19.0743         0.089007   
    107. A(C   4,H  17,H  12)           16.1710         0.089002   
    108. A(C   0,H  17,C   5)           10.8974         0.089007   
    109. A(C   3,H  17,H  12)           25.8582         0.089002   
    110. A(C   2,H  17,H  12)           29.8993         0.089003   
    111. A(C   1,H  17,H  12)           26.1052         0.089003   
    112. A(C   0,H  17,H  12)           16.1431         0.089003   
    113. A(H   9,H  17,H  10)           14.0731         0.089002   
    114. A(H   7,H  17,H  10)           46.2890         0.089002   
    115. A(C   3,H  17,C   4)           10.7271         0.089005   
    116. A(C   2,H  17,C   4)           18.8336         0.089006   
    117. A(C   4,H  17,H  10)           36.1784         0.089004   
    118. A(C   3,H  17,H  10)           38.6699         0.089004   
    119. A(C   1,H  17,C   4)           21.7927         0.089007   
    120. A(C   0,H  17,C   4)           18.7983         0.089006   
    121. A(C   0,H  17,H  10)           17.4648         0.089005   
    122. A(H   8,H  17,H   9)           29.4636         0.089002   
    123. A(H   7,H  17,H   9)           45.5358         0.089001   
    124. A(C   6,H  17,H   9)            8.4246         0.089003   
    125. A(C   5,H  17,H   9)           20.8227         0.089003   
    126. A(C   4,H  17,H   9)           31.5431         0.089003   
    127. A(C   3,H  17,H   9)           38.0014         0.089003   
    128. A(C   2,H  17,C   3)           10.8503         0.089006   
    129. A(C   2,H  17,H   9)           36.4538         0.089004   
    130. A(O  15,H  17,O  16)           13.8892         0.089003   
    131. A(C   1,H  17,H   9)           27.1056         0.089004   
    132. A(C   1,H  17,C   3)           18.9575         0.089007   
    133. A(C   0,H  17,H   9)           17.1131         0.089004   
    134. A(H  10,H  17,O  16)           38.1350         0.089003   
    135. A(C   1,H  17,H  10)           21.8518         0.089005   
    136. A(C   2,H  17,H  10)           32.9465         0.089005   
    137. A(C   0,H  17,C   3)           21.9560         0.089007   
    138. A(H   7,H  17,H   8)           33.0127         0.089001   
    139. A(C   5,H  17,H  10)           26.9213         0.089004   
    140. A(C   6,H  17,H  10)            7.8934         0.089004   
    141. A(H   7,H  17,O  16)           27.9676         0.089002   
    142. A(H   8,H  17,H  10)           19.9018         0.089003   
    143. A(C   6,H  17,O  16)           38.6676         0.089004   
    144. A(C   6,H  17,H   8)           21.1325         0.089003   
    145. A(C   5,H  17,H   8)           26.7840         0.089004   
    146. A(C   2,H  17,O  16)           16.0643         0.089005   
    147. A(C   4,H  17,H   8)           30.3591         0.089003   
    148. A(C   0,H  17,O  16)           31.1291         0.089005   
    149. A(C   3,H  17,H   8)           26.7384         0.089003   
    150. A(C   5,H  17,H  12)            7.8285         0.089002   
    151. A(C   6,H  17,H  12)           20.6763         0.089002   
    152. A(H   7,H  17,H  12)           32.0988         0.089001   
    153. A(C   2,H  17,H   8)           17.1141         0.089004   
    154. A(C   1,H  17,H   8)            8.5667         0.089004   
    155. A(H  10,H  17,H  12)           28.5599         0.089002   
    156. A(C   0,H  17,H   8)           17.0562         0.089004   
    157. A(C   1,H  17,C   2)           11.1404         0.089008   
    158. A(C   1,H  17,H  13)           29.2728         0.089003   
    159. A(H   8,H  17,O  15)           28.0913         0.089002   
    160. A(C   3,H  17,H  13)           15.7497         0.089002   
    161. A(H   7,H  17,O  15)           17.6406         0.089001   
    162. A(C   6,H  17,O  15)           45.0203         0.089003   
    163. A(C   6,H  17,H   7)           41.3789         0.089002   
    164. A(C   0,H  17,C   2)           19.3599         0.089008   
    165. A(C   5,H  17,H   7)           25.7014         0.089002   
    166. A(C   2,H  17,O  15)           15.3685         0.089004   
    167. A(C   4,H  17,H   7)           15.9959         0.089002   
    168. A(C   0,H  17,O  15)           34.7115         0.089004   
    169. A(C   3,H  17,H   7)            7.7105         0.089002   
    170. A(C   2,H  17,H   7)           16.0117         0.089003   
    171. A(C   1,H  17,H   7)           25.8962         0.089003   
    172. A(H   9,H  17,N  14)           45.3817         0.089003   
    173. A(C   0,H  17,H   7)           29.6657         0.089003   
    174. A(H   7,H  17,N  14)           19.7618         0.089002   
    175. A(C   6,H  17,N  14)           38.1702         0.089004   
    176. A(C   5,H  17,N  14)           32.2773         0.089005   
    177. A(C   5,H  17,C   6)           19.6116         0.089005   
    178. A(C   0,H  17,C   1)           11.1790         0.089008   
    179. A(C   4,H  17,N  14)           28.1448         0.089004   
    180. A(H   8,H  17,N  14)           20.3940         0.089003   
    181. A(C   3,H  17,N  14)           18.3095         0.089005   
    182. A(H  10,H  17,N  14)           39.4464         0.089004   
    183. A(H  12,H  17,N  14)           40.1057         0.089002   
    184. A(H  13,H  17,N  14)           34.0333         0.089002   
    185. A(C   4,H  17,C   6)           29.5261         0.089005   
    186. A(C   2,H  17,N  14)           10.2065         0.089005   
    187. A(C   1,H  17,N  14)           18.4229         0.089006   
    188. A(C   1,H  17,O  15)           25.3777         0.089004   
    189. A(C   3,H  17,C   6)           33.6692         0.089005   
    190. A(C   3,H  17,O  15)           19.4025         0.089003   
    191. A(C   4,H  17,O  15)           30.0979         0.089003   
    192. A(C   5,H  17,O  15)           36.4301         0.089004   
    193. A(C   0,H  17,N  14)           28.6243         0.089006   
    194. A(C   2,H  17,C   6)           30.0348         0.089006   
    195. A(C   1,H  17,C   6)           19.7500         0.089007   
    196. A(H   9,H  17,O  15)           51.7719         0.089002   
    197. A(H  10,H  17,O  15)           46.8692         0.089003   
    198. A(H  12,H  17,O  15)           44.1168         0.089001   
    199. A(H  13,H  17,O  15)           34.6394         0.089001   
    200. A(N  14,H  17,O  15)            7.7188         0.089003   
    201. A(H  12,H  17,H  13)           18.1858         0.089001   
    202. A(H  10,H  17,H  13)           42.4711         0.089002   
    203. A(C   0,H  17,C   6)           11.7132         0.089006   
    204. A(C   1,H  17,O  16)           19.9831         0.089005   
    205. A(H   9,H  17,H  13)           35.8773         0.089001   
    206. A(C   3,H  17,O  16)           25.8517         0.089004   
    207. A(C   4,H  17,O  16)           34.8826         0.089004   
    208. A(C   5,H  17,O  16)           37.1244         0.089004   
    209. A(H   8,H  17,H  13)           37.8392         0.089001   
    210. A(H   7,H  17,H  13)           18.0688         0.089001   
    211. A(H   8,H  17,O  16)           18.2351         0.089003   
    212. A(H   9,H  17,O  16)           46.6378         0.089002   
    213. A(C   6,H  17,H  13)           35.3177         0.089002   
    214. A(H  12,H  17,O  16)           44.8209         0.089002   
    215. A(H  13,H  17,O  16)           41.3281         0.089002   
    216. A(N  14,H  17,O  16)            8.2250         0.089004   
    217. A(C   5,H  17,H  13)           15.7155         0.089002   
    218. A(C   4,H  17,H  13)            7.4801         0.089002   
    219. D(H  17,C   1,C   0,C   6)    -91.0909         0.030025   
    220. D(C   2,C   1,C   0,C   5)     -0.5368         0.030025   
    221. D(H   8,C   1,C   0,C   6)      1.6889         0.030025   
    222. D(C   2,C   1,C   0,C   6)   -178.8472         0.030025   
    223. D(H   8,C   1,C   0,H  17)     92.7798         0.030025   
    224. D(H  17,C   1,C   0,C   5)     87.2195         0.030025   
    225. D(C   2,C   1,C   0,H  17)    -87.7563         0.030025   
    226. D(H   8,C   1,C   0,C   5)    179.9993         0.030025   
    227. D(H  17,C   2,C   1,C   0)     86.8827         0.029693   
    228. D(N  14,C   2,C   1,H  17)     93.3632         0.029693   
    229. D(C   3,C   2,C   1,C   0)      0.2612         0.029693   
    230. D(H  17,C   2,C   1,H   8)    -93.6587         0.029693   
    231. D(N  14,C   2,C   1,H   8)     -0.2955         0.029693   
    232. D(C   3,C   2,C   1,H   8)    179.7197         0.029693   
    233. D(N  14,C   2,C   1,C   0)   -179.7541         0.029693   
    234. D(C   3,C   2,C   1,H  17)    -86.6216         0.029693   
    235. D(C   4,C   3,C   2,H  17)    -79.2988         0.029749   
    236. D(H   7,C   3,C   2,H  17)    100.6955         0.029749   
    237. D(C   4,C   3,C   2,N  14)   -179.9789         0.029749   
    238. D(H  17,C   3,C   2,N  14)   -100.6801         0.029749   
    239. D(H   7,C   3,C   2,N  14)      0.0154         0.029749   
    240. D(H  17,C   3,C   2,C   1)     79.3047         0.029749   
    241. D(C   4,C   3,C   2,C   1)      0.0059         0.029749   
    242. D(H   7,C   3,C   2,C   1)   -179.9999         0.029749   
    243. D(C   5,C   4,C   3,H   7)   -179.9900         0.030246   
    244. D(H  17,C   4,C   3,C   2)     73.3918         0.030246   
    245. D(C   5,C   4,C   3,C   2)      0.0043         0.030246   
    246. D(H  13,C   4,C   3,H  17)    106.6037         0.030246   
    247. D(C   5,C   4,C   3,H  17)    -73.3875         0.030246   
    248. D(H  17,C   4,C   3,H   7)   -106.6026         0.030246   
    249. D(H  13,C   4,C   3,C   2)    179.9955         0.030246   
    250. D(H  13,C   4,C   3,H   7)      0.0011         0.030246   
    251. D(H  12,C   5,C   0,H  17)    -99.0945         0.030154   
    252. D(H  17,C   5,C   4,C   3)     74.2993         0.030347   
    253. D(H  12,C   5,C   0,C   1)    179.9924         0.030154   
    254. D(C   4,C   5,C   0,H  17)     81.4566         0.030154   
    255. D(H  12,C   5,C   4,H  13)      0.2774         0.030347   
    256. D(H  12,C   5,C   0,C   6)     -1.7008         0.030154   
    257. D(H  17,C   5,C   4,H  13)   -105.6918         0.030347   
    258. D(C   0,C   5,C   4,C   3)     -0.2799         0.030347   
    259. D(C   4,C   5,C   0,C   1)      0.5435         0.030154   
    260. D(H  12,C   5,C   4,C   3)   -179.7315         0.030347   
    261. D(H  17,C   5,C   0,C   6)     97.3937         0.030154   
    262. D(H  17,C   5,C   0,C   1)    -80.9131         0.030154   
    263. D(H  12,C   5,C   4,H  17)    105.9692         0.030347   
    264. D(C   0,C   5,C   4,H  13)    179.7289         0.030347   
    265. D(C   4,C   5,C   0,C   6)    178.8503         0.030154   
    266. D(C   0,C   5,C   4,H  17)    -74.5793         0.030347   
    267. D(H  10,C   6,C   0,H  17)    -49.9482         0.011937   
    268. D(H  17,C   6,C   0,C   5)    -95.4785         0.011937   
    269. D(H   9,C   6,C   0,C   1)    152.9464         0.011937   
    270. D(H  17,C   6,C   0,C   1)     82.8249         0.011937   
    271. D(H  11,C   6,C   0,C   1)    -87.0173         0.011937   
    272. D(H   9,C   6,C   0,C   5)    -25.3570         0.011937   
    273. D(H  11,C   6,C   0,C   5)     94.6793         0.011937   
    274. D(H  10,C   6,C   0,C   1)     32.8767         0.011937   
    275. D(H   9,C   6,C   0,H  17)     70.1215         0.011937   
    276. D(H  10,C   6,C   0,C   5)   -145.4267         0.011937   
    277. D(H  11,C   6,C   0,H  17)   -169.8422         0.011937   
    278. D(H  17,H   7,C   3,C   4)     96.0755         0.127630   
    279. D(H  17,H   7,C   3,C   2)    -83.9188         0.127630   
    280. D(H  17,H   8,C   1,C   0)    -89.3514         0.127917   
    281. D(H  17,H   8,C   1,C   2)     91.1827         0.127917   
    282. D(H  17,H   9,C   6,H  10)     54.0555         0.121070   
    283. D(H  17,H   9,C   6,C   0)    -66.6591         0.121070   
    284. D(H  17,H   9,C   6,H  11)    173.3715         0.121070   
    285. D(H  17,H  10,C   6,H   9)    -64.4663         0.121016   
    286. D(H  17,H  10,C   6,C   0)     56.4047         0.121016   
    287. D(H  17,H  10,C   6,H  11)    176.2247         0.121016   
    288. D(H  17,H  12,C   5,C   4)    -97.3799         0.127647   
    289. D(H  17,H  12,C   5,C   0)     83.1706         0.127647   
    290. D(H  17,H  13,C   4,C   3)    -90.9884         0.127549   
    291. D(H  17,H  13,C   4,C   5)     89.0028         0.127549   
    292. D(O  16,N  14,C   2,H  17)     82.6429         0.040049   
    293. D(H  17,N  14,C   2,C   1)    -82.6738         0.040049   
    294. D(O  15,N  14,C   2,H  17)    -97.3319         0.040049   
    295. D(O  15,N  14,C   2,C   3)     -0.0211         0.040049   
    296. D(O  15,N  14,C   2,C   1)    179.9943         0.040049   
    297. D(O  16,N  14,C   2,C   3)    179.9537         0.040049   
    298. D(H  17,N  14,C   2,C   3)     97.3108         0.040049   
    299. D(O  16,N  14,C   2,C   1)     -0.0309         0.040049   
    300. D(H  17,O  15,N  14,C   2)     77.4657         0.287233   
    301. D(O  16,O  15,N  14,C   2)    179.9752         0.287233   
    302. D(O  16,O  15,N  14,H  17)    102.5095         0.287233   
    303. D(H  17,O  15,N  14,O  16)   -102.5095         0.287233   
    304. D(H  17,O  16,N  14,C   2)    -70.5597         0.287253   
    305. D(O  15,O  16,N  14,H  17)   -109.4155         0.287253   
    306. D(H  17,O  16,N  14,O  15)    109.4155         0.287253   
    307. D(N  14,O  16,O  15,H  17)     67.6249         0.001905   
    308. D(H  17,O  16,O  15,N  14)    -67.6249         0.001905   
    309. D(O  15,O  16,N  14,C   2)   -179.9752         0.287253   
    310. D(N  14,H  17,C   0,C   5)   -100.4826         0.001500   
    311. D(H  13,H  17,C   3,C   2)   -146.6995         0.001500   
    312. D(H  13,H  17,C   0,C   6)   -141.2033         0.001500   
    313. D(H  13,H  17,C   0,C   1)     99.2294         0.001500   
    314. D(H  10,H  17,H  13,C   4)    -30.3662         0.001500   
    315. D(H   9,H  17,C   3,C   4)     47.0912         0.001500   
    316. D(H  12,H  17,C   0,C   5)     25.5283         0.001500   
    317. D(H  10,H  17,C   0,C   6)     22.0096         0.001500   
    318. D(C   6,H  17,C   3,C   4)     59.4684         0.001500   
    319. D(H  10,H  17,C   0,C   1)    -97.5578         0.001500   
    320. D(H   9,H  17,C   0,C   5)     93.9234         0.001500   
    321. D(H   7,H  17,H  10,C   6)    -48.4193         0.001500   
    322. D(C   5,H  17,H  10,C   6)    -18.9498         0.001500   
    323. D(C   2,H  17,C   3,C   4)    121.8700         0.001500   
    324. D(H   8,H  17,C   0,C   6)     93.2351         0.001500   
    325. D(H   8,H  17,C   0,C   5)   -146.1781         0.001500   
    326. D(C   0,H  17,C   3,H   7)    179.0952         0.001500   
    327. D(H   8,H  17,C   0,C   1)    -26.3322         0.001500   
    328. D(H   7,H  17,C   0,C   6)   -179.8606         0.001500   
    329. D(C   2,H  17,C   3,H   7)   -118.4644         0.001500   
    330. D(H   9,H  17,C   0,C   1)   -146.2307         0.001500   
    331. D(C   5,H  17,C   3,C   2)    -92.7941         0.001500   
    332. D(H   9,H  17,C   0,C   6)    -26.6634         0.001500   
    333. D(H   8,H  17,H  12,C   5)    -32.2948         0.001500   
    334. D(H  10,H  17,C   0,C   5)    142.5964         0.001500   
    335. D(H   8,H  17,C   3,C   2)    -21.8376         0.001500   
    336. D(H  12,H  17,C   0,C   1)    145.3742         0.001500   
    337. D(H  12,H  17,H  13,C   4)    -62.9612         0.001500   
    338. D(H  12,H  17,C   0,C   6)    -95.0585         0.001500   
    339. D(H  10,H  17,C   3,H   7)   -170.4868         0.001500   
    340. D(H  13,H  17,C   0,C   5)    -20.6165         0.001500   
    341. D(C   4,H  17,N  14,C   2)    -19.7742         0.001500   
    342. D(N  14,H  17,C   0,C   1)     19.3633         0.001500   
    343. D(N  14,H  17,C   3,C   4)    150.7648         0.001500   
    344. D(N  14,H  17,C   0,C   6)    138.9306         0.001500   
    345. D(C   3,H  17,H   9,C   6)     54.2035         0.001500   
    346. D(O  16,H  17,C   2,C   3)   -147.3261         0.001500   
    347. D(H   7,H  17,C   0,C   5)    -59.2738         0.001500   
    348. D(H   7,H  17,C   0,C   1)     60.5720         0.001500   
    349. D(O  15,H  17,C   2,C   1)    146.2349         0.001500   
    350. D(C   6,H  17,C   0,C   5)    120.5868         0.001500   
    351. D(C   6,H  17,C   0,C   1)   -119.5673         0.001500   
    352. D(C   3,H  17,H   8,C   1)    -20.7973         0.001500   
    353. D(C   2,H  17,H   8,C   1)    -34.5627         0.001500   
    354. D(H  13,H  17,C   2,C   3)     20.2485         0.001500   
    355. D(C   5,H  17,C   0,C   6)   -120.5868         0.001500   
    356. D(C   5,H  17,C   0,C   1)    119.8459         0.001500   
    357. D(H  12,H  17,C   2,C   1)    -60.5044         0.001500   
    358. D(C   4,H  17,C   0,C   6)   -150.2820         0.001500   
    359. D(C   4,H  17,C   0,C   5)    -29.6953         0.001500   
    360. D(O  16,H  17,C   6,H  11)     59.9248         0.001500   
    361. D(H   9,H  17,C   2,N  14)   -147.9394         0.001500   
    362. D(C   4,H  17,C   0,C   1)     90.1506         0.001500   
    363. D(C   3,H  17,C   0,C   6)    179.8941         0.001500   
    364. D(H   8,H  17,C   2,C   3)    145.3393         0.001500   
    365. D(C   3,H  17,C   0,C   5)    -59.5191         0.001500   
    366. D(C   3,H  17,C   0,C   1)     60.3268         0.001500   
    367. D(H  13,H  17,C   6,H   9)    -87.8893         0.001500   
    368. D(H   7,H  17,C   2,C   3)    -25.3158         0.001500   
    369. D(H  13,H  17,C   6,C   0)     27.7811         0.001500   
    370. D(H  12,H  17,C   6,H  11)    155.4340         0.001500   
    371. D(H   7,H  17,C   2,C   1)   -144.7186         0.001500   
    372. D(C   2,H  17,C   0,C   6)    149.6679         0.001500   
    373. D(C   2,H  17,C   0,C   5)    -89.7454         0.001500   
    374. D(C   5,H  17,C   2,N  14)   -179.9620         0.001500   
    375. D(C   2,H  17,C   0,C   1)     30.1005         0.001500   
    376. D(C   1,H  17,C   0,C   6)    119.5673         0.001500   
    377. D(H   7,H  17,C   6,H   9)   -115.5660         0.001500   
    378. D(C   4,H  17,C   2,C   3)     29.3180         0.001500   
    379. D(C   1,H  17,C   0,C   5)   -119.8459         0.001500   
    380. D(C   3,H  17,C   2,N  14)    121.0557         0.001500   
    381. D(C   4,H  17,C   6,H   9)    -96.7568         0.001500   
    382. D(C   1,H  17,C   2,N  14)   -119.5414         0.001500   
    383. D(C   0,H  17,C   2,N  14)   -149.7554         0.001500   
    384. D(C   0,H  17,C   2,C   3)     89.1889         0.001500   
    385. D(C   2,H  17,C   6,H  10)    105.4747         0.001500   
    386. D(C   2,H  17,C   6,H   9)   -135.2109         0.001500   
    387. D(C   0,H  17,C   2,C   1)    -30.2140         0.001500   
    388. D(O  16,H  17,C   1,H   8)     66.2869         0.001500   
    389. D(C   1,H  17,C   6,H   9)   -145.6056         0.001500   
    390. D(O  16,H  17,C   1,C   2)    -53.9398         0.001500   
    391. D(O  16,H  17,C   1,C   0)   -174.5710         0.001500   
    392. D(C   0,H  17,C   6,H  10)    125.0152         0.001500   
    393. D(C   0,H  17,C   6,H   9)   -115.6704         0.001500   
    394. D(C   2,H  17,C   6,H  11)     84.2301         0.001500   
    395. D(C   3,H  17,C   6,H   9)   -115.7418         0.001500   
    396. D(C   1,H  17,C   2,C   3)    119.4029         0.001500   
    397. D(C   4,H  17,C   6,H  10)    143.9288         0.001500   
    398. D(C   3,H  17,C   2,C   1)   -119.4029         0.001500   
    399. D(C   5,H  17,C   6,H   9)    -86.6658         0.001500   
    400. D(C   4,H  17,C   2,C   1)    -90.0848         0.001500   
    401. D(H   7,H  17,C   6,H  10)    125.1196         0.001500   
    402. D(C   4,H  17,C   2,N  14)    150.3738         0.001500   
    403. D(C   5,H  17,C   2,C   1)    -60.4206         0.001500   
    404. D(C   5,H  17,C   2,C   3)     58.9822         0.001500   
    405. D(H   9,H  17,C   6,H  10)   -119.3144         0.001500   
    406. D(C   6,H  17,C   2,C   1)    -18.3943         0.001500   
    407. D(C   6,H  17,C   2,C   3)    101.0086         0.001500   
    408. D(C   6,H  17,C   2,N  14)   -137.9357         0.001500   
    409. D(O  15,H  17,C   1,H   8)    100.1250         0.001500   
    410. D(H  13,H  17,C   6,H  10)    152.7963         0.001500   
    411. D(H   7,H  17,C   2,N  14)     95.7399         0.001500   
    412. D(H   8,H  17,C   2,C   1)     25.9365         0.001500   
    413. D(N  14,H  17,C   6,H  11)     73.1550         0.001500   
    414. D(H   8,H  17,C   2,N  14)    -93.6050         0.001500   
    415. D(H   9,H  17,C   2,C   1)    -28.3980         0.001500   
    416. D(H   9,H  17,C   2,C   3)     91.0049         0.001500   
    417. D(C   0,H  17,H   7,C   3)     -0.6835         0.001500   
    418. D(H  10,H  17,C   2,C   1)     -4.3094         0.001500   
    419. D(H  10,H  17,C   2,C   3)    115.0934         0.001500   
    420. D(H  10,H  17,C   2,N  14)   -123.8508         0.001500   
    421. D(H   9,H  17,H   7,C   3)    -11.3981         0.001500   
    422. D(H  12,H  17,C   2,C   3)     58.8984         0.001500   
    423. D(H  12,H  17,C   2,N  14)    179.9541         0.001500   
    424. D(H  13,H  17,C   2,C   1)    -99.1544         0.001500   
    425. D(O  15,H  17,C   1,C   2)    -20.1017         0.001500   
    426. D(H  13,H  17,C   2,N  14)    141.3042         0.001500   
    427. D(N  14,H  17,C   2,C   1)    119.5414         0.001500   
    428. D(N  14,H  17,C   2,C   3)   -121.0557         0.001500   
    429. D(H  12,H  17,H   8,C   1)     31.0515         0.001500   
    430. D(O  15,H  17,C   2,C   3)    -94.3622         0.001500   
    431. D(O  15,H  17,C   2,N  14)     26.6935         0.001500   
    432. D(O  16,H  17,C   2,C   1)     93.2710         0.001500   
    433. D(C   4,H  17,H   9,C   6)     69.3091         0.001500   
    434. D(O  16,H  17,C   2,N  14)    -26.2704         0.001500   
    435. D(C   0,H  17,C   3,C   2)    -62.4404         0.001500   
    436. D(C   0,H  17,C   3,C   4)     59.4296         0.001500   
    437. D(N  14,H  17,H   9,C   6)     28.8098         0.001500   
    438. D(C   1,H  17,C   3,C   2)    -31.2075         0.001500   
    439. D(C   1,H  17,C   3,C   4)     90.6626         0.001500   
    440. D(C   1,H  17,C   3,H   7)   -149.6718         0.001500   
    441. D(O  15,H  17,C   5,H  12)   -168.1436         0.001500   
    442. D(H   8,H  17,H  10,C   6)    -88.3082         0.001500   
    443. D(C   4,H  17,C   3,C   2)   -121.8700         0.001500   
    444. D(C   4,H  17,C   3,H   7)    119.6656         0.001500   
    445. D(O  16,H  17,H  10,C   6)    -88.8662         0.001500   
    446. D(C   5,H  17,C   3,C   4)     29.0760         0.001500   
    447. D(C   5,H  17,C   3,H   7)    148.7415         0.001500   
    448. D(C   6,H  17,C   3,C   2)    -62.4016         0.001500   
    449. D(H   9,H  17,H  12,C   5)    -96.1596         0.001500   
    450. D(C   6,H  17,C   3,H   7)    179.1340         0.001500   
    451. D(H   7,H  17,C   3,C   2)    118.4644         0.001500   
    452. D(H   7,H  17,C   3,C   4)   -119.6656         0.001500   
    453. D(C   1,H  17,H  13,C   4)      0.0487         0.001500   
    454. D(H   8,H  17,C   3,C   4)    100.0324         0.001500   
    455. D(H   8,H  17,C   3,H   7)   -140.3020         0.001500   
    456. D(H   9,H  17,C   3,C   2)    -74.7788         0.001500   
    457. D(O  15,H  17,C   1,C   0)   -140.7329         0.001500   
    458. D(H   9,H  17,C   3,H   7)    166.7568         0.001500   
    459. D(H  10,H  17,C   3,C   2)    -52.0224         0.001500   
    460. D(H  10,H  17,C   3,C   4)     69.8477         0.001500   
    461. D(C   1,H  17,N  14,C   2)     32.1342         0.001500   
    462. D(H  12,H  17,C   3,C   2)   -101.8684         0.001500   
    463. D(H  12,H  17,C   3,C   4)     20.0016         0.001500   
    464. D(H  12,H  17,C   3,H   7)    139.6672         0.001500   
    465. D(C   4,H  17,N  14,O  15)     97.8007         0.001500   
    466. D(H  13,H  17,C   3,C   4)    -24.8294         0.001500   
    467. D(H  13,H  17,C   3,H   7)     94.8361         0.001500   
    468. D(N  14,H  17,C   3,C   2)     28.8948         0.001500   
    469. D(C   6,H  17,N  14,O  16)    -88.2552         0.001500   
    470. D(N  14,H  17,C   3,H   7)    -89.5696         0.001500   
    471. D(O  15,H  17,C   3,C   2)     52.7002         0.001500   
    472. D(O  15,H  17,C   3,C   4)    174.5702         0.001500   
    473. D(N  14,H  17,C   1,H   8)     91.0303         0.001500   
    474. D(N  14,H  17,C   5,H  12)   -179.7058         0.001500   
    475. D(N  14,H  17,C   5,C   4)    -59.0975         0.001500   
    476. D(N  14,H  17,C   1,C   2)    -29.1965         0.001500   
    477. D(N  14,H  17,C   1,C   0)   -149.8276         0.001500   
    478. D(H  13,H  17,C   5,C   0)    146.0094         0.001500   
    479. D(H  13,H  17,C   1,H   8)   -179.3837         0.001500   
    480. D(H  13,H  17,C   1,C   2)     60.3896         0.001500   
    481. D(H  10,H  17,C   5,H  12)     94.6515         0.001500   
    482. D(H  10,H  17,C   5,C   4)   -144.7402         0.001500   
    483. D(H  13,H  17,C   1,C   0)    -60.2416         0.001500   
    484. D(H  12,H  17,C   1,H   8)   -140.1834         0.001500   
    485. D(H   9,H  17,C   5,C   0)    -55.6745         0.001500   
    486. D(H  12,H  17,C   1,C   2)     99.5899         0.001500   
    487. D(H   8,H  17,C   5,H  12)    139.6358         0.001500   
    488. D(H   8,H  17,C   5,C   4)    -99.7559         0.001500   
    489. D(H  12,H  17,C   1,C   0)    -21.0413         0.001500   
    490. D(H   8,H  17,C   5,C   0)     21.2412         0.001500   
    491. D(H   7,H  17,C   5,H  12)   -140.4303         0.001500   
    492. D(H  10,H  17,C   1,H   8)    -66.0768         0.001500   
    493. D(H  10,H  17,C   1,C   2)    173.6964         0.001500   
    494. D(C   6,H  17,C   5,C   4)   -152.3757         0.001500   
    495. D(H  10,H  17,C   1,C   0)     53.0653         0.001500   
    496. D(H   9,H  17,C   1,H   8)    -98.1044         0.001500   
    497. D(C   4,H  17,C   5,C   0)    120.9970         0.001500   
    498. D(C   3,H  17,C   5,H  12)   -149.6680         0.001500   
    499. D(H   9,H  17,C   1,C   2)    141.6689         0.001500   
    500. D(H   9,H  17,C   1,C   0)     21.0377         0.001500   
    501. D(C   2,H  17,C   5,C   4)    -59.0849         0.001500   
    502. D(H   8,H  17,C   1,C   2)   -120.2267         0.001500   
    503. D(H   8,H  17,C   1,C   0)    119.1421         0.001500   
    504. D(C   1,H  17,C   5,C   4)    -90.0280         0.001500   
    505. D(C   1,H  17,C   5,C   0)     30.9690         0.001500   
    506. D(H   7,H  17,C   1,H   8)    141.6214         0.001500   
    507. D(H   7,H  17,C   1,C   2)     21.3947         0.001500   
    508. D(O  16,H  17,C   4,C   5)     94.6580         0.001500   
    509. D(H   7,H  17,C   1,C   0)    -99.2365         0.001500   
    510. D(O  16,H  17,C   4,C   3)    -28.0607         0.001500   
    511. D(O  15,H  17,C   4,H  13)   -122.4841         0.001500   
    512. D(C   6,H  17,C   1,H   8)    -87.6391         0.001500   
    513. D(O  15,H  17,C   4,C   5)    119.1248         0.001500   
    514. D(O  15,H  17,C   4,C   3)     -3.5939         0.001500   
    515. D(C   6,H  17,C   1,C   2)    152.1341         0.001500   
    516. D(N  14,H  17,C   4,H  13)   -137.8720         0.001500   
    517. D(N  14,H  17,C   4,C   5)    103.7369         0.001500   
    518. D(O  16,H  17,C   4,H  13)   -146.9509         0.001500   
    519. D(C   0,H  17,C   5,C   4)   -120.9970         0.001500   
    520. D(C   0,H  17,C   5,H  12)    118.3947         0.001500   
    521. D(C   6,H  17,C   1,C   0)     31.5030         0.001500   
    522. D(N  14,H  17,C   4,C   3)    -18.9818         0.001500   
    523. D(C   1,H  17,C   5,H  12)    149.3637         0.001500   
    524. D(C   2,H  17,C   5,C   0)     61.9121         0.001500   
    525. D(H  13,H  17,C   4,C   5)   -118.3911         0.001500   
    526. D(C   2,H  17,C   5,H  12)   -179.6932         0.001500   
    527. D(C   3,H  17,C   5,C   0)     91.9374         0.001500   
    528. D(C   3,H  17,C   5,C   4)    -29.0597         0.001500   
    529. D(C   5,H  17,C   1,H   8)   -149.2593         0.001500   
    530. D(H  13,H  17,C   4,C   3)    118.8903         0.001500   
    531. D(C   4,H  17,C   5,H  12)   -120.6083         0.001500   
    532. D(C   6,H  17,C   5,C   0)    -31.3786         0.001500   
    533. D(H  12,H  17,C   4,H  13)     93.4979         0.001500   
    534. D(C   6,H  17,C   5,H  12)     87.0160         0.001500   
    535. D(H   7,H  17,C   5,C   0)    101.1751         0.001500   
    536. D(H   7,H  17,C   5,C   4)    -19.8220         0.001500   
    537. D(C   5,H  17,C   1,C   2)     90.5139         0.001500   
    538. D(H  12,H  17,O  16,O  15)     80.0122         0.001500   
    539. D(H  12,H  17,C   4,C   5)    -24.8932         0.001500   
    540. D(H  12,H  17,O  16,N  14)     51.4541         0.001500   
    541. D(H  10,H  17,O  16,O  15)    122.6140         0.001500   
    542. D(H   9,H  17,C   5,C   4)   -176.6715         0.001500   
    543. D(H   9,H  17,C   5,H  12)     62.7202         0.001500   
    544. D(H  10,H  17,C   5,C   0)    -23.7432         0.001500   
    545. D(H  12,H  17,C   4,C   3)   -147.6118         0.001500   
    546. D(C   5,H  17,C   1,C   0)    -30.1173         0.001500   
    547. D(H  12,H  17,C   5,C   0)   -118.3947         0.001500   
    548. D(H  12,H  17,C   5,C   4)    120.6083         0.001500   
    549. D(H  10,H  17,C   4,H  13)    144.6727         0.001500   
    550. D(H  13,H  17,C   5,C   4)     25.0124         0.001500   
    551. D(H  13,H  17,C   5,H  12)    -95.5959         0.001500   
    552. D(N  14,H  17,C   5,C   0)     61.8995         0.001500   
    553. D(H  10,H  17,C   4,C   5)     26.2816         0.001500   
    554. D(C   4,H  17,C   1,H   8)   -179.3666         0.001500   
    555. D(O  15,H  17,C   5,C   0)     73.4618         0.001500   
    556. D(O  15,H  17,C   5,C   4)    -47.5353         0.001500   
    557. D(H  10,H  17,C   4,C   3)    -96.4371         0.001500   
    558. D(O  16,H  17,C   5,C   0)     50.1880         0.001500   
    559. D(O  16,H  17,C   5,C   4)    -70.8091         0.001500   
    560. D(O  16,H  17,C   5,H  12)    168.5826         0.001500   
    561. D(C   6,H  17,O  16,O  15)    109.9193         0.001500   
    562. D(H   9,H  17,C   4,H  13)    120.6521         0.001500   
    563. D(C   0,H  17,C   6,H  11)    103.7705         0.001500   
    564. D(C   1,H  17,C   6,C   0)    -29.9352         0.001500   
    565. D(C   4,H  17,C   1,C   2)     60.4066         0.001500   
    566. D(C   1,H  17,C   6,H  10)     95.0800         0.001500   
    567. D(C   1,H  17,C   6,H  11)     73.8354         0.001500   
    568. D(C   2,H  17,C   6,C   0)    -19.5405         0.001500   
    569. D(H   9,H  17,C   4,C   5)      2.2611         0.001500   
    570. D(H   9,H  17,C   4,C   3)   -120.4576         0.001500   
    571. D(C   4,H  17,C   1,C   0)    -60.2245         0.001500   
    572. D(C   3,H  17,C   6,C   0)     -0.0714         0.001500   
    573. D(H   8,H  17,C   4,H  13)    179.8774         0.001500   
    574. D(C   3,H  17,C   6,H  10)    124.9438         0.001500   
    575. D(C   3,H  17,C   6,H  11)    103.6991         0.001500   
    576. D(C   4,H  17,C   6,C   0)     18.9136         0.001500   
    577. D(C   3,H  17,O  16,N  14)     19.7675         0.001500   
    578. D(C   2,H  17,O  16,O  15)     61.8028         0.001500   
    579. D(C   4,H  17,C   6,H  11)    122.6841         0.001500   
    580. D(C   5,H  17,C   6,C   0)     29.0046         0.001500   
    581. D(H   8,H  17,C   4,C   5)     61.4864         0.001500   
    582. D(C   5,H  17,C   6,H  10)    154.0198         0.001500   
    583. D(C   5,H  17,C   6,H  11)    132.7751         0.001500   
    584. D(H   7,H  17,C   6,C   0)      0.1044         0.001500   
    585. D(C   3,H  17,C   1,H   8)    150.5453         0.001500   
    586. D(H   8,H  17,C   4,C   3)    -61.2323         0.001500   
    587. D(H   7,H  17,C   6,H  11)    103.8749         0.001500   
    588. D(H   8,H  17,C   6,C   0)    -54.3177         0.001500   
    589. D(H   8,H  17,C   6,H   9)   -169.9881         0.001500   
    590. D(H   8,H  17,C   6,H  10)     70.6975         0.001500   
    591. D(H   8,H  17,C   6,H  11)     49.4528         0.001500   
    592. D(H   9,H  17,C   6,C   0)    115.6704         0.001500   
    593. D(H   7,H  17,C   4,H  13)    -93.8623         0.001500   
    594. D(H   9,H  17,C   6,H  11)   -140.5591         0.001500   
    595. D(H  10,H  17,C   6,C   0)   -125.0152         0.001500   
    596. D(H  10,H  17,C   6,H   9)    119.3144         0.001500   
    597. D(H  10,H  17,C   6,H  11)    -21.2447         0.001500   
    598. D(H  12,H  17,C   6,C   0)     51.6634         0.001500   
    599. D(H  12,H  17,C   6,H   9)    -64.0070         0.001500   
    600. D(H  12,H  17,C   6,H  10)    176.6786         0.001500   
    601. D(C   3,H  17,C   1,C   2)     30.3185         0.001500   
    602. D(H   7,H  17,C   4,C   5)    147.7466         0.001500   
    603. D(H  13,H  17,O  15,O  16)   -110.4846         0.001500   
    604. D(H   7,H  17,C   4,C   3)     25.0280         0.001500   
    605. D(H  13,H  17,C   6,H  11)    131.5517         0.001500   
    606. D(N  14,H  17,C   6,C   0)    -30.6156         0.001500   
    607. D(N  14,H  17,C   6,H   9)   -146.2859         0.001500   
    608. D(N  14,H  17,C   6,H  10)     94.3996         0.001500   
    609. D(C   3,H  17,C   1,C   0)    -90.3126         0.001500   
    610. D(O  15,H  17,C   6,C   0)    -25.2400         0.001500   
    611. D(O  15,H  17,C   6,H   9)   -140.9104         0.001500   
    612. D(O  15,H  17,C   6,H  10)     99.7752         0.001500   
    613. D(O  15,H  17,C   6,H  11)     78.5305         0.001500   
    614. D(O  16,H  17,C   6,C   0)    -43.8457         0.001500   
    615. D(O  16,H  17,C   6,H   9)   -159.5161         0.001500   
    616. D(O  16,H  17,C   6,H  10)     81.1695         0.001500   
    617. D(C   6,H  17,C   4,H  13)    136.7996         0.001500   
    618. D(C   6,H  17,C   4,C   5)     18.4085         0.001500   
    619. D(C   1,H  17,H   7,C   3)     22.0617         0.001500   
    620. D(C   2,H  17,H   7,C   3)     36.8665         0.001500   
    621. D(C   4,H  17,H   7,C   3)    -35.9384         0.001500   
    622. D(C   5,H  17,H   7,C   3)    -22.6908         0.001500   
    623. D(C   6,H  17,H   7,C   3)     -0.7263         0.001500   
    624. D(H   8,H  17,H   7,C   3)     31.8349         0.001500   
    625. D(C   2,H  17,C   1,H   8)    120.2267         0.001500   
    626. D(H  10,H  17,H   7,C   3)      8.2138         0.001500   
    627. D(H  12,H  17,H   7,C   3)    -32.0885         0.001500   
    628. D(H  13,H  17,H   7,C   3)    -60.6956         0.001500   
    629. D(N  14,H  17,H   7,C   3)     68.2961         0.001500   
    630. D(O  15,H  17,H   7,C   3)     91.6235         0.001500   
    631. D(O  16,H  17,H   7,C   3)     66.8885         0.001500   
    632. D(C   0,H  17,H   8,C   1)     35.2619         0.001500   
    633. D(C   6,H  17,C   4,C   3)   -104.3101         0.001500   
    634. D(H   9,H  17,O  15,N  14)    -32.2882         0.001500   
    635. D(C   4,H  17,H   8,C   1)      0.4652         0.001500   
    636. D(C   5,H  17,H   8,C   1)     21.7579         0.001500   
    637. D(C   6,H  17,H   8,C   1)     69.4703         0.001500   
    638. D(H   7,H  17,H   8,C   1)    -29.8472         0.001500   
    639. D(H   9,H  17,H   8,C   1)     66.5020         0.001500   
    640. D(H  10,H  17,H   8,C   1)     91.8504         0.001500   
    641. D(H   8,H  17,O  15,O  16)    -34.2994         0.001500   
    642. D(H  13,H  17,H   8,C   1)      0.4912         0.001500   
    643. D(N  14,H  17,H   8,C   1)    -65.0591         0.001500   
    644. D(O  15,H  17,H   8,C   1)    -63.6379         0.001500   
    645. D(O  16,H  17,H   8,C   1)    -89.2507         0.001500   
    646. D(C   0,H  17,H   9,C   6)     38.4491         0.001500   
    647. D(C   1,H  17,H   9,C   6)     24.7680         0.001500   
    648. D(C   2,H  17,H   9,C   6)     36.4032         0.001500   
    649. D(C   5,H  17,C   4,H  13)    118.3911         0.001500   
    650. D(C   2,H  17,C   1,C   0)   -120.6312         0.001500   
    651. D(C   5,H  17,H   9,C   6)     70.4934         0.001500   
    652. D(H   7,H  17,H   9,C   6)     56.6717         0.001500   
    653. D(H   8,H  17,H   9,C   6)      7.3211         0.001500   
    654. D(H  10,H  17,H   9,C   6)    -29.5019         0.001500   
    655. D(H  12,H  17,H   9,C   6)     92.8866         0.001500   
    656. D(H  13,H  17,H   9,C   6)     80.3259         0.001500   
    657. D(C   5,H  17,C   4,C   3)   -122.7187         0.001500   
    658. D(O  15,H  17,H   9,C   6)     34.5948         0.001500   
    659. D(O  16,H  17,H   9,C   6)     17.5020         0.001500   
    660. D(C   0,H  17,H  10,C   6)    -33.6421         0.001500   
    661. D(C   1,H  17,H  10,C   6)    -64.7299         0.001500   
    662. D(C   2,H  17,H  10,C   6)    -62.4944         0.001500   
    663. D(C   3,H  17,H  10,C   6)    -46.6614         0.001500   
    664. D(C   4,H  17,H  10,C   6)    -29.4431         0.001500   
    665. D(C   3,H  17,C   4,H  13)   -118.8903         0.001500   
    666. D(C   0,H  17,C   1,H   8)   -119.1421         0.001500   
    667. D(C   3,H  17,C   4,C   5)    122.7187         0.001500   
    668. D(H   9,H  17,H  10,C   6)     31.6927         0.001500   
    669. D(H  12,H  17,H  10,C   6)     -2.4524         0.001500   
    670. D(H  13,H  17,H  10,C   6)    -23.0421         0.001500   
    671. D(N  14,H  17,H  10,C   6)    -75.8867         0.001500   
    672. D(O  15,H  17,H  10,C   6)    -72.7815         0.001500   
    673. D(C   4,H  17,O  15,O  16)    -99.3453         0.001500   
    674. D(C   0,H  17,H  12,C   5)    -36.7370         0.001500   
    675. D(C   1,H  17,H  12,C   5)    -22.2384         0.001500   
    676. D(C   2,H  17,H  12,C   5)      0.2312         0.001500   
    677. D(C   3,H  17,H  12,C   5)     21.9200         0.001500   
    678. D(C   4,H  17,H  12,C   5)     35.1345         0.001500   
    679. D(C   6,H  17,H  12,C   5)    -71.6775         0.001500   
    680. D(H   7,H  17,H  12,C   5)     31.3253         0.001500   
    681. D(C   2,H  17,C   4,H  13)   -148.5740         0.001500   
    682. D(C   0,H  17,C   1,C   2)    120.6312         0.001500   
    683. D(H  10,H  17,H  12,C   5)    -70.7239         0.001500   
    684. D(H  13,H  17,H  12,C   5)     59.7382         0.001500   
    685. D(N  14,H  17,H  12,C   5)      0.2439         0.001500   
    686. D(O  15,H  17,H  12,C   5)     10.0945         0.001500   
    687. D(O  16,H  17,H  12,C   5)     -9.7584         0.001500   
    688. D(C   0,H  17,H  13,C   4)    -22.9906         0.001500   
    689. D(C   2,H  17,C   4,C   5)     93.0349         0.001500   
    690. D(C   2,H  17,H  13,C   4)     23.0102         0.001500   
    691. D(C   3,H  17,H  13,C   4)     36.8979         0.001500   
    692. D(C   5,H  17,H  13,C   4)    -37.2173         0.001500   
    693. D(C   6,H  17,H  13,C   4)    -35.7012         0.001500   
    694. D(H   7,H  17,H  13,C   4)     62.4312         0.001500   
    695. D(H   8,H  17,H  13,C   4)     -0.1010         0.001500   
    696. D(H   9,H  17,H  13,C   4)    -50.1682         0.001500   
    697. D(C   2,H  17,C   4,C   3)    -29.6837         0.001500   
    698. D(O  16,H  17,C   0,C   6)    123.1531         0.001500   
    699. D(N  14,H  17,H  13,C   4)     34.4266         0.001500   
    700. D(O  15,H  17,H  13,C   4)     48.0915         0.001500   
    701. D(O  16,H  17,H  13,C   4)     28.1832         0.001500   
    702. D(C   0,H  17,N  14,C   2)     20.3983         0.001500   
    703. D(C   0,H  17,N  14,O  15)    137.9732         0.001500   
    704. D(C   0,H  17,N  14,O  16)   -100.7186         0.001500   
    705. D(C   1,H  17,C   4,H  13)   -179.9359         0.001500   
    706. D(C   1,H  17,N  14,O  15)    149.7091         0.001500   
    707. D(C   1,H  17,N  14,O  16)    -88.9827         0.001500   
    708. D(C   2,H  17,N  14,O  15)    117.5750         0.001500   
    709. D(C   2,H  17,N  14,O  16)   -121.1169         0.001500   
    710. D(C   3,H  17,N  14,C   2)    -30.8857         0.001500   
    711. D(C   3,H  17,N  14,O  15)     86.6892         0.001500   
    712. D(C   3,H  17,N  14,O  16)   -152.0026         0.001500   
    713. D(C   1,H  17,O  15,N  14)    -21.8345         0.001500   
    714. D(C   0,H  17,O  15,O  16)    -64.8886         0.001500   
    715. D(C   4,H  17,N  14,O  16)   -140.8911         0.001500   
    716. D(C   5,H  17,N  14,C   2)      0.0267         0.001500   
    717. D(C   5,H  17,N  14,O  15)    117.6017         0.001500   
    718. D(C   5,H  17,N  14,O  16)   -121.0901         0.001500   
    719. D(C   6,H  17,N  14,C   2)     32.8617         0.001500   
    720. D(C   6,H  17,N  14,O  15)    150.4366         0.001500   
    721. D(C   1,H  17,C   4,C   5)     61.6730         0.001500   
    722. D(H   7,H  17,N  14,C   2)    -54.2643         0.001500   
    723. D(H   7,H  17,N  14,O  15)     63.3107         0.001500   
    724. D(H   7,H  17,N  14,O  16)   -175.3811         0.001500   
    725. D(H   8,H  17,N  14,C   2)     57.4367         0.001500   
    726. D(H   8,H  17,N  14,O  15)    175.0116         0.001500   
    727. D(H   8,H  17,N  14,O  16)    -63.6802         0.001500   
    728. D(H   9,H  17,N  14,C   2)     26.3016         0.001500   
    729. D(O  16,H  17,C   0,C   5)   -116.2601         0.001500   
    730. D(C   1,H  17,C   4,C   3)    -61.0456         0.001500   
    731. D(C   0,H  17,C   4,H  13)    148.5830         0.001500   
    732. D(O  16,H  17,C   0,C   1)      3.5858         0.001500   
    733. D(O  15,H  17,N  14,C   2)   -117.5750         0.001500   
    734. D(H  13,H  17,N  14,O  16)   -149.8675         0.001500   
    735. D(C   0,H  17,C   4,C   5)     30.1919         0.001500   
    736. D(H  13,H  17,N  14,O  15)     88.8244         0.001500   
    737. D(H  13,H  17,N  14,C   2)    -28.7506         0.001500   
    738. D(C   0,H  17,C   4,C   3)    -92.5268         0.001500   
    739. D(O  15,H  17,C   0,C   6)    148.0160         0.001500   
    740. D(H  12,H  17,N  14,O  16)   -121.1523         0.001500   
    741. D(O  15,H  17,N  14,O  16)    121.3082         0.001500   
    742. D(O  16,H  17,N  14,C   2)    121.1169         0.001500   
    743. D(O  16,H  17,N  14,O  15)   -121.3082         0.001500   
    744. D(C   0,H  17,O  15,N  14)    -34.2788         0.001500   
    745. D(H  12,H  17,N  14,O  15)    117.5395         0.001500   
    746. D(O  16,H  17,C   3,H   7)    -98.4293         0.001500   
    747. D(C   1,H  17,O  15,O  16)    -52.4443         0.001500   
    748. D(C   2,H  17,O  15,N  14)    -36.3452         0.001500   
    749. D(C   2,H  17,O  15,O  16)    -66.9550         0.001500   
    750. D(C   3,H  17,O  15,N  14)    -70.7482         0.001500   
    751. D(C   3,H  17,O  15,O  16)   -101.3581         0.001500   
    752. D(C   4,H  17,O  15,N  14)    -68.7355         0.001500   
    753. D(H  12,H  17,N  14,C   2)     -0.0355         0.001500   
    754. D(C   5,H  17,O  15,N  14)    -52.8363         0.001500   
    755. D(C   5,H  17,O  15,O  16)    -83.4461         0.001500   
    756. D(C   6,H  17,O  15,N  14)    -25.5348         0.001500   
    757. D(C   6,H  17,O  15,O  16)    -56.1446         0.001500   
    758. D(H   7,H  17,O  15,N  14)    -94.5586         0.001500   
    759. D(H   7,H  17,O  15,O  16)   -125.1684         0.001500   
    760. D(H   8,H  17,O  15,N  14)     -3.6895         0.001500   
    761. D(H  10,H  17,N  14,O  16)    -75.8097         0.001500   
    762. D(O  16,H  17,C   3,C   4)    141.9051         0.001500   
    763. D(H   9,H  17,O  15,O  16)    -62.8980         0.001500   
    764. D(H  10,H  17,O  15,N  14)    -14.8477         0.001500   
    765. D(H  10,H  17,O  15,O  16)    -45.4576         0.001500   
    766. D(H  12,H  17,O  15,N  14)    -55.1403         0.001500   
    767. D(H  12,H  17,O  15,O  16)    -85.7502         0.001500   
    768. D(H  13,H  17,O  15,N  14)    -79.8748         0.001500   
    769. D(O  15,H  17,C   0,C   5)    -91.3973         0.001500   
    770. D(N  14,H  17,O  15,O  16)    -30.6098         0.001500   
    771. D(O  16,H  17,O  15,N  14)     30.6098         0.001500   
    772. D(C   0,H  17,O  16,N  14)     65.5761         0.001500   
    773. D(C   0,H  17,O  16,O  15)     94.1342         0.001500   
    774. D(C   1,H  17,O  16,N  14)     67.6095         0.001500   
    775. D(C   1,H  17,O  16,O  15)     96.1676         0.001500   
    776. D(C   2,H  17,O  16,N  14)     33.2448         0.001500   
    777. D(H  10,H  17,N  14,O  15)    162.8821         0.001500   
    778. D(H  10,H  17,N  14,C   2)     45.3071         0.001500   
    779. D(C   3,H  17,O  16,O  15)     48.3256         0.001500   
    780. D(C   4,H  17,O  16,N  14)     31.3512         0.001500   
    781. D(C   4,H  17,O  16,O  15)     59.9093         0.001500   
    782. D(C   5,H  17,O  16,N  14)     49.2619         0.001500   
    783. D(C   5,H  17,O  16,O  15)     77.8200         0.001500   
    784. D(C   6,H  17,O  16,N  14)     81.3612         0.001500   
    785. D(O  16,H  17,C   3,C   2)     20.0351         0.001500   
    786. D(H   7,H  17,O  16,N  14)      3.3283         0.001500   
    787. D(H   7,H  17,O  16,O  15)     31.8863         0.001500   
    788. D(H   8,H  17,O  16,N  14)     93.4489         0.001500   
    789. D(H   8,H  17,O  16,O  15)    122.0070         0.001500   
    790. D(H   9,H  17,O  16,N  14)     77.3174         0.001500   
    791. D(H   9,H  17,O  16,O  15)    105.8755         0.001500   
    792. D(H  10,H  17,O  16,N  14)     94.0559         0.001500   
    793. D(H   9,H  17,N  14,O  16)    -94.8152         0.001500   
    794. D(H   9,H  17,N  14,O  15)    143.8766         0.001500   
    795. D(O  15,H  17,C   3,H   7)    -65.7642         0.001500   
    796. D(H  13,H  17,O  16,N  14)     25.1795         0.001500   
    797. D(H  13,H  17,O  16,O  15)     53.7376         0.001500   
    798. D(N  14,H  17,O  16,O  15)     28.5581         0.001500   
    799. D(O  15,H  17,O  16,N  14)    -28.5581         0.001500   
    800. D(O  15,H  17,C   0,C   1)     28.4486         0.001500   
    -----------------------------------------------------------------

Number of atoms                         .... 18
Number of degrees of freedom            .... 800

         *************************************************************
         *                GEOMETRY OPTIMIZATION CYCLE   1            *
         *************************************************************
---------------------------------
CARTESIAN COORDINATES (ANGSTROEM)
---------------------------------
  C     -4.035090    2.511800   -0.555140
  C     -4.770000    2.029650   -1.640290
  C     -4.493670    0.771490   -2.183200
  C     -3.474870   -0.005540   -1.624920
  C     -2.742140    0.470830   -0.536950
  C     -3.022950    1.727280    0.000450
  C     -4.365770    3.878170    0.044880
  H     -3.243710   -0.984470   -2.030320
  H     -5.554040    2.646750   -2.064570
  H     -4.077750    3.907210    1.106200
  H     -5.445440    4.073000   -0.036750
  H     -3.813700    4.656250   -0.502670
  H     -2.447230    2.093920    0.843170
  H     -1.952840   -0.136920   -0.108130
  N     -5.203470    0.311350   -3.235560
  O     -4.986930   -0.679120   -3.664160
  O     -6.006790    0.921210   -3.676410
  H     -9.134480   -1.060400    3.055240

----------------------------
CARTESIAN COORDINATES (A.U.)
----------------------------
  NO LB      ZA    FRAG     MASS         X           Y           Z
   0 C     6.0000    0    12.011   -7.625215    4.746614   -1.049063
   1 C     6.0000    0    12.011   -9.013994    3.835483   -3.099699
   2 C     6.0000    0    12.011   -8.491806    1.457905   -4.125650
   3 C     6.0000    0    12.011   -6.566553   -0.010469   -3.070654
   4 C     6.0000    0    12.011   -5.181894    0.889740   -1.014688
   5 C     6.0000    0    12.011   -5.712548    3.264086    0.000850
   6 C     6.0000    0    12.011   -8.250110    7.328679    0.084811
   7 H     1.0000    0     1.008   -6.129724   -1.860379   -3.836749
   8 H     1.0000    0     1.008  -10.495615    5.001633   -3.901472
   9 H     1.0000    0     1.008   -7.705831    7.383557    2.090415
  10 H     1.0000    0     1.008  -10.290390    7.696855   -0.069447
  11 H     1.0000    0     1.008   -7.206849    8.799037   -0.949909
  12 H     1.0000    0     1.008   -4.624594    3.956935    1.593360
  13 H     1.0000    0     1.008   -3.690333   -0.258741   -0.204336
  14 N     7.0000    0    14.007   -9.833133    0.588366   -6.114322
  15 O     8.0000    0    15.999   -9.423932   -1.283351   -6.924259
  16 O     8.0000    0    15.999  -11.351188    1.740835   -6.947408
  17 H     1.0000    0     1.008  -17.261666   -2.003866    5.773567

--------------------------------
INTERNAL COORDINATES (ANGSTROEM)
--------------------------------
 C      0   0   0     0.000000000000     0.00000000     0.00000000
 C      1   0   0     1.396464053637     0.00000000     0.00000000
 C      2   1   0     1.397882728486   120.56545561     0.00000000
 C      3   2   1     1.397642879744   119.29767263     0.26116101
 C      4   3   2     1.395528699347   120.28935643     0.00000000
 C      5   4   3     1.395105594068   120.13592879     0.00000000
 C      1   2   3     1.528509155910   119.98862275   181.15279733
 H      4   3   2     1.084475933573   120.52439880   180.00014506
 H      2   1   3     1.084225368639   119.21786668   180.53607719
 H      7   1   2     1.100090443736   110.22294135   152.94640752
 H      7   1   2     1.100140670414   109.96820219    32.87673100
 H      7   1   2     1.100000351727   109.16760991   272.98269572
 H      6   5   4     1.084460882835   119.79930647   180.26854404
 H      5   4   3     1.084546515784   119.93949081   179.99546233
 N      3   2   1     1.350187553342   120.36612617   180.24590179
 O     15   3   2     1.100735368969   120.44601747   179.99428023
 O     15   3   2     1.100727470585   120.46469353   359.96914254
 H     11   7   1     7.037131080327   110.65145268    56.40468662

---------------------------
INTERNAL COORDINATES (A.U.)
---------------------------
 C      0   0   0     0.000000000000     0.00000000     0.00000000
 C      1   0   0     2.638934617239     0.00000000     0.00000000
 C      2   1   0     2.641615524178   120.56545561     0.00000000
 C      3   2   1     2.641162275742   119.29767263     0.26116101
 C      4   3   2     2.637167053792   120.28935643     0.00000000
 C      5   4   3     2.636367500690   120.13592879     0.00000000
 C      1   2   3     2.888463697861   119.98862275   181.15279733
 H      4   3   2     2.049362513282   120.52439880   180.00014506
 H      2   1   3     2.048889014177   119.21786668   180.53607719
 H      7   1   2     2.078869661206   110.22294135   152.94640752
 H      7   1   2     2.078964575872   109.96820219    32.87673100
 H      7   1   2     2.078699411981   109.16760991   272.98269572
 H      6   5   4     2.049334071509   119.79930647   180.26854404
 H      5   4   3     2.049495894331   119.93949081   179.99546233
 N      3   2   1     2.551484705246   120.36612617   180.24590179
 O     15   3   2     2.080088393273   120.44601747   179.99428023
 O     15   3   2     2.080073467489   120.46469353   359.96914254
 H     11   7   1    13.298250510323   110.65145268    56.40468662

---------------------
BASIS SET INFORMATION
---------------------
There are 4 groups of distinct atoms

 Group   1 Type C   : 7s4p1d contracted to 3s2p1d pattern {511/31/1}
 Group   2 Type H   : 4s1p contracted to 2s1p pattern {31/1}
 Group   3 Type N   : 7s4p1d contracted to 3s2p1d pattern {511/31/1}
 Group   4 Type O   : 7s4p1d contracted to 3s2p1d pattern {511/31/1}

Atom   0C    basis set group =>   1
Atom   1C    basis set group =>   1
Atom   2C    basis set group =>   1
Atom   3C    basis set group =>   1
Atom   4C    basis set group =>   1
Atom   5C    basis set group =>   1
Atom   6C    basis set group =>   1
Atom   7H    basis set group =>   2
Atom   8H    basis set group =>   2
Atom   9H    basis set group =>   2
Atom  10H    basis set group =>   2
Atom  11H    basis set group =>   2
Atom  12H    basis set group =>   2
Atom  13H    basis set group =>   2
Atom  14N    basis set group =>   3
Atom  15O    basis set group =>   4
Atom  16O    basis set group =>   4
Atom  17H    basis set group =>   2
------------------------------------------------------------------------------
                           ORCA GTO INTEGRAL CALCULATION
------------------------------------------------------------------------------

                         BASIS SET STATISTICS AND STARTUP INFO

 # of primitive gaussian shells          ...  160
 # of primitive gaussian functions       ...  296
 # of contracted shells                  ...   84
 # of contracted basis functions         ...  180
 Highest angular momentum                ...    2
 Maximum contraction depth               ...    5
 Integral package used                   ... LIBINT
 Integral threshhold            Thresh   ...  1.000e-09
 Primitive cut-off              TCut     ...  1.000e-10


------------------------------ INTEGRAL EVALUATION ----------------------------


 * One electron integrals 
 Pre-screening matrix                    ... done
 Shell pair data                         ... done (   0.002 sec)

Timings:
 Total evaluation time               ...     0.004 sec (   0.000 min)
 One electron matrix time            ...     0.070 sec (   0.001 min) =1750.0%
 Schwartz matrix evaluation time     ...     0.534 sec (   0.009 min) =13350.0%

-------------------------------------------------------------------------------
                                 ORCA SCF
-------------------------------------------------------------------------------

------------
SCF SETTINGS
------------
Hamiltonian:
 Density Functional     Method          .... DFT(GTOs)
 Exchange Functional    Exchange        .... B88
   X-Alpha parameter    XAlpha          ....  0.666667
   Becke's b parameter  XBeta           ....  0.004200
 Correlation Functional Correlation     .... LYP
 LDA part of GGA corr.  LDAOpt          .... VWN-5
 Gradients option       PostSCFGGA      .... off
 Hybrid DFT is turned on
   Fraction HF Exchange ScalHFX         ....  0.200000
   Scaling of DF-GGA-X  ScalDFX         ....  0.720000
   Scaling of DF-GGA-C  ScalDFC         ....  0.810000
   Scaling of DF-LDA-C  ScalLDAC        ....  1.000000
   Perturbative correction              ....  0.000000
   Density functional embedding theory  .... OFF
   NL short-range parameter             ....  4.800000


General Settings:
 Integral files         IntName         .... meta_products_optfreq
 Hartree-Fock type      HFTyp           .... RHF
 Total Charge           Charge          ....    1
 Multiplicity           Mult            ....    1
 Number of Electrons    NEL             ....   72
 Basis Dimension        Dim             ....  180
 Nuclear Repulsion      ENuc            ....    514.0577781158 Eh

Convergence Acceleration:
 DIIS                   CNVDIIS         .... on
   Start iteration      DIISMaxIt       ....    12
   Startup error        DIISStart       ....  0.200000
   # of expansion vecs  DIISMaxEq       ....     5
   Bias factor          DIISBfac        ....   1.050
   Max. coefficient     DIISMaxC        ....  10.000
 Newton-Raphson         CNVNR           .... off
 SOSCF                  CNVSOSCF        .... on
   Start iteration      SOSCFMaxIt      ....   150
   Startup grad/error   SOSCFStart      ....  0.003300
 Level Shifting         CNVShift        .... on
   Level shift para.    LevelShift      ....    0.2500
   Turn off err/grad.   ShiftErr        ....    0.0010
 Zerner damping         CNVZerner       .... off
 Static damping         CNVDamp         .... on
   Fraction old density DampFac         ....    0.7000
   Max. Damping (<1)    DampMax         ....    0.9800
   Min. Damping (>=0)   DampMin         ....    0.0000
   Turn off err/grad.   DampErr         ....    0.1000
 Fernandez-Rico         CNVRico         .... off

SCF Procedure:
 Maximum # iterations   MaxIter         ....   500
 SCF integral mode      SCFMode         .... Direct
   Integral package                     .... LIBINT
 Reset frequency        DirectResetFreq ....    20
 Integral Threshold     Thresh          ....  1.000e-09 Eh
 Primitive CutOff       TCut            ....  1.000e-10 Eh

Convergence Tolerance:
 Convergence Check Mode ConvCheckMode   .... Total+1el-Energy
 Convergence forced     ConvForced      .... 0
 Energy Change          TolE            ....  1.000e-05 Eh
 1-El. energy change                    ....  1.000e-02 Eh
 Orbital Gradient       TolG            ....  1.000e-04
 Orbital Rotation angle TolX            ....  1.000e-04
 DIIS Error             TolErr          ....  5.000e-04


Diagonalization of the overlap matrix:
Smallest eigenvalue                        ... 2.647e-04
Time for diagonalization                   ...    0.019 sec
Threshold for overlap eigenvalues          ... 1.000e-08
Number of eigenvalues below threshold      ... 0
Time for construction of square roots      ...    0.013 sec
Total time needed                          ...    0.032 sec

-------------------
DFT GRID GENERATION
-------------------

General Integration Accuracy     IntAcc      ...  4.340
Radial Grid Type                 RadialGrid  ... Gauss-Chebyshev
Angular Grid (max. acc.)         AngularGrid ... Lebedev-110
Angular grid pruning method      GridPruning ... 3 (G Style)
Weight generation scheme         WeightScheme... Becke
Basis function cutoff            BFCut       ...    1.0000e-10
Integration weight cutoff        WCut        ...    1.0000e-14
Grids for H and He will be reduced by one unit

# of grid points (after initial pruning)     ...  23078 (   0.1 sec)
# of grid points (after weights+screening)   ...  21489 (   0.2 sec)
nearest neighbour list constructed           ...    0.0 sec
Grid point re-assignment to atoms done       ...    0.0 sec
Grid point division into batches done        ...    0.1 sec
Reduced shell lists constructed in    0.7 sec

Total number of grid points                  ...    21489
Total number of batches                      ...      346
Average number of points per batch           ...       62
Average number of grid points per atom       ...     1194
Average number of shells per batch           ...    52.29 (62.25%)
Average number of basis functions per batch  ...   110.16 (61.20%)
Average number of large shells per batch     ...    39.41 (75.37%)
Average number of large basis fcns per batch ...    82.67 (75.05%)
Maximum spatial batch extension              ...  19.81, 23.26, 19.49 au
Average spatial batch extension              ...   3.95,  3.87,  3.79 au

Time for grid setup =    1.023 sec

------------------------------
INITIAL GUESS: MODEL POTENTIAL
------------------------------
Loading Hartree-Fock densities                     ... done
Calculating cut-offs                               ... done
Setting up the integral package                    ... done
Initializing the effective Hamiltonian             ... done
Starting the Coulomb interaction                   ... done (   0.6 sec)
Reading the grid                                   ... done
Mapping shells                                     ... done
Starting the XC term evaluation                    ... done (   1.3 sec)
  promolecular density results
     # of electrons  =     72.985778962
     EX              =    -61.465620213
     EC              =     -2.494566229
     EX+EC           =    -63.960186442
Transforming the Hamiltonian                       ... done (   0.0 sec)
Diagonalizing the Hamiltonian                      ... done (   0.0 sec)
Back transforming the eigenvectors                 ... done (   0.0 sec)
Now organizing SCF variables                       ... done
                      ------------------
                      INITIAL GUESS DONE (   3.5 sec)
                      ------------------
--------------
SCF ITERATIONS
--------------
ITER       Energy         Delta-E        Max-DP      RMS-DP      [F,P]     Damp
               ***  Starting incremental Fock matrix formation  ***
  0   -475.1276099899   0.000000000000 0.22716869  0.00377028  0.1951275 0.7000
  1   -475.3334962144  -0.205886224475 0.14941928  0.00257869  0.0833164 0.7000
                               ***Turning on DIIS***
  2   -475.2891828630   0.044313351347 0.37658797  0.00666432  0.0528033 0.0000
  3   -475.1760638578   0.113119005210 0.01803023  0.00058113  0.2087218 0.7000
  4   -475.2139663288  -0.037902471009 0.01538889  0.00060069  0.1831525 0.7000
  5   -475.2478690246  -0.033902695827 0.01263798  0.00051329  0.1590233 0.7000
  6   -475.2739578317  -0.026088807052 0.01036929  0.00042726  0.1391397 0.7000
  7   -475.2937709860  -0.019813154358 0.02628588  0.00115434  0.1227444 0.7000
  8   -475.3244453419  -0.030674355861 0.05979640  0.00307368  0.0792175 0.0000
  9   -475.3717031312  -0.047257789268 0.01004178  0.00034031  0.0056391 0.0000
 10   -475.3721505494  -0.000447418269 0.02584425  0.00047668  0.0053902 0.0000
 11   -475.3744830012  -0.002332451753 0.13180076  0.00259361  0.0153556 0.0000
 12   -475.4366488646  -0.062165863453 0.39887761  0.00466489  0.0440973 0.0000
 13   -475.2639616613   0.172687203396 0.06410652  0.00082735  0.2918081 0.7000
 14   -475.1727577737   0.091203887576 0.06633572  0.00096842  0.3136474 0.7000
 15   -475.0615654208   0.111192352851 0.05255900  0.00086408  0.3005781 0.7000
 16   -474.9607837212   0.100781699669 0.04712154  0.00074239  0.2599134 0.7000
 17   -474.9187266352   0.042057085950 0.05185710  0.00127319  0.2450338 0.7000
 18   -475.0124835065  -0.093756871243 0.20774476  0.00256247  0.2301866 0.7000
 19   -475.3372089306  -0.324725424137 0.48937304  0.00565777  0.0925957 0.0000
               *** Restarting incremental Fock matrix formation ***
                                   *** Resetting DIIS ***
 20   -475.3200107261   0.017198204459 0.83362502  0.01014702  0.0997628 0.0000
 21   -474.3335811162   0.986429609918 0.04703701  0.00065297  0.3188974 0.7000
 22   -474.4068054749  -0.073224358650 0.04752391  0.00066224  0.2997842 0.7000
 23   -474.4771496208  -0.070344145943 0.04024856  0.00056982  0.2797005 0.7000
 24   -474.5373410008  -0.060191379948 0.03368565  0.00049189  0.2620098 0.7000
 25   -474.5916061542  -0.054265153495 0.19997896  0.00332589  0.2462026 0.7000
 26   -475.1963387489  -0.604732594620 0.46745808  0.00678342  0.0898921 0.0000
 27   -475.1742172208   0.022121528080 0.00915743  0.00034004  0.2123451 0.7000
 28   -475.1950857303  -0.020868509545 0.00899767  0.00037184  0.2027576 0.7000
 29   -475.2168968799  -0.021811149556 0.00916047  0.00038652  0.1927698 0.7000
 30   -475.2389739112  -0.022077031337 0.01094115  0.00039239  0.1785616 0.7000
 31   -475.2596548416  -0.020680930356 0.24068600  0.00299313  0.1615481 0.7000
 32   -475.4372945008  -0.177639659243 0.48871656  0.00655779  0.0257314 0.0000
 33   -474.5930026116   0.844291889224 0.02103957  0.00032218  0.2783222 0.7000
 34   -474.6127787623  -0.019776150726 0.02307930  0.00041020  0.2688239 0.7000
 35   -474.6373948341  -0.024616071746 0.02153831  0.00045335  0.2574115 0.7000
 36   -474.6695642162  -0.032169382154 0.02421211  0.00052556  0.2446971 0.7000
 37   -474.7180871293  -0.048522913035 0.19213414  0.00360098  0.2287911 0.7000
 38   -475.2094811506  -0.491394021307 0.45024669  0.00682633  0.0818812 0.0000
 39   -474.9738589225   0.235622228061 0.01393191  0.00049282  0.2852256 0.7000
               *** Restarting incremental Fock matrix formation ***
                                   *** Resetting DIIS ***
 40   -475.0261053582  -0.052246435730 0.24954623  0.00411369  0.2704954 0.7000
 41   -475.3416131224  -0.315507764157 0.48329064  0.00749265  0.0385747 0.0000
 42   -474.4401146693   0.901498453135 0.02419713  0.00063752  0.2807483 0.7000
 43   -474.4821588052  -0.042044135907 0.02626728  0.00072275  0.2702171 0.7000
 44   -474.5199230809  -0.037764275741 0.02238276  0.00064624  0.2589904 0.7000
 45   -474.5484413595  -0.028518278614 0.01742695  0.00053838  0.2498798 0.7000
 46   -474.5751294734  -0.026688113909 0.22278617  0.00396689  0.2412967 0.7000
 47   -475.1616388551  -0.586509381685 0.45240444  0.00719954  0.0851265 0.0000
 48   -474.9132893533   0.248349501825 0.01259832  0.00051728  0.3205346 0.7000
 49   -474.9744406487  -0.061151295422 0.01356043  0.00062596  0.3023321 0.7000
 50   -475.0399687203  -0.065528071567 0.01257522  0.00059685  0.2850830 0.7000
 51   -475.0965843065  -0.056615586237 0.01222070  0.00052772  0.2678594 0.7000
 52   -475.1429702952  -0.046385988650 0.23562919  0.00326084  0.2495018 0.7000
 53   -475.3816994199  -0.238729124686 0.49315940  0.00712158  0.0674542 0.0000
 54   -474.5145444151   0.867155004761 0.03492884  0.00063484  0.2790016 0.7000
 55   -474.5559897361  -0.041445321047 0.03726879  0.00079653  0.2635066 0.7000
 56   -474.5932567026  -0.037266966506 0.03275537  0.00076579  0.2464845 0.7000
 57   -474.6211504089  -0.027893706225 0.03215122  0.00077486  0.2324500 0.7000
 58   -474.6608044077  -0.039653998855 0.18734528  0.00369125  0.2284413 0.7000
 59   -475.1863052012  -0.525500793471 0.42191790  0.00689833  0.0713745 0.0000
               *** Restarting incremental Fock matrix formation ***
                                   *** Resetting DIIS ***
 60   -474.9475779502   0.238727250947 0.24874011  0.00435161  0.2828628 0.7000
 61   -475.3173679345  -0.369789984252 0.47919256  0.00761374  0.0413023 0.0000
 62   -474.4308177946   0.886550139904 0.01992646  0.00058417  0.2786108 0.7000
 63   -474.4710640720  -0.040246277423 0.02203565  0.00064257  0.2707462 0.7000
 64   -474.5084815460  -0.037417473969 0.01807041  0.00055915  0.2620511 0.7000
 65   -474.5386399503  -0.030158404353 0.02193253  0.00047928  0.2545389 0.7000
 66   -474.5735240842  -0.034884133857 0.21869861  0.00384168  0.2437789 0.7000
 67   -475.1731365283  -0.599612444090 0.45633226  0.00713019  0.0867629 0.0000
 68   -474.9709342216   0.202202306685 0.01345689  0.00041841  0.3011414 0.7000
 69   -475.0165415805  -0.045607358882 0.01324490  0.00048327  0.2816254 0.7000
 70   -475.0653691472  -0.048827566757 0.01140035  0.00045195  0.2624162 0.7000
 71   -475.1078161081  -0.042446960905 0.00938538  0.00040996  0.2457855 0.7000
 72   -475.1435073613  -0.035691253118 0.23460863  0.00324358  0.2319235 0.7000
 73   -475.3994707951  -0.255963433827 0.48338054  0.00691748  0.0445959 0.0000
 74   -474.5732871223   0.826183672816 0.02752080  0.00043864  0.2744367 0.7000
 75   -474.5986837860  -0.025396663692 0.02906855  0.00052020  0.2622415 0.7000
 76   -474.6232657785  -0.024581992572 0.02445529  0.00049932  0.2490418 0.7000
 77   -474.6453506951  -0.022084916551 0.02638174  0.00057569  0.2373872 0.7000
 78   -474.6876149329  -0.042264237792 0.18680498  0.00361719  0.2210943 0.7000
 79   -475.2036561598  -0.516041226895 0.42761711  0.00686037  0.0739056 0.0000
               *** Restarting incremental Fock matrix formation ***
                                   *** Resetting DIIS ***
 80   -474.9673082816   0.236347878214 0.24906016  0.00430391  0.2823476 0.7000
 81   -475.3203980982  -0.353089816650 0.48083933  0.00768987  0.0460763 0.0000
 82   -474.4214132998   0.898984798395 0.02477098  0.00067373  0.2794352 0.7000
 83   -474.4660782645  -0.044664964676 0.02648606  0.00075569  0.2685824 0.7000
 84   -474.5061984323  -0.040120167794 0.02255894  0.00067548  0.2569124 0.7000
 85   -474.5386402534  -0.032441821068 0.02277481  0.00059820  0.2497491 0.7000
 86   -474.5807997933  -0.042159539984 0.22694781  0.00401274  0.2405087 0.7000
 87   -475.1599596771  -0.579159883713 0.44513328  0.00719985  0.0815326 0.0000
 88   -474.8976964819   0.262263195150 0.01245833  0.00054683  0.3273896 0.7000
 89   -474.9635243415  -0.065827859604 0.01469413  0.00066976  0.3093957 0.7000
 90   -475.0340660700  -0.070541728527 0.01343233  0.00064027  0.2920895 0.7000
 91   -475.0948490262  -0.060782956130 0.01342970  0.00056495  0.2738695 0.7000
 92   -475.1444508852  -0.049601859068 0.23960592  0.00326849  0.2536052 0.7000
 93   -475.3800516760  -0.235600790772 0.49383988  0.00708416  0.0640423 0.0000
 94   -474.4959193173   0.884132358709 0.03133579  0.00064921  0.2809600 0.7000
 95   -474.5408757052  -0.044956387882 0.03868217  0.00083853  0.2671952 0.7000
 96   -474.5817890567  -0.040913351561 0.03521704  0.00080873  0.2512464 0.7000
 97   -474.6116815357  -0.029892479007 0.03321423  0.00077886  0.2376526 0.7000
 98   -474.6457124853  -0.034030949601 0.18422459  0.00372120  0.2266291 0.7000
 99   -475.1815921557  -0.535879670391 0.43058746  0.00693516  0.0753226 0.0000
               *** Restarting incremental Fock matrix formation ***
                                   *** Resetting DIIS ***
100   -474.9391660500   0.242426105722 0.24800294  0.00437658  0.2752044 0.7000
101   -475.3167812058  -0.377615155798 0.47884252  0.00757275  0.0355888 0.0000
102   -474.4357974327   0.880983773129 0.01504753  0.00049799  0.2781592 0.7000
103   -474.4735542782  -0.037756845534 0.01647190  0.00053372  0.2732761 0.7000
104   -474.5105270959  -0.036972817649 0.01357528  0.00046086  0.2676024 0.7000
105   -474.5415795658  -0.031052469969 0.02399401  0.00043518  0.2620807 0.7000
106   -474.5763102584  -0.034730692515 0.19976673  0.00360781  0.2510004 0.7000
107   -475.1852434008  -0.608933142443 0.46622575  0.00707379  0.0910279 0.0000
108   -475.0441102208   0.141133179970 0.01407734  0.00036754  0.2548983 0.7000
109   -475.0767373579  -0.032627137049 0.01400019  0.00041121  0.2340691 0.7000
110   -475.1118266707  -0.035089312791 0.01132354  0.00037378  0.2134261 0.7000
111   -475.1427652681  -0.030938597473 0.00778903  0.00033015  0.1967597 0.7000
112   -475.1690444178  -0.026279149653 0.23157740  0.00320605  0.1853282 0.7000
113   -475.3955654928  -0.226521074996 0.48996654  0.00723528  0.0806879 0.0000
114   -474.5246289081   0.870936584649 0.03954237  0.00055696  0.2759444 0.7000
115   -474.5597375025  -0.035108594338 0.03965095  0.00062366  0.2581479 0.7000
116   -474.5929442210  -0.033206718482 0.03576826  0.00067530  0.2434212 0.7000
117   -474.6379504673  -0.045006246318 0.07130438  0.00136299  0.2321228 0.7000
118   -474.8495108138  -0.211560346476 0.19209427  0.00329020  0.2218874 0.7000
119   -475.2569340759  -0.407423262152 0.37547445  0.00627894  0.0759732 0.0000
               *** Restarting incremental Fock matrix formation ***
                                   *** Resetting DIIS ***
120   -475.0669968702   0.189937205735 0.25039856  0.00394302  0.2910108 0.7000
121   -475.3474103056  -0.280413435414 0.48580787  0.00749138  0.0400609 0.0000
122   -474.4216820872   0.925728218365 0.03195059  0.00074596  0.2819697 0.7000
123   -474.4773196040  -0.055637516749 0.03976672  0.00090813  0.2700495 0.7000
124   -474.5306697610  -0.053350157009 0.03754492  0.00087719  0.2557994 0.7000
125   -474.5832240048  -0.052554243804 0.03586519  0.00085718  0.2446029 0.7000
126   -474.6564142518  -0.073190247042 0.19508196  0.00398400  0.2454976 0.7000
127   -475.1696773079  -0.513263056094 0.43676842  0.00710691  0.0810269 0.0000
128   -474.8524901596   0.317187148293 0.01620021  0.00061577  0.2987119 0.7000
129   -474.9311003094  -0.078610149806 0.02433356  0.00080952  0.2835423 0.7000
130   -475.0192991291  -0.088198819688 0.02643759  0.00084429  0.2701778 0.7000
131   -475.0984216026  -0.079122473459 0.01875957  0.00074306  0.2534112 0.7000
132   -475.1617004094  -0.063278806838 0.24524855  0.00323867  0.2294228 0.7000
133   -475.3771085417  -0.215408132241 0.50025256  0.00704693  0.0714395 0.0000
134   -474.4742368764   0.902871665247 0.03208629  0.00065800  0.2859788 0.7000
135   -474.5212452530  -0.047008376603 0.04183349  0.00088743  0.2736702 0.7000
136   -474.5648542734  -0.043609020390 0.03732078  0.00085983  0.2574108 0.7000
137   -474.5962791233  -0.031424849923 0.03495336  0.00083020  0.2425986 0.7000
138   -474.6277674622  -0.031488338857 0.18771248  0.00375106  0.2317957 0.7000
139   -475.1740743357  -0.546306873528 0.43871167  0.00697020  0.0786835 0.0000
               *** Restarting incremental Fock matrix formation ***
                                   *** Resetting DIIS ***
140   -474.9330865613   0.240987774397 0.24788799  0.00439819  0.2835552 0.7000
141   -475.3135923825  -0.380505821147 0.47903105  0.00758550  0.0352563 0.0000
142   -474.4327542256   0.880838156904 0.01592057  0.00050671  0.2781916 0.7000
143   -474.4713332246  -0.038578999015 0.01802514  0.00054392  0.2732086 0.7000
144   -474.5090208613  -0.037687636718 0.01499517  0.00046925  0.2673917 0.7000
145   -474.5406939120  -0.031673050736 0.02403293  0.00044114  0.2617217 0.7000
146   -474.5759035807  -0.035209668653 0.19971268  0.00361432  0.2506153 0.7000
147   -475.1851393459  -0.609235765209 0.46562935  0.00706581  0.0907815 0.0000
148   -475.0465928283   0.138546517617 0.01303367  0.00036547  0.2502133 0.7000
149   -475.0786542636  -0.032061435292 0.01290538  0.00040782  0.2304585 0.7000
                      *** Initiating the SOSCF procedure ***
                           *** Shutting down DIIS ***
                      *** Re-Reading the Fockian *** 
                      *** Removing any level shift *** 
ITER      Energy       Delta-E        Grad      Rot      Max-DP    RMS-DP
150   -475.11311492  -0.0344606591  0.009918  0.009918  0.034729  0.001233
               *** Restarting incremental Fock matrix formation ***
151   -475.20889351  -0.0957785890  0.126097  0.870018  0.063332  0.003412
152   -475.21883762  -0.0099441067  0.140089  0.456614  0.051367  0.002255
153   -475.25662959  -0.0377919694  0.057858  0.257441  0.077774  0.002860
154   -475.34371291  -0.0870833246  0.059578  0.195311  0.054689  0.002391
155   -475.35839320  -0.0146802861  0.025411  0.045471  0.036267  0.001688
156   -475.37119734  -0.0128041375  0.007640  0.036581  0.015107  0.000768
157   -475.37139262  -0.0001952882  0.009747  0.008982  0.011883  0.000364
158   -475.37252304  -0.0011304193  0.005661  0.015421  0.007788  0.000219
159   -475.37308596  -0.0005629182  0.009636  0.251006  0.118865  0.002739
160   -475.39385721  -0.0207712498  0.056951  0.200017  0.097787  0.002083
161   -475.37043119   0.0234260211  0.022006  0.188642  0.092909  0.002528
162   -475.36598774   0.0044434497  0.026666  0.048406  0.027161  0.000911
163   -475.37191203  -0.0059242925  0.012663  0.113519  0.057822  0.001413
164   -475.37166264   0.0002493892  0.015937  0.039670  0.020571  0.000534
165   -475.37236508  -0.0007024323  0.005689  0.046571  0.024656  0.000569
166   -475.37247787  -0.0001127975  0.005553  0.220069  0.112061  0.002714

                    ****Warning: large step in SOSCF, scaling down***
167   -475.37663076  -0.0041528834  0.051944 10.055384  2.692322  0.061762

                    ****Warning: large step in SOSCF, scaling down***
168   -463.64557870  11.7310520562  0.334862  7.155750  0.690933  0.015252

          ************************************************************
          *                     SERIOUS PROBLEM IN SOSCF             *
          *                     ------------------------             *
          *            HUGE, UNRELIABLE STEP WAS ABOUT TO BE TAKEN   *
          *                         ABORTING THE RUN                 *
          ************************************************************
[file orca_scf/scf2.cpp, line 1476]: 


ORCA finished by error termination in SCF
Calling Command: orca_scf meta_products_optfreq.gbw b 
[file orca_tools/qcmsg.cpp, line 458]: 
  .... aborting the run

