
                                 *****************
                                 * O   R   C   A *
                                 *****************

                                            #,                                       
                                            ###                                      
                                            ####                                     
                                            #####                                    
                                            ######                                   
                                           ########,                                 
                                     ,,################,,,,,                         
                               ,,#################################,,                 
                          ,,##########################################,,             
                       ,#########################################, ''#####,          
                    ,#############################################,,   '####,        
                  ,##################################################,,,,####,       
                ,###########''''           ''''###############################       
              ,#####''   ,,,,##########,,,,          '''####'''          '####       
            ,##' ,,,,###########################,,,                        '##       
           ' ,,###''''                  '''############,,,                           
         ,,##''                                '''############,,,,        ,,,,,,###''
      ,#''                                            '''#######################'''  
     '                                                          ''''####''''         
             ,#######,   #######,   ,#######,      ##                                
            ,#'     '#,  ##    ##  ,#'     '#,    #''#        ######   ,####,        
            ##       ##  ##   ,#'  ##            #'  '#       #        #'  '#        
            ##       ##  #######   ##           ,######,      #####,   #    #        
            '#,     ,#'  ##    ##  '#,     ,#' ,#      #,         ##   #,  ,#        
             '#######'   ##     ##  '#######'  #'      '#     #####' # '####'        



                  #######################################################
                  #                        -***-                        #
                  #          Department of theory and spectroscopy      #
                  #    Directorship and core code : Frank Neese         #
                  #        Max Planck Institute fuer Kohlenforschung    #
                  #                Kaiser Wilhelm Platz 1               #
                  #                 D-45470 Muelheim/Ruhr               #
                  #                      Germany                        #
                  #                                                     #
                  #                  All rights reserved                #
                  #                        -***-                        #
                  #######################################################



                         Program Version 5.0.4 -  RELEASE  -

 With contributions from (in alphabetic order):
   Daniel Aravena         : Magnetic Suceptibility
   Michael Atanasov       : Ab Initio Ligand Field Theory (pilot matlab implementation)
   Alexander A. Auer      : GIAO ZORA, VPT2 properties, NMR spectrum
   Ute Becker             : Parallelization
   Giovanni Bistoni       : ED, misc. LED, open-shell LED, HFLD
   Martin Brehm           : Molecular dynamics
   Dmytro Bykov           : SCF Hessian
   Vijay G. Chilkuri      : MRCI spin determinant printing, contributions to CSF-ICE
   Dipayan Datta          : RHF DLPNO-CCSD density
   Achintya Kumar Dutta   : EOM-CC, STEOM-CC
   Dmitry Ganyushin       : Spin-Orbit,Spin-Spin,Magnetic field MRCI
   Miquel Garcia          : C-PCM and meta-GGA Hessian, CC/C-PCM, Gaussian charge scheme
   Yang Guo               : DLPNO-NEVPT2, F12-NEVPT2, CIM, IAO-localization
   Andreas Hansen         : Spin unrestricted coupled pair/coupled cluster methods
   Benjamin Helmich-Paris : MC-RPA, TRAH-SCF, COSX integrals
   Lee Huntington         : MR-EOM, pCC
   Robert Izsak           : Overlap fitted RIJCOSX, COSX-SCS-MP3, EOM
   Marcus Kettner         : VPT2
   Christian Kollmar      : KDIIS, OOCD, Brueckner-CCSD(T), CCSD density, CASPT2, CASPT2-K
   Simone Kossmann        : Meta GGA functionals, TD-DFT gradient, OOMP2, MP2 Hessian
   Martin Krupicka        : Initial AUTO-CI
   Lucas Lang             : DCDCAS
   Marvin Lechner         : AUTO-CI (C++ implementation), FIC-MRCC
   Dagmar Lenk            : GEPOL surface, SMD
   Dimitrios Liakos       : Extrapolation schemes; Compound Job, initial MDCI parallelization
   Dimitrios Manganas     : Further ROCIS development; embedding schemes
   Dimitrios Pantazis     : SARC Basis sets
   Anastasios Papadopoulos: AUTO-CI, single reference methods and gradients
   Taras Petrenko         : DFT Hessian,TD-DFT gradient, ASA, ECA, R-Raman, ABS, FL, XAS/XES, NRVS
   Peter Pinski           : DLPNO-MP2, DLPNO-MP2 Gradient
   Christoph Reimann      : Effective Core Potentials
   Marius Retegan         : Local ZFS, SOC
   Christoph Riplinger    : Optimizer, TS searches, QM/MM, DLPNO-CCSD(T), (RO)-DLPNO pert. Triples
   Tobias Risthaus        : Range-separated hybrids, TD-DFT gradient, RPA, STAB
   Michael Roemelt        : Original ROCIS implementation
   Masaaki Saitow         : Open-shell DLPNO-CCSD energy and density
   Barbara Sandhoefer     : DKH picture change effects
   Avijit Sen             : IP-ROCIS
   Kantharuban Sivalingam : CASSCF convergence, NEVPT2, FIC-MRCI
   Bernardo de Souza      : ESD, SOC TD-DFT
   Georgi Stoychev        : AutoAux, RI-MP2 NMR, DLPNO-MP2 response
   Willem Van den Heuvel  : Paramagnetic NMR
   Boris Wezisla          : Elementary symmetry handling
   Frank Wennmohs         : Technical directorship


 We gratefully acknowledge several colleagues who have allowed us to
 interface, adapt or use parts of their codes:
   Stefan Grimme, W. Hujo, H. Kruse, P. Pracht,  : VdW corrections, initial TS optimization,
                  C. Bannwarth, S. Ehlert          DFT functionals, gCP, sTDA/sTD-DF
   Ed Valeev, F. Pavosevic, A. Kumar             : LibInt (2-el integral package), F12 methods
   Garnet Chan, S. Sharma, J. Yang, R. Olivares  : DMRG
   Ulf Ekstrom                                   : XCFun DFT Library
   Mihaly Kallay                                 : mrcc  (arbitrary order and MRCC methods)
   Jiri Pittner, Ondrej Demel                    : Mk-CCSD
   Frank Weinhold                                : gennbo (NPA and NBO analysis)
   Christopher J. Cramer and Donald G. Truhlar   : smd solvation model
   Lars Goerigk                                  : TD-DFT with DH, B97 family of functionals
   V. Asgeirsson, H. Jonsson                     : NEB implementation
   FAccTs GmbH                                   : IRC, NEB, NEB-TS, DLPNO-Multilevel, CI-OPT
                                                   MM, QMMM, 2- and 3-layer-ONIOM, Crystal-QMMM,
                                                   LR-CPCM, SF, NACMEs, symmetry and pop. for TD-DFT,
                                                   nearIR, NL-DFT gradient (VV10), updates on ESD,
                                                   ML-optimized integration grids
   S Lehtola, MJT Oliveira, MAL Marques          : LibXC Library
   Liviu Ungur et al                             : ANISO software


 Your calculation uses the libint2 library for the computation of 2-el integrals
 For citations please refer to: http://libint.valeyev.net

 Your ORCA version has been built with support for libXC version: 5.1.0
 For citations please refer to: https://tddft.org/programs/libxc/

 This ORCA versions uses:
   CBLAS   interface :  Fast vector & matrix operations
   LAPACKE interface :  Fast linear algebra routines
   Shared memory     :  Shared parallel matrices


================================================================================

----- Orbital basis set information -----
Your calculation utilizes the basis: def2-QZVPP
   F. Weigend and R. Ahlrichs, Phys. Chem. Chem. Phys. 7, 3297 (2005).

----- AuxJ basis set information -----
Your calculation utilizes the auxiliary basis: def2/J
   F. Weigend, Phys. Chem. Chem. Phys. 8, 1057 (2006).

================================================================================
                                        WARNINGS
                       Please study these warnings very carefully!
================================================================================


INFO   : the flag for use of the SHARK integral package has been found!

================================================================================
                                       INPUT FILE
================================================================================
NAME = fukui_neutral.inp
|  1> !B3LYP DEF2-QZVPP
|  2> 
|  3> %scf
|  4> convergence tight
|  5> end
|  6> 
|  7> * xyz 0 1
|  8>   C   -7.64955123257574      1.05667496322029      0.00014520838104
|  9>   C   -8.79916351080206      0.24872780425274      0.00008905118997
| 10>   C   -8.67321655981621     -1.13811711906506     -0.00000919817803
| 11>   C   -7.40029987012933     -1.72545521617015     -0.00005668085097
| 12>   C   -6.25283944731800     -0.92603412378881     -0.00000445009069
| 13>   C   -6.37843668408918      0.46455608191688      0.00009149100933
| 14>   H   -9.77661143532832      0.73646330403028      0.00013423090312
| 15>   H   -9.56538097816012     -1.76944944365123     -0.00004787808665
| 16>   H   -7.30398836209473     -2.81446583393220     -0.00013419510464
| 17>   H   -5.26279373559463     -1.38857504724656     -0.00004062474458
| 18>   H   -5.48778053780068      1.10055393291687      0.00013390758895
| 19>   C   -7.78086952931509      2.53411063434570      0.00027982611682
| 20>   O   -8.83232576750578      3.13199127167985     -0.00028240644287
| 21>   H   -6.80289234947011      3.08481879149140     -0.00029828169081
| 22> **                         ****END OF INPUT****
================================================================================

                       ****************************
                       * Single Point Calculation *
                       ****************************

---------------------------------
CARTESIAN COORDINATES (ANGSTROEM)
---------------------------------
  C     -7.649551    1.056675    0.000145
  C     -8.799164    0.248728    0.000089
  C     -8.673217   -1.138117   -0.000009
  C     -7.400300   -1.725455   -0.000057
  C     -6.252839   -0.926034   -0.000004
  C     -6.378437    0.464556    0.000091
  H     -9.776611    0.736463    0.000134
  H     -9.565381   -1.769449   -0.000048
  H     -7.303988   -2.814466   -0.000134
  H     -5.262794   -1.388575   -0.000041
  H     -5.487781    1.100554    0.000134
  C     -7.780870    2.534111    0.000280
  O     -8.832326    3.131991   -0.000282
  H     -6.802892    3.084819   -0.000298

----------------------------
CARTESIAN COORDINATES (A.U.)
----------------------------
  NO LB      ZA    FRAG     MASS         X           Y           Z
   0 C     6.0000    0    12.011  -14.455557    1.996826    0.000274
   1 C     6.0000    0    12.011  -16.628009    0.470027    0.000168
   2 C     6.0000    0    12.011  -16.390004   -2.150730   -0.000017
   3 C     6.0000    0    12.011  -13.984540   -3.260638   -0.000107
   4 C     6.0000    0    12.011  -11.816154   -1.749951   -0.000008
   5 C     6.0000    0    12.011  -12.053498    0.877884    0.000173
   6 H     1.0000    0     1.008  -18.475118    1.391714    0.000254
   7 H     1.0000    0     1.008  -18.075950   -3.343775   -0.000090
   8 H     1.0000    0     1.008  -13.802538   -5.318570   -0.000254
   9 H     1.0000    0     1.008   -9.945239   -2.624027   -0.000077
  10 H     1.0000    0     1.008  -10.370402    2.079746    0.000253
  11 C     6.0000    0    12.011  -14.703712    4.788775    0.000529
  12 O     8.0000    0    15.999  -16.690677    5.918606   -0.000534
  13 H     1.0000    0     1.008  -12.855603    5.829463   -0.000564

--------------------------------
INTERNAL COORDINATES (ANGSTROEM)
--------------------------------
 C      0   0   0     0.000000000000     0.00000000     0.00000000
 C      1   0   0     1.405128821527     0.00000000     0.00000000
 C      2   1   0     1.392552148197   119.91042912     0.00000000
 C      3   2   1     1.401885495128   119.95824004     0.00000000
 C      4   3   2     1.398477567782   120.36643130     0.00000000
 C      5   4   3     1.396250620517   119.70352069     0.00000000
 H      2   1   3     1.092378306698   118.38178369   179.99941564
 H      3   2   1     1.092949154775   120.09569114   179.99968451
 H      4   3   2     1.093261193945   119.82319040   180.00002277
 H      5   4   3     1.092764667476   120.09398267   179.99992937
 H      6   5   4     1.094422970883   120.36887618   179.99995085
 C      1   2   3     1.483260150983   120.02028762   180.00133630
 O     12   1   2     1.209554378040   124.70273360   359.96364377
 H     12   1   2     1.122372118708   114.30501524   180.03437023

---------------------------
INTERNAL COORDINATES (A.U.)
---------------------------
 C      0   0   0     0.000000000000     0.00000000     0.00000000
 C      1   0   0     2.655308655566     0.00000000     0.00000000
 C      2   1   0     2.631542187296   119.91042912     0.00000000
 C      3   2   1     2.649179656908   119.95824004     0.00000000
 C      4   3   2     2.642739607541   120.36643130     0.00000000
 C      5   4   3     2.638531287095   119.70352069     0.00000000
 H      2   1   3     2.064295834297   118.38178369   179.99941564
 H      3   2   1     2.065374580825   120.09569114   179.99968451
 H      4   3   2     2.065964249401   119.82319040   180.00002277
 H      5   4   3     2.065025950355   120.09398267   179.99992937
 H      6   5   4     2.068159689642   120.36887618   179.99995085
 C      1   2   3     2.802955470717   120.02028762   180.00133630
 O     12   1   2     2.285726518580   124.70273360   359.96364377
 H     12   1   2     2.120975924707   114.30501524   180.03437023

---------------------
BASIS SET INFORMATION
---------------------
There are 3 groups of distinct atoms

 Group   1 Type C   : 15s8p3d2f1g contracted to 7s4p3d2f1g pattern {8211111/5111/111/11/1}
 Group   2 Type H   : 7s3p2d1f contracted to 4s3p2d1f pattern {4111/111/11/1}
 Group   3 Type O   : 15s8p3d2f1g contracted to 7s4p3d2f1g pattern {8211111/5111/111/11/1}

Atom   0C    basis set group =>   1
Atom   1C    basis set group =>   1
Atom   2C    basis set group =>   1
Atom   3C    basis set group =>   1
Atom   4C    basis set group =>   1
Atom   5C    basis set group =>   1
Atom   6H    basis set group =>   2
Atom   7H    basis set group =>   2
Atom   8H    basis set group =>   2
Atom   9H    basis set group =>   2
Atom  10H    basis set group =>   2
Atom  11C    basis set group =>   1
Atom  12O    basis set group =>   3
Atom  13H    basis set group =>   2
---------------------------------
AUXILIARY/J BASIS SET INFORMATION
---------------------------------
There are 3 groups of distinct atoms

 Group   1 Type C   : 12s5p4d2f1g contracted to 6s4p3d1f1g pattern {711111/2111/211/2/1}
 Group   2 Type H   : 5s2p1d contracted to 3s1p1d pattern {311/2/1}
 Group   3 Type O   : 12s5p4d2f1g contracted to 6s4p3d1f1g pattern {711111/2111/211/2/1}

Atom   0C    basis set group =>   1
Atom   1C    basis set group =>   1
Atom   2C    basis set group =>   1
Atom   3C    basis set group =>   1
Atom   4C    basis set group =>   1
Atom   5C    basis set group =>   1
Atom   6H    basis set group =>   2
Atom   7H    basis set group =>   2
Atom   8H    basis set group =>   2
Atom   9H    basis set group =>   2
Atom  10H    basis set group =>   2
Atom  11C    basis set group =>   1
Atom  12O    basis set group =>   3
Atom  13H    basis set group =>   2
------------------------------------------------------------------------------
                           ORCA GTO INTEGRAL CALCULATION
                           -- RI-GTO INTEGRALS CHOSEN --
------------------------------------------------------------------------------
------------------------------------------------------------------------------
                   ___                                                        
                  /   \      - P O W E R E D   B Y -                         
                 /     \                                                     
                 |  |  |   _    _      __       _____    __    __             
                 |  |  |  | |  | |    /  \     |  _  \  |  |  /  |          
                  \  \/   | |  | |   /    \    | | | |  |  | /  /          
                 / \  \   | |__| |  /  /\  \   | |_| |  |  |/  /          
                |  |  |   |  __  | /  /__\  \  |    /   |      \           
                |  |  |   | |  | | |   __   |  |    \   |  |\   \          
                \     /   | |  | | |  |  |  |  | |\  \  |  | \   \       
                 \___/    |_|  |_| |__|  |__|  |_| \__\ |__|  \__/        
                                                                              
                      - O R C A' S   B I G   F R I E N D -                    
                                      &                                       
                       - I N T E G R A L  F E E D E R -                       
                                                                              
 v1 FN, 2020, v2 2021                                                         
------------------------------------------------------------------------------


Reading SHARK input file fukui_neutral.SHARKINP.tmp ... ok
----------------------
SHARK INTEGRAL PACKAGE
----------------------

Number of atoms                             ...     14
Number of basis functions                   ...    636
Number of shells                            ...    196
Maximum angular momentum                    ...      4
Integral batch strategy                     ... SHARK/LIBINT Hybrid
RI-J (if used) integral strategy            ... SPLIT-RIJ (Revised 2003 algorithm where possible)
Printlevel                                  ...      1
Contraction scheme used                     ... SEGMENTED contraction
Coulomb Range Separation                    ... NOT USED
Exchange Range Separation                   ... NOT USED
Finite Nucleus Model                        ... NOT USED
Auxiliary Coulomb fitting basis             ... AVAILABLE
   # of basis functions in Aux-J            ...    458
   # of shells in Aux-J                     ...    150
   Maximum angular momentum in Aux-J        ...      4
Auxiliary J/K fitting basis                 ... NOT available
Auxiliary Correlation fitting basis         ... NOT available
Auxiliary 'external' fitting basis          ... NOT available
Integral threshold                          ...     2.500000e-11
Primitive cut-off                           ...     2.500000e-12
Primitive pair pre-selection threshold      ...     2.500000e-12

Calculating pre-screening integrals         ... done (  2.3 sec) Dimension = 196
Organizing shell pair data                  ... done (  2.8 sec)
Shell pair information
Total number of shell pairs                 ...     19306
Shell pairs after pre-screening             ...     16460
Total number of primitive shell pairs       ...     48553
Primitive shell pairs kept                  ...     31784
          la=0 lb=0:   2548 shell pairs
          la=1 lb=0:   3484 shell pairs
          la=1 lb=1:   1179 shell pairs
          la=2 lb=0:   2379 shell pairs
          la=2 lb=1:   1616 shell pairs
          la=2 lb=2:    570 shell pairs
          la=3 lb=0:   1450 shell pairs
          la=3 lb=1:    977 shell pairs
          la=3 lb=2:    678 shell pairs
          la=3 lb=3:    216 shell pairs
          la=4 lb=0:    555 shell pairs
          la=4 lb=1:    365 shell pairs
          la=4 lb=2:    254 shell pairs
          la=4 lb=3:    156 shell pairs
          la=4 lb=4:     33 shell pairs

Calculating one electron integrals          ... done (  0.8 sec)
Calculating RI/J V-Matrix + Cholesky decomp.... done (  0.0 sec)
Calculating Nuclear repulsion               ... done (  0.0 sec) ENN=    320.254665227820 Eh

SHARK setup successfully completed in  11.7 seconds

Maximum memory used throughout the entire GTOINT-calculation: 571.1 MB
-------------------------------------------------------------------------------
                                 ORCA SCF
-------------------------------------------------------------------------------

------------
SCF SETTINGS
------------
Hamiltonian:
 Density Functional     Method          .... DFT(GTOs)
 Exchange Functional    Exchange        .... B88
   X-Alpha parameter    XAlpha          ....  0.666667
   Becke's b parameter  XBeta           ....  0.004200
 Correlation Functional Correlation     .... LYP
 LDA part of GGA corr.  LDAOpt          .... VWN-5
 Gradients option       PostSCFGGA      .... off
 Hybrid DFT is turned on
   Fraction HF Exchange ScalHFX         ....  0.200000
   Scaling of DF-GGA-X  ScalDFX         ....  0.720000
   Scaling of DF-GGA-C  ScalDFC         ....  0.810000
   Scaling of DF-LDA-C  ScalLDAC        ....  1.000000
   Perturbative correction              ....  0.000000
   Density functional embedding theory  .... OFF
   NL short-range parameter             ....  4.800000
 RI-approximation to the Coulomb term is turned on
   Number of AuxJ basis functions       .... 458
   RIJ-COSX (HFX calculated with COS-X)).... on


General Settings:
 Integral files         IntName         .... fukui_neutral
 Hartree-Fock type      HFTyp           .... RHF
 Total Charge           Charge          ....    0
 Multiplicity           Mult            ....    1
 Number of Electrons    NEL             ....   56
 Basis Dimension        Dim             ....  636
 Nuclear Repulsion      ENuc            ....    320.2546652278 Eh

Convergence Acceleration:
 DIIS                   CNVDIIS         .... on
   Start iteration      DIISMaxIt       ....    12
   Startup error        DIISStart       ....  0.200000
   # of expansion vecs  DIISMaxEq       ....     5
   Bias factor          DIISBfac        ....   1.050
   Max. coefficient     DIISMaxC        ....  10.000
 Trust-Rad. Augm. Hess. CNVTRAH         .... auto
   Auto Start mean grad. ratio tolernc. ....  1.125000
   Auto Start start iteration           ....    20
   Auto Start num. interpolation iter.  ....    10
   Max. Number of Micro iterations      ....    16
   Max. Number of Macro iterations      .... Maxiter - #DIIS iter
   Number of Davidson start vectors     ....     2
   Converg. threshold I  (grad. norm)   ....   1.000e-05
   Converg. threshold II (energy diff.) ....   1.000e-08
   Grad. Scal. Fac. for Micro threshold ....   0.100
   Minimum threshold for Micro iter.    ....   0.010
   NR start threshold (gradient norm)   ....   0.001
   Initial trust radius                 ....   0.400
   Minimum AH scaling param. (alpha)    ....   1.000
   Maximum AH scaling param. (alpha)    .... 1000.000
   Orbital update algorithm             .... Taylor
   White noise on init. David. guess    .... on
   Maximum white noise                  ....   0.010
   Quad. conv. algorithm                .... NR
 SOSCF                  CNVSOSCF        .... on
   Start iteration      SOSCFMaxIt      ....   150
   Startup grad/error   SOSCFStart      ....  0.003300
 Level Shifting         CNVShift        .... on
   Level shift para.    LevelShift      ....    0.2500
   Turn off err/grad.   ShiftErr        ....    0.0010
 Zerner damping         CNVZerner       .... off
 Static damping         CNVDamp         .... on
   Fraction old density DampFac         ....    0.7000
   Max. Damping (<1)    DampMax         ....    0.9800
   Min. Damping (>=0)   DampMin         ....    0.0000
   Turn off err/grad.   DampErr         ....    0.1000
 Fernandez-Rico         CNVRico         .... off

SCF Procedure:
 Maximum # iterations   MaxIter         ....   125
 SCF integral mode      SCFMode         .... Direct
   Integral package                     .... SHARK and LIBINT hybrid scheme
 Reset frequency        DirectResetFreq ....    20
 Integral Threshold     Thresh          ....  2.500e-11 Eh
 Primitive CutOff       TCut            ....  2.500e-12 Eh

Convergence Tolerance:
 Convergence Check Mode ConvCheckMode   .... Total+1el-Energy
 Convergence forced     ConvForced      .... 0
 Energy Change          TolE            ....  1.000e-08 Eh
 1-El. energy change                    ....  1.000e-05 Eh
 Orbital Gradient       TolG            ....  1.000e-05
 Orbital Rotation angle TolX            ....  1.000e-05
 DIIS Error             TolErr          ....  5.000e-07


Diagonalization of the overlap matrix:
Smallest eigenvalue                        ... 6.756e-06
Time for diagonalization                   ...    0.231 sec
Threshold for overlap eigenvalues          ... 1.000e-08
Number of eigenvalues below threshold      ... 0
Time for construction of square roots      ...    0.165 sec
Total time needed                          ...    0.398 sec

Time for model grid setup =    2.214 sec

------------------------------
INITIAL GUESS: MODEL POTENTIAL
------------------------------
Loading Hartree-Fock densities                     ... done
Calculating cut-offs                               ... done
Initializing the effective Hamiltonian             ... done
Setting up the integral package (SHARK)            ... done
Starting the Coulomb interaction                   ... done (   4.8 sec)
Reading the grid                                   ... done
Mapping shells                                     ... done
Starting the XC term evaluation                    ... done (  11.3 sec)
  promolecular density results
     # of electrons  =     55.995658813
     EX              =    -45.917422734
     EC              =     -1.881935341
     EX+EC           =    -47.799358075
Transforming the Hamiltonian                       ... done (   0.2 sec)
Diagonalizing the Hamiltonian                      ... done (   0.4 sec)
Back transforming the eigenvectors                 ... done (   0.1 sec)
Now organizing SCF variables                       ... done
                      ------------------
                      INITIAL GUESS DONE (  19.0 sec)
                      ------------------
-------------------
DFT GRID GENERATION
-------------------

General Integration Accuracy     IntAcc      ... 4.388
Radial Grid Type                 RadialGrid  ... OptM3 with GC (2021)
Angular Grid (max. ang.)         AngularGrid ... 4 (Lebedev-302)
Angular grid pruning method      GridPruning ... 4 (adaptive)
Weight generation scheme         WeightScheme... Becke
Basis function cutoff            BFCut       ... 1.0000e-11
Integration weight cutoff        WCut        ... 1.0000e-14
Angular grids for H and He will be reduced by one unit
Partially contracted basis set               ... off
Rotationally invariant grid construction     ... off

Total number of grid points                  ...    69667
Total number of batches                      ...     1095
Average number of points per batch           ...       63
Average number of grid points per atom       ...     4976
Time for grid setup =    8.825 sec

--------------------
COSX GRID GENERATION
--------------------

GRIDX 1
-------
General Integration Accuracy     IntAcc      ... 3.816
Radial Grid Type                 RadialGrid  ... OptM3 with GC (2021)
Angular Grid (max. ang.)         AngularGrid ... 1 (Lebedev-50)
Angular grid pruning method      GridPruning ... 4 (adaptive)
Weight generation scheme         WeightScheme... Becke
Basis function cutoff            BFCut       ... 1.0000e-11
Integration weight cutoff        WCut        ... 1.0000e-14
Angular grids for H and He will be reduced by one unit
Partially contracted basis set               ... on
Rotationally invariant grid construction     ... off

Total number of grid points                  ...     8916
Total number of batches                      ...      146
Average number of points per batch           ...       61
Average number of grid points per atom       ...      637
UseSFitting                                  ... on

GRIDX 2
-------
General Integration Accuracy     IntAcc      ... 4.020
Radial Grid Type                 RadialGrid  ... OptM3 with GC (2021)
Angular Grid (max. ang.)         AngularGrid ... 2 (Lebedev-110)
Angular grid pruning method      GridPruning ... 4 (adaptive)
Weight generation scheme         WeightScheme... Becke
Basis function cutoff            BFCut       ... 1.0000e-11
Integration weight cutoff        WCut        ... 1.0000e-14
Angular grids for H and He will be reduced by one unit
Partially contracted basis set               ... on
Rotationally invariant grid construction     ... off

Total number of grid points                  ...    21562
Total number of batches                      ...      342
Average number of points per batch           ...       63
Average number of grid points per atom       ...     1540
UseSFitting                                  ... on

GRIDX 3
-------
General Integration Accuracy     IntAcc      ... 4.338
Radial Grid Type                 RadialGrid  ... OptM3 with GC (2021)
Angular Grid (max. ang.)         AngularGrid ... 3 (Lebedev-194)
Angular grid pruning method      GridPruning ... 4 (adaptive)
Weight generation scheme         WeightScheme... Becke
Basis function cutoff            BFCut       ... 1.0000e-11
Integration weight cutoff        WCut        ... 1.0000e-14
Angular grids for H and He will be reduced by one unit
Partially contracted basis set               ... on
Rotationally invariant grid construction     ... off

Total number of grid points                  ...    46656
Total number of batches                      ...      735
Average number of points per batch           ...       63
Average number of grid points per atom       ...     3333
UseSFitting                                  ... on

Time for X-Grid setup             =   22.009 sec

--------------
SCF ITERATIONS
--------------
ITER       Energy         Delta-E        Max-DP      RMS-DP      [F,P]     Damp
               ***  Starting incremental Fock matrix formation  ***
  0   -345.3063674933   0.000000000000 0.08510238  0.00044764  0.2978286 0.7000
  1   -345.4086317653  -0.102264272001 0.07040135  0.00035910  0.1092740 0.7000
                               ***Turning on DIIS***
  2   -345.4463342926  -0.037702527282 0.07765912  0.00053658  0.0369818 0.0000
  3   -345.5101986787  -0.063864386093 0.06484476  0.00030038  0.0478540 0.0000
  4   -345.5224307221  -0.012232043394 0.01490445  0.00009669  0.0241674 0.0000
  5   -345.5235302453  -0.001099523238 0.00586466  0.00005008  0.0093332 0.0000
                      *** Initiating the SOSCF procedure ***
                           *** Shutting down DIIS ***
                      *** Re-Reading the Fockian *** 
                      *** Removing any level shift *** 
ITER      Energy       Delta-E        Grad      Rot      Max-DP    RMS-DP
  6   -345.52363592  -0.0001056705  0.000172  0.000172  0.001790  0.000018
               *** Restarting incremental Fock matrix formation ***
  7   -345.52364476  -0.0000088453  0.000101  0.000355  0.001666  0.000018
  8   -345.52364496  -0.0000001991  0.000158  0.000398  0.000332  0.000004
  9   -345.52364540  -0.0000004375  0.000044  0.000127  0.000386  0.000004
 10   -345.52364539   0.0000000061  0.000038  0.000055  0.000034  0.000000
 11   -345.52364543  -0.0000000378  0.000005  0.000023  0.000109  0.000001
 12   -345.52364544  -0.0000000086  0.000008  0.000011  0.000032  0.000000
 13   -345.52364544   0.0000000017  0.000004  0.000009  0.000031  0.000000
 14   -345.52364543   0.0000000033  0.000004  0.000004  0.000044  0.000000
                  ***Gradient check signals convergence***
              ***Rediagonalizing the Fockian in SOSCF/NRSCF***

               *****************************************************
               *                     SUCCESS                       *
               *           SCF CONVERGED AFTER  15 CYCLES          *
               *****************************************************

Old exchange energy                            =     -9.312513822 Eh
New exchange energy                            =     -9.312508319 Eh
Exchange energy change after final integration =      0.000005503 Eh
Total energy after final integration           =   -345.523639927 Eh
Final COS-X integration done in                =   335.479 sec

----------------
TOTAL SCF ENERGY
----------------

Total Energy       :         -345.52363993 Eh           -9402.17624 eV

Components:
Nuclear Repulsion  :          320.25466523 Eh            8714.57248 eV
Electronic Energy  :         -665.77830515 Eh          -18116.74872 eV
One Electron Energy:        -1101.24494792 Eh          -29966.39850 eV
Two Electron Energy:          435.46664276 Eh           11849.64977 eV
Max COSX asymmetry :            0.00000098 Eh               0.00003 eV

Virial components:
Potential Energy   :         -689.35444510 Eh          -18758.28810 eV
Kinetic Energy     :          343.83080517 Eh            9356.11186 eV
Virial Ratio       :            2.00492345


DFT components:
N(Alpha)           :       28.000009621525 electrons
N(Beta)            :       28.000009621525 electrons
N(Total)           :       56.000019243049 electrons
E(X)               :      -37.036073345933 Eh       
E(C)               :       -2.227118790547 Eh       
E(XC)              :      -39.263192136480 Eh       
DFET-embed. en.    :        0.000000000000 Eh       

---------------
SCF CONVERGENCE
---------------

  Last Energy change         ...    2.9783e-09  Tolerance :   1.0000e-08
  Last MAX-Density change    ...    7.7716e-16  Tolerance :   1.0000e-07
  Last RMS-Density change    ...    6.6481e-18  Tolerance :   5.0000e-09
  Last Orbital Gradient      ...    5.0522e-07  Tolerance :   1.0000e-05
  Last Orbital Rotation      ...    1.6802e-06  Tolerance :   1.0000e-05

             **** THE GBW FILE WAS UPDATED (fukui_neutral.gbw) ****
             **** DENSITY fukui_neutral.scfp WAS UPDATED ****
             **** ENERGY FILE WAS UPDATED (fukui_neutral.en.tmp) ****
             **** THE GBW FILE WAS UPDATED (fukui_neutral.gbw) ****
             **** DENSITY fukui_neutral.scfp WAS UPDATED ****
----------------
ORBITAL ENERGIES
----------------

  NO   OCC          E(Eh)            E(eV) 
   0   2.0000     -19.125828      -520.4402 
   1   2.0000     -10.265518      -279.3389 
   2   2.0000     -10.202897      -277.6349 
   3   2.0000     -10.201637      -277.6007 
   4   2.0000     -10.199268      -277.5362 
   5   2.0000     -10.197973      -277.5010 
   6   2.0000     -10.197014      -277.4749 
   7   2.0000     -10.196422      -277.4587 
   8   2.0000      -1.049927       -28.5700 
   9   2.0000      -0.874206       -23.7884 
  10   2.0000      -0.777248       -21.1500 
  11   2.0000      -0.764235       -20.7959 
  12   2.0000      -0.657666       -17.8960 
  13   2.0000      -0.624167       -16.9845 
  14   2.0000      -0.579099       -15.7581 
  15   2.0000      -0.529268       -14.4021 
  16   2.0000      -0.490378       -13.3439 
  17   2.0000      -0.468978       -12.7615 
  18   2.0000      -0.447265       -12.1707 
  19   2.0000      -0.439120       -11.9491 
  20   2.0000      -0.434814       -11.8319 
  21   2.0000      -0.415506       -11.3065 
  22   2.0000      -0.375396       -10.2151 
  23   2.0000      -0.373936       -10.1753 
  24   2.0000      -0.361031        -9.8242 
  25   2.0000      -0.276299        -7.5185 
  26   2.0000      -0.273131        -7.4323 
  27   2.0000      -0.265784        -7.2323 
  28   0.0000      -0.076187        -2.0731 
  29   0.0000      -0.031926        -0.8688 
  30   0.0000       0.017937         0.4881 
  31   0.0000       0.018949         0.5156 
  32   0.0000       0.033852         0.9211 
  33   0.0000       0.049568         1.3488 
  34   0.0000       0.061889         1.6841 
  35   0.0000       0.075259         2.0479 
  36   0.0000       0.094543         2.5726 
  37   0.0000       0.095786         2.6065 
  38   0.0000       0.102705         2.7947 
  39   0.0000       0.118698         3.2299 
  40   0.0000       0.123980         3.3737 
  41   0.0000       0.147215         4.0059 
  42   0.0000       0.150725         4.1014 
  43   0.0000       0.161021         4.3816 
  44   0.0000       0.161250         4.3878 
  45   0.0000       0.166136         4.5208 
  46   0.0000       0.171038         4.6542 
  47   0.0000       0.195444         5.3183 
  48   0.0000       0.215160         5.8548 
  49   0.0000       0.218506         5.9459 
  50   0.0000       0.232902         6.3376 
  51   0.0000       0.240414         6.5420 
  52   0.0000       0.249545         6.7905 
  53   0.0000       0.258353         7.0301 
  54   0.0000       0.261778         7.1234 
  55   0.0000       0.270810         7.3691 
  56   0.0000       0.274611         7.4726 
  57   0.0000       0.284788         7.7495 
  58   0.0000       0.288845         7.8599 
  59   0.0000       0.291061         7.9202 
  60   0.0000       0.301933         8.2160 
  61   0.0000       0.316012         8.5991 
  62   0.0000       0.327039         8.8992 
  63   0.0000       0.333138         9.0651 
  64   0.0000       0.344591         9.3768 
  65   0.0000       0.364122         9.9083 
  66   0.0000       0.371332        10.1045 
  67   0.0000       0.372308        10.1310 
  68   0.0000       0.381113        10.3706 
  69   0.0000       0.390006        10.6126 
  70   0.0000       0.415144        11.2966 
  71   0.0000       0.425847        11.5879 
  72   0.0000       0.439320        11.9545 
  73   0.0000       0.446502        12.1499 
  74   0.0000       0.450513        12.2591 
  75   0.0000       0.459447        12.5022 
  76   0.0000       0.477514        12.9938 
  77   0.0000       0.479527        13.0486 
  78   0.0000       0.495700        13.4887 
  79   0.0000       0.503495        13.7008 
  80   0.0000       0.510917        13.9028 
  81   0.0000       0.517906        14.0929 
  82   0.0000       0.536263        14.5925 
  83   0.0000       0.537627        14.6296 
  84   0.0000       0.551598        15.0098 
  85   0.0000       0.565306        15.3828 
  86   0.0000       0.568623        15.4730 
  87   0.0000       0.597264        16.2524 
  88   0.0000       0.619514        16.8578 
  89   0.0000       0.619974        16.8704 
  90   0.0000       0.648219        17.6389 
  91   0.0000       0.663009        18.0414 
  92   0.0000       0.666088        18.1252 
  93   0.0000       0.687947        18.7200 
  94   0.0000       0.689926        18.7738 
  95   0.0000       0.692617        18.8471 
  96   0.0000       0.702612        19.1191 
  97   0.0000       0.708538        19.2803 
  98   0.0000       0.714336        19.4381 
  99   0.0000       0.733495        19.9594 
 100   0.0000       0.746764        20.3205 
 101   0.0000       0.748625        20.3711 
 102   0.0000       0.749436        20.3932 
 103   0.0000       0.756508        20.5856 
 104   0.0000       0.796206        21.6659 
 105   0.0000       0.804338        21.8872 
 106   0.0000       0.806721        21.9520 
 107   0.0000       0.811406        22.0795 
 108   0.0000       0.819525        22.3004 
 109   0.0000       0.828406        22.5421 
 110   0.0000       0.848603        23.0917 
 111   0.0000       0.852869        23.2077 
 112   0.0000       0.860889        23.4260 
 113   0.0000       0.878687        23.9103 
 114   0.0000       0.883827        24.0502 
 115   0.0000       0.892080        24.2747 
 116   0.0000       0.899267        24.4703 
 117   0.0000       0.906464        24.6661 
 118   0.0000       0.914382        24.8816 
 119   0.0000       0.926439        25.2097 
 120   0.0000       0.934604        25.4319 
 121   0.0000       0.955703        26.0060 
 122   0.0000       0.975107        26.5340 
 123   0.0000       0.981158        26.6987 
 124   0.0000       0.994712        27.0675 
 125   0.0000       1.005893        27.3717 
 126   0.0000       1.009824        27.4787 
 127   0.0000       1.016809        27.6688 
 128   0.0000       1.019597        27.7446 
 129   0.0000       1.026253        27.9258 
 130   0.0000       1.046606        28.4796 
 131   0.0000       1.068932        29.0871 
 132   0.0000       1.099640        29.9227 
 133   0.0000       1.114215        30.3193 
 134   0.0000       1.117334        30.4042 
 135   0.0000       1.129994        30.7487 
 136   0.0000       1.130918        30.7739 
 137   0.0000       1.143132        31.1062 
 138   0.0000       1.146476        31.1972 
 139   0.0000       1.153630        31.3919 
 140   0.0000       1.223935        33.3050 
 141   0.0000       1.232674        33.5428 
 142   0.0000       1.233587        33.5676 
 143   0.0000       1.239049        33.7162 
 144   0.0000       1.267316        34.4854 
 145   0.0000       1.278997        34.8033 
 146   0.0000       1.303582        35.4723 
 147   0.0000       1.332816        36.2678 
 148   0.0000       1.352695        36.8087 
 149   0.0000       1.371246        37.3135 
 150   0.0000       1.382863        37.6296 
 151   0.0000       1.393771        37.9264 
 152   0.0000       1.428193        38.8631 
 153   0.0000       1.430881        38.9362 
 154   0.0000       1.456267        39.6270 
 155   0.0000       1.456961        39.6459 
 156   0.0000       1.511126        41.1198 
 157   0.0000       1.513451        41.1831 
 158   0.0000       1.528264        41.5862 
 159   0.0000       1.556391        42.3516 
 160   0.0000       1.558715        42.4148 
 161   0.0000       1.563376        42.5416 
 162   0.0000       1.573321        42.8122 
 163   0.0000       1.589641        43.2563 
 164   0.0000       1.609205        43.7887 
 165   0.0000       1.628547        44.3150 
 166   0.0000       1.634552        44.4784 
 167   0.0000       1.639516        44.6135 
 168   0.0000       1.670499        45.4566 
 169   0.0000       1.679738        45.7080 
 170   0.0000       1.686508        45.8922 
 171   0.0000       1.729410        47.0596 
 172   0.0000       1.733781        47.1786 
 173   0.0000       1.749154        47.5969 
 174   0.0000       1.749986        47.6195 
 175   0.0000       1.790760        48.7291 
 176   0.0000       1.792768        48.7837 
 177   0.0000       1.793253        48.7969 
 178   0.0000       1.809833        49.2481 
 179   0.0000       1.821151        49.5560 
 180   0.0000       1.829330        49.7786 
 181   0.0000       1.844614        50.1945 
 182   0.0000       1.855802        50.4989 
 183   0.0000       1.890311        51.4380 
 184   0.0000       1.898812        51.6693 
 185   0.0000       1.905962        51.8639 
 186   0.0000       1.925856        52.4052 
 187   0.0000       1.929639        52.5082 
 188   0.0000       1.930796        52.5396 
 189   0.0000       1.940544        52.8049 
 190   0.0000       1.946168        52.9579 
 191   0.0000       1.959197        53.3125 
 192   0.0000       1.972087        53.6632 
 193   0.0000       1.977633        53.8141 
 194   0.0000       1.996782        54.3352 
 195   0.0000       1.997404        54.3521 
 196   0.0000       2.024661        55.0938 
 197   0.0000       2.036235        55.4088 
 198   0.0000       2.037799        55.4513 
 199   0.0000       2.064131        56.1679 
 200   0.0000       2.082172        56.6588 
 201   0.0000       2.083417        56.6927 
 202   0.0000       2.098369        57.0995 
 203   0.0000       2.104774        57.2738 
 204   0.0000       2.132012        58.0150 
 205   0.0000       2.136317        58.1321 
 206   0.0000       2.149941        58.5029 
 207   0.0000       2.157822        58.7173 
 208   0.0000       2.163746        58.8785 
 209   0.0000       2.188704        59.5577 
 210   0.0000       2.193029        59.6754 
 211   0.0000       2.215702        60.2923 
 212   0.0000       2.228197        60.6323 
 213   0.0000       2.230331        60.6904 
 214   0.0000       2.246442        61.1288 
 215   0.0000       2.249324        61.2072 
 216   0.0000       2.266013        61.6614 
 217   0.0000       2.273087        61.8538 
 218   0.0000       2.280574        62.0576 
 219   0.0000       2.301182        62.6184 
 220   0.0000       2.317471        63.0616 
 221   0.0000       2.348504        63.9060 
 222   0.0000       2.353389        64.0390 
 223   0.0000       2.353724        64.0481 
 224   0.0000       2.382542        64.8323 
 225   0.0000       2.387880        64.9775 
 226   0.0000       2.402212        65.3675 
 227   0.0000       2.413321        65.6698 
 228   0.0000       2.423414        65.9445 
 229   0.0000       2.438891        66.3656 
 230   0.0000       2.439446        66.3807 
 231   0.0000       2.457200        66.8638 
 232   0.0000       2.459613        66.9295 
 233   0.0000       2.483366        67.5758 
 234   0.0000       2.499414        68.0125 
 235   0.0000       2.500277        68.0360 
 236   0.0000       2.516007        68.4640 
 237   0.0000       2.519694        68.5644 
 238   0.0000       2.536112        69.0111 
 239   0.0000       2.539390        69.1003 
 240   0.0000       2.540389        69.1275 
 241   0.0000       2.548586        69.3505 
 242   0.0000       2.558475        69.6197 
 243   0.0000       2.593895        70.5835 
 244   0.0000       2.609994        71.0216 
 245   0.0000       2.618213        71.2452 
 246   0.0000       2.618690        71.2582 
 247   0.0000       2.625146        71.4339 
 248   0.0000       2.642096        71.8951 
 249   0.0000       2.648693        72.0746 
 250   0.0000       2.670022        72.6550 
 251   0.0000       2.683639        73.0255 
 252   0.0000       2.697062        73.3908 
 253   0.0000       2.715784        73.9003 
 254   0.0000       2.731887        74.3384 
 255   0.0000       2.745863        74.7187 
 256   0.0000       2.748835        74.7996 
 257   0.0000       2.768510        75.3350 
 258   0.0000       2.779250        75.6272 
 259   0.0000       2.783365        75.7392 
 260   0.0000       2.789320        75.9012 
 261   0.0000       2.802759        76.2670 
 262   0.0000       2.827888        76.9507 
 263   0.0000       2.847756        77.4914 
 264   0.0000       2.870813        78.1188 
 265   0.0000       2.890293        78.6489 
 266   0.0000       2.934598        79.8545 
 267   0.0000       2.948523        80.2334 
 268   0.0000       2.948685        80.2378 
 269   0.0000       2.986865        81.2767 
 270   0.0000       2.997631        81.5697 
 271   0.0000       3.010774        81.9273 
 272   0.0000       3.036987        82.6406 
 273   0.0000       3.078635        83.7739 
 274   0.0000       3.095822        84.2416 
 275   0.0000       3.104201        84.4696 
 276   0.0000       3.106046        84.5198 
 277   0.0000       3.154060        85.8263 
 278   0.0000       3.164839        86.1196 
 279   0.0000       3.177737        86.4706 
 280   0.0000       3.203606        87.1746 
 281   0.0000       3.226953        87.8099 
 282   0.0000       3.233454        87.9868 
 283   0.0000       3.267619        88.9164 
 284   0.0000       3.312216        90.1300 
 285   0.0000       3.329339        90.5959 
 286   0.0000       3.331149        90.6452 
 287   0.0000       3.350017        91.1586 
 288   0.0000       3.359329        91.4120 
 289   0.0000       3.371956        91.7556 
 290   0.0000       3.402833        92.5958 
 291   0.0000       3.404219        92.6335 
 292   0.0000       3.428929        93.3059 
 293   0.0000       3.431605        93.3787 
 294   0.0000       3.452768        93.9546 
 295   0.0000       3.471639        94.4681 
 296   0.0000       3.486518        94.8730 
 297   0.0000       3.494807        95.0985 
 298   0.0000       3.512509        95.5802 
 299   0.0000       3.541408        96.3666 
 300   0.0000       3.565532        97.0230 
 301   0.0000       3.588552        97.6495 
 302   0.0000       3.610529        98.2475 
 303   0.0000       3.629616        98.7669 
 304   0.0000       3.689340       100.3921 
 305   0.0000       3.696632       100.5905 
 306   0.0000       3.706385       100.8559 
 307   0.0000       3.772470       102.6541 
 308   0.0000       3.782481       102.9265 
 309   0.0000       3.815840       103.8343 
 310   0.0000       3.832765       104.2948 
 311   0.0000       3.886320       105.7521 
 312   0.0000       3.902795       106.2005 
 313   0.0000       3.918301       106.6224 
 314   0.0000       3.937984       107.1580 
 315   0.0000       3.979270       108.2814 
 316   0.0000       4.023885       109.4955 
 317   0.0000       4.048387       110.1622 
 318   0.0000       4.078199       110.9734 
 319   0.0000       4.081555       111.0648 
 320   0.0000       4.111497       111.8795 
 321   0.0000       4.134318       112.5005 
 322   0.0000       4.139197       112.6333 
 323   0.0000       4.168871       113.4408 
 324   0.0000       4.205467       114.4366 
 325   0.0000       4.259036       115.8943 
 326   0.0000       4.286741       116.6481 
 327   0.0000       4.300934       117.0344 
 328   0.0000       4.330518       117.8394 
 329   0.0000       4.454554       121.2146 
 330   0.0000       4.483569       122.0041 
 331   0.0000       4.490772       122.2001 
 332   0.0000       4.502139       122.5094 
 333   0.0000       4.522894       123.0742 
 334   0.0000       4.547240       123.7367 
 335   0.0000       4.622261       125.7781 
 336   0.0000       4.663345       126.8961 
 337   0.0000       4.721392       128.4756 
 338   0.0000       4.722394       128.5029 
 339   0.0000       4.741294       129.0172 
 340   0.0000       4.778207       130.0216 
 341   0.0000       4.824680       131.2862 
 342   0.0000       4.841131       131.7339 
 343   0.0000       4.857015       132.1661 
 344   0.0000       4.859280       132.2277 
 345   0.0000       4.921135       133.9109 
 346   0.0000       4.926534       134.0578 
 347   0.0000       4.959771       134.9622 
 348   0.0000       4.991481       135.8251 
 349   0.0000       4.997071       135.9772 
 350   0.0000       5.001893       136.1084 
 351   0.0000       5.022846       136.6786 
 352   0.0000       5.051893       137.4690 
 353   0.0000       5.061273       137.7242 
 354   0.0000       5.089357       138.4885 
 355   0.0000       5.127890       139.5370 
 356   0.0000       5.154502       140.2611 
 357   0.0000       5.167721       140.6208 
 358   0.0000       5.174861       140.8151 
 359   0.0000       5.204896       141.6324 
 360   0.0000       5.208859       141.7403 
 361   0.0000       5.229018       142.2888 
 362   0.0000       5.229107       142.2912 
 363   0.0000       5.247880       142.8021 
 364   0.0000       5.290669       143.9664 
 365   0.0000       5.321066       144.7936 
 366   0.0000       5.340913       145.3336 
 367   0.0000       5.356388       145.7547 
 368   0.0000       5.373046       146.2080 
 369   0.0000       5.379304       146.3783 
 370   0.0000       5.384109       146.5091 
 371   0.0000       5.427753       147.6967 
 372   0.0000       5.456386       148.4758 
 373   0.0000       5.476385       149.0200 
 374   0.0000       5.480093       149.1209 
 375   0.0000       5.511126       149.9654 
 376   0.0000       5.521667       150.2522 
 377   0.0000       5.539521       150.7380 
 378   0.0000       5.555177       151.1641 
 379   0.0000       5.576742       151.7509 
 380   0.0000       5.586027       152.0035 
 381   0.0000       5.598824       152.3518 
 382   0.0000       5.658137       153.9657 
 383   0.0000       5.670741       154.3087 
 384   0.0000       5.689128       154.8091 
 385   0.0000       5.718972       155.6211 
 386   0.0000       5.730002       155.9213 
 387   0.0000       5.756410       156.6399 
 388   0.0000       5.779553       157.2696 
 389   0.0000       5.801781       157.8745 
 390   0.0000       5.819855       158.3663 
 391   0.0000       5.836400       158.8165 
 392   0.0000       5.841281       158.9493 
 393   0.0000       5.862085       159.5154 
 394   0.0000       5.867557       159.6643 
 395   0.0000       5.885886       160.1631 
 396   0.0000       5.886960       160.1923 
 397   0.0000       5.900923       160.5723 
 398   0.0000       5.936521       161.5410 
 399   0.0000       5.945546       161.7865 
 400   0.0000       5.954234       162.0229 
 401   0.0000       5.962046       162.2355 
 402   0.0000       5.979810       162.7189 
 403   0.0000       5.991615       163.0401 
 404   0.0000       6.001490       163.3088 
 405   0.0000       6.027595       164.0192 
 406   0.0000       6.033530       164.1807 
 407   0.0000       6.042589       164.4272 
 408   0.0000       6.056764       164.8129 
 409   0.0000       6.062036       164.9564 
 410   0.0000       6.085901       165.6058 
 411   0.0000       6.106566       166.1681 
 412   0.0000       6.113436       166.3550 
 413   0.0000       6.128917       166.7763 
 414   0.0000       6.129443       166.7906 
 415   0.0000       6.138874       167.0473 
 416   0.0000       6.153956       167.4576 
 417   0.0000       6.177115       168.0879 
 418   0.0000       6.191014       168.4660 
 419   0.0000       6.195399       168.5854 
 420   0.0000       6.208663       168.9463 
 421   0.0000       6.209689       168.9742 
 422   0.0000       6.222291       169.3172 
 423   0.0000       6.240365       169.8090 
 424   0.0000       6.248650       170.0344 
 425   0.0000       6.258575       170.3045 
 426   0.0000       6.269997       170.6153 
 427   0.0000       6.290558       171.1748 
 428   0.0000       6.301962       171.4851 
 429   0.0000       6.305482       171.5809 
 430   0.0000       6.316595       171.8833 
 431   0.0000       6.324978       172.1114 
 432   0.0000       6.358734       173.0300 
 433   0.0000       6.385382       173.7551 
 434   0.0000       6.407028       174.3441 
 435   0.0000       6.407460       174.3558 
 436   0.0000       6.421192       174.7295 
 437   0.0000       6.428507       174.9286 
 438   0.0000       6.439957       175.2401 
 439   0.0000       6.448189       175.4641 
 440   0.0000       6.489118       176.5779 
 441   0.0000       6.533583       177.7878 
 442   0.0000       6.536496       177.8671 
 443   0.0000       6.543387       178.0546 
 444   0.0000       6.554342       178.3527 
 445   0.0000       6.561586       178.5498 
 446   0.0000       6.563098       178.5910 
 447   0.0000       6.600367       179.6051 
 448   0.0000       6.605216       179.7371 
 449   0.0000       6.607352       179.7952 
 450   0.0000       6.614665       179.9942 
 451   0.0000       6.635805       180.5694 
 452   0.0000       6.656207       181.1246 
 453   0.0000       6.661293       181.2630 
 454   0.0000       6.688823       182.0121 
 455   0.0000       6.700361       182.3261 
 456   0.0000       6.715561       182.7397 
 457   0.0000       6.737567       183.3385 
 458   0.0000       6.774849       184.3530 
 459   0.0000       6.791436       184.8044 
 460   0.0000       6.806221       185.2067 
 461   0.0000       6.841455       186.1655 
 462   0.0000       6.861145       186.7013 
 463   0.0000       6.906134       187.9254 
 464   0.0000       6.922867       188.3808 
 465   0.0000       6.931148       188.6061 
 466   0.0000       6.937619       188.7822 
 467   0.0000       6.943283       188.9363 
 468   0.0000       7.015930       190.9132 
 469   0.0000       7.022659       191.0963 
 470   0.0000       7.029539       191.2835 
 471   0.0000       7.030981       191.3227 
 472   0.0000       7.087992       192.8741 
 473   0.0000       7.122702       193.8186 
 474   0.0000       7.131094       194.0469 
 475   0.0000       7.162492       194.9013 
 476   0.0000       7.228553       196.6989 
 477   0.0000       7.262229       197.6153 
 478   0.0000       7.310470       198.9280 
 479   0.0000       7.311375       198.9526 
 480   0.0000       7.324329       199.3051 
 481   0.0000       7.343186       199.8182 
 482   0.0000       7.381014       200.8476 
 483   0.0000       7.396751       201.2758 
 484   0.0000       7.419345       201.8906 
 485   0.0000       7.428336       202.1353 
 486   0.0000       7.435671       202.3349 
 487   0.0000       7.441555       202.4950 
 488   0.0000       7.467739       203.2075 
 489   0.0000       7.490677       203.8317 
 490   0.0000       7.501261       204.1197 
 491   0.0000       7.508069       204.3049 
 492   0.0000       7.519176       204.6072 
 493   0.0000       7.531875       204.9528 
 494   0.0000       7.553300       205.5357 
 495   0.0000       7.561705       205.7645 
 496   0.0000       7.630038       207.6239 
 497   0.0000       7.652387       208.2320 
 498   0.0000       7.658644       208.4023 
 499   0.0000       7.698409       209.4844 
 500   0.0000       7.721982       210.1258 
 501   0.0000       7.746118       210.7826 
 502   0.0000       7.770997       211.4596 
 503   0.0000       7.813529       212.6169 
 504   0.0000       7.837144       213.2595 
 505   0.0000       7.852029       213.6646 
 506   0.0000       7.869650       214.1441 
 507   0.0000       7.896557       214.8762 
 508   0.0000       7.914592       215.3670 
 509   0.0000       7.926753       215.6979 
 510   0.0000       7.944055       216.1687 
 511   0.0000       7.965186       216.7437 
 512   0.0000       8.009340       217.9452 
 513   0.0000       8.036613       218.6873 
 514   0.0000       8.054511       219.1744 
 515   0.0000       8.086582       220.0471 
 516   0.0000       8.098643       220.3753 
 517   0.0000       8.105711       220.5676 
 518   0.0000       8.122626       221.0279 
 519   0.0000       8.134726       221.3572 
 520   0.0000       8.154126       221.8851 
 521   0.0000       8.171587       222.3602 
 522   0.0000       8.189239       222.8405 
 523   0.0000       8.211398       223.4435 
 524   0.0000       8.242462       224.2888 
 525   0.0000       8.250512       224.5078 
 526   0.0000       8.259126       224.7422 
 527   0.0000       8.259277       224.7464 
 528   0.0000       8.272847       225.1156 
 529   0.0000       8.303832       225.9588 
 530   0.0000       8.305986       226.0174 
 531   0.0000       8.347547       227.1483 
 532   0.0000       8.350574       227.2307 
 533   0.0000       8.352220       227.2755 
 534   0.0000       8.368254       227.7118 
 535   0.0000       8.372613       227.8304 
 536   0.0000       8.417545       229.0531 
 537   0.0000       8.421165       229.1515 
 538   0.0000       8.429995       229.3918 
 539   0.0000       8.441641       229.7087 
 540   0.0000       8.490387       231.0352 
 541   0.0000       8.497087       231.2175 
 542   0.0000       8.500787       231.3182 
 543   0.0000       8.541214       232.4182 
 544   0.0000       8.595075       233.8839 
 545   0.0000       8.607488       234.2217 
 546   0.0000       8.628569       234.7953 
 547   0.0000       8.646947       235.2954 
 548   0.0000       8.659229       235.6296 
 549   0.0000       8.705003       236.8752 
 550   0.0000       8.734114       237.6673 
 551   0.0000       8.738096       237.7757 
 552   0.0000       8.792829       239.2650 
 553   0.0000       8.815886       239.8924 
 554   0.0000       8.856099       240.9867 
 555   0.0000       8.865660       241.2469 
 556   0.0000       8.876224       241.5343 
 557   0.0000       8.909575       242.4418 
 558   0.0000       8.934551       243.1215 
 559   0.0000       8.935318       243.1424 
 560   0.0000       9.005560       245.0538 
 561   0.0000       9.045004       246.1271 
 562   0.0000       9.129951       248.4386 
 563   0.0000       9.138459       248.6701 
 564   0.0000       9.338108       254.1029 
 565   0.0000       9.377062       255.1628 
 566   0.0000       9.447902       257.0905 
 567   0.0000       9.474772       257.8217 
 568   0.0000       9.527469       259.2556 
 569   0.0000       9.576248       260.5829 
 570   0.0000       9.603395       261.3217 
 571   0.0000       9.633179       262.1321 
 572   0.0000       9.646416       262.4923 
 573   0.0000       9.686122       263.5728 
 574   0.0000       9.693763       263.7807 
 575   0.0000       9.699194       263.9285 
 576   0.0000       9.736894       264.9544 
 577   0.0000       9.759842       265.5788 
 578   0.0000       9.774593       265.9802 
 579   0.0000       9.821466       267.2557 
 580   0.0000       9.835736       267.6440 
 581   0.0000       9.951534       270.7950 
 582   0.0000       9.968341       271.2523 
 583   0.0000      10.020321       272.6668 
 584   0.0000      10.036409       273.1046 
 585   0.0000      10.043711       273.3033 
 586   0.0000      10.072719       274.0926 
 587   0.0000      10.133369       275.7430 
 588   0.0000      10.192560       277.3536 
 589   0.0000      10.211839       277.8783 
 590   0.0000      10.232725       278.4466 
 591   0.0000      10.284352       279.8514 
 592   0.0000      10.304104       280.3889 
 593   0.0000      10.465140       284.7709 
 594   0.0000      10.637485       289.4607 
 595   0.0000      10.647502       289.7333 
 596   0.0000      10.665215       290.2153 
 597   0.0000      10.854635       295.3696 
 598   0.0000      10.870490       295.8011 
 599   0.0000      10.978344       298.7359 
 600   0.0000      11.014831       299.7288 
 601   0.0000      11.105617       302.1992 
 602   0.0000      11.427072       310.9464 
 603   0.0000      11.561112       314.5939 
 604   0.0000      11.648136       316.9619 
 605   0.0000      11.806837       321.2804 
 606   0.0000      11.878613       323.2335 
 607   0.0000      12.065762       328.3261 
 608   0.0000      12.107354       329.4578 
 609   0.0000      12.121784       329.8505 
 610   0.0000      12.282809       334.2322 
 611   0.0000      12.375650       336.7586 
 612   0.0000      12.555563       341.6542 
 613   0.0000      12.669466       344.7537 
 614   0.0000      12.848727       349.6316 
 615   0.0000      13.095867       356.3567 
 616   0.0000      13.127062       357.2055 
 617   0.0000      13.506960       367.5431 
 618   0.0000      14.134175       384.6104 
 619   0.0000      14.464839       393.6083 
 620   0.0000      27.834783       757.4229 
 621   0.0000      28.315234       770.4967 
 622   0.0000      28.463663       774.5357 
 623   0.0000      28.492304       775.3150 
 624   0.0000      28.854068       785.1591 
 625   0.0000      28.954726       787.8982 
 626   0.0000      29.273406       796.5699 
 627   0.0000      48.159938      1310.4985 
 628   0.0000     146.907832      3997.5653 
 629   0.0000     147.364791      4009.9998 
 630   0.0000     147.488490      4013.3658 
 631   0.0000     147.510317      4013.9598 
 632   0.0000     147.855710      4023.3584 
 633   0.0000     147.958193      4026.1471 
 634   0.0000     148.302474      4035.5155 
 635   0.0000     253.190500      6889.6638 

                    ********************************
                    * MULLIKEN POPULATION ANALYSIS *
                    ********************************

-----------------------
MULLIKEN ATOMIC CHARGES
-----------------------
   0 C :    0.096652
   1 C :   -0.030581
   2 C :   -0.085355
   3 C :   -0.022291
   4 C :   -0.092395
   5 C :   -0.053906
   6 H :    0.098112
   7 H :    0.066687
   8 H :    0.065556
   9 H :    0.063281
  10 H :    0.064538
  11 C :    0.105912
  12 O :   -0.332574
  13 H :    0.056365
Sum of atomic charges:   -0.0000000

--------------------------------
MULLIKEN REDUCED ORBITAL CHARGES
--------------------------------
  0 C s       :     3.325427  s :     3.325427
      pz      :     0.944980  p :     2.417754
      px      :     0.740622
      py      :     0.732153
      dz2     :    -0.000616  d :     0.136271
      dxz     :     0.035000
      dyz     :     0.014807
      dx2y2   :     0.055191
      dxy     :     0.031890
      f0      :     0.002605  f :     0.022370
      f+1     :     0.000630
      f-1     :     0.000899
      f+2     :     0.001044
      f-2     :     0.003252
      f+3     :     0.010727
      f-3     :     0.003213
      g0      :     0.000055  g :     0.001525
      g+1     :     0.000159
      g-1     :     0.000088
      g+2     :     0.000113
      g-2     :     0.000099
      g+3     :     0.000020
      g-3     :     0.000232
      g+4     :     0.000392
      g-4     :     0.000366
  1 C s       :     3.361871  s :     3.361871
      pz      :     0.891378  p :     2.561215
      px      :     0.867348
      py      :     0.802489
      dz2     :     0.001447  d :     0.091289
      dxz     :     0.010694
      dyz     :     0.025941
      dx2y2   :     0.020792
      dxy     :     0.032414
      f0      :     0.001548  f :     0.015131
      f+1     :     0.000295
      f-1     :     0.000344
      f+2     :     0.001941
      f-2     :     0.001804
      f+3     :     0.006846
      f-3     :     0.002353
      g0      :     0.000046  g :     0.001075
      g+1     :     0.000078
      g-1     :     0.000132
      g+2     :     0.000067
      g-2     :     0.000068
      g+3     :     0.000014
      g-3     :     0.000146
      g+4     :     0.000238
      g-4     :     0.000284
  2 C s       :     3.322254  s :     3.322254
      pz      :     0.931514  p :     2.633136
      px      :     0.857182
      py      :     0.844439
      dz2     :     0.001920  d :     0.113568
      dxz     :     0.014052
      dyz     :     0.019301
      dx2y2   :     0.023047
      dxy     :     0.055247
      f0      :     0.001592  f :     0.015285
      f+1     :     0.000420
      f-1     :     0.000449
      f+2     :     0.002495
      f-2     :     0.000920
      f+3     :     0.007318
      f-3     :     0.002091
      g0      :     0.000046  g :     0.001112
      g+1     :     0.000087
      g-1     :     0.000114
      g+2     :     0.000084
      g-2     :     0.000057
      g+3     :     0.000014
      g-3     :     0.000148
      g+4     :     0.000280
      g-4     :     0.000282
  3 C s       :     3.317619  s :     3.317619
      pz      :     0.907682  p :     2.583189
      px      :     0.832288
      py      :     0.843219
      dz2     :     0.002429  d :     0.105346
      dxz     :     0.030953
      dyz     :     0.006633
      dx2y2   :     0.045681
      dxy     :     0.019651
      f0      :     0.001588  f :     0.015030
      f+1     :     0.000478
      f-1     :     0.000308
      f+2     :     0.000697
      f-2     :     0.002962
      f+3     :     0.006924
      f-3     :     0.002074
      g0      :     0.000045  g :     0.001108
      g+1     :     0.000149
      g-1     :     0.000062
      g+2     :     0.000051
      g-2     :     0.000086
      g+3     :     0.000012
      g-3     :     0.000146
      g+4     :     0.000297
      g-4     :     0.000261
  4 C s       :     3.320417  s :     3.320417
      pz      :     0.937447  p :     2.638028
      px      :     0.869787
      py      :     0.830794
      dz2     :     0.001869  d :     0.117459
      dxz     :     0.010762
      dyz     :     0.025431
      dx2y2   :     0.034277
      dxy     :     0.045120
      f0      :     0.001628  f :     0.015380
      f+1     :     0.000405
      f-1     :     0.000478
      f+2     :     0.002016
      f-2     :     0.001598
      f+3     :     0.007097
      f-3     :     0.002159
      g0      :     0.000047  g :     0.001111
      g+1     :     0.000076
      g-1     :     0.000128
      g+2     :     0.000073
      g-2     :     0.000068
      g+3     :     0.000013
      g-3     :     0.000149
      g+4     :     0.000261
      g-4     :     0.000298
  5 C s       :     3.360304  s :     3.360304
      pz      :     0.916869  p :     2.585695
      px      :     0.842369
      py      :     0.826457
      dz2     :     0.001518  d :     0.091349
      dxz     :     0.014796
      dyz     :     0.024547
      dx2y2   :     0.017025
      dxy     :     0.033463
      f0      :     0.001542  f :     0.015476
      f+1     :     0.000350
      f-1     :     0.000320
      f+2     :     0.002737
      f-2     :     0.001186
      f+3     :     0.007260
      f-3     :     0.002080
      g0      :     0.000047  g :     0.001082
      g+1     :     0.000097
      g-1     :     0.000124
      g+2     :     0.000080
      g-2     :     0.000056
      g+3     :     0.000010
      g-3     :     0.000140
      g+4     :     0.000266
      g-4     :     0.000262
  6 H s       :     0.863252  s :     0.863252
      pz      :     0.014264  p :     0.033539
      px      :     0.004614
      py      :     0.014661
      dz2     :     0.000135  d :     0.004809
      dxz     :     0.001585
      dyz     :     0.000500
      dx2y2   :     0.001519
      dxy     :     0.001069
      f0      :     0.000051  f :     0.000288
      f+1     :     0.000011
      f-1     :     0.000009
      f+2     :     0.000028
      f-2     :     0.000050
      f+3     :     0.000115
      f-3     :     0.000025
  7 H s       :     0.894041  s :     0.894041
      pz      :     0.016285  p :     0.034120
      px      :     0.008274
      py      :     0.009561
      dz2     :     0.000151  d :     0.004864
      dxz     :     0.001408
      dyz     :     0.000746
      dx2y2   :     0.001970
      dxy     :     0.000589
      f0      :     0.000056  f :     0.000288
      f+1     :     0.000009
      f-1     :     0.000009
      f+2     :     0.000011
      f-2     :     0.000069
      f+3     :     0.000108
      f-3     :     0.000028
  8 H s       :     0.896070  s :     0.896070
      pz      :     0.015793  p :     0.033321
      px      :     0.011526
      py      :     0.006002
      dz2     :     0.000138  d :     0.004765
      dxz     :     0.000074
      dyz     :     0.002000
      dx2y2   :     0.000442
      dxy     :     0.002110
      f0      :     0.000054  f :     0.000289
      f+1     :     0.000008
      f-1     :     0.000010
      f+2     :     0.000073
      f-2     :     0.000005
      f+3     :     0.000110
      f-3     :     0.000028
  9 H s       :     0.897138  s :     0.897138
      pz      :     0.016715  p :     0.034384
      px      :     0.007366
      py      :     0.010304
      dz2     :     0.000149  d :     0.004903
      dxz     :     0.001757
      dyz     :     0.000431
      dx2y2   :     0.001445
      dxy     :     0.001122
      f0      :     0.000057  f :     0.000293
      f+1     :     0.000010
      f-1     :     0.000009
      f+2     :     0.000034
      f-2     :     0.000048
      f+3     :     0.000109
      f-3     :     0.000027
 10 H s       :     0.895559  s :     0.895559
      pz      :     0.016204  p :     0.034674
      px      :     0.007689
      py      :     0.010781
      dz2     :     0.000147  d :     0.004929
      dxz     :     0.001464
      dyz     :     0.000730
      dx2y2   :     0.002039
      dxy     :     0.000548
      f0      :     0.000057  f :     0.000301
      f+1     :     0.000011
      f-1     :     0.000008
      f+2     :     0.000011
      f-2     :     0.000069
      f+3     :     0.000115
      f-3     :     0.000030
 11 C s       :     3.294579  s :     3.294579
      pz      :     0.715931  p :     2.418470
      px      :     0.813000
      py      :     0.889539
      dz2     :     0.008776  d :     0.158193
      dxz     :     0.022336
      dyz     :     0.027510
      dx2y2   :     0.063574
      dxy     :     0.035997
      f0      :     0.001622  f :     0.019955
      f+1     :     0.000390
      f-1     :     0.000429
      f+2     :     0.002374
      f-2     :     0.002602
      f+3     :     0.009634
      f-3     :     0.002905
      g0      :     0.000078  g :     0.002892
      g+1     :     0.000302
      g-1     :     0.000168
      g+2     :     0.000193
      g-2     :     0.000138
      g+3     :     0.000008
      g-3     :     0.000440
      g+4     :     0.000907
      g-4     :     0.000658
 12 O s       :     3.812466  s :     3.812466
      pz      :     1.311889  p :     4.476824
      px      :     1.458517
      py      :     1.706418
      dz2     :     0.002779  d :     0.039275
      dxz     :     0.010829
      dyz     :     0.004088
      dx2y2   :     0.011247
      dxy     :     0.010332
      f0      :     0.000377  f :     0.003796
      f+1     :     0.000218
      f-1     :     0.000142
      f+2     :     0.000245
      f-2     :     0.000765
      f+3     :     0.001318
      f-3     :     0.000730
      g0      :     0.000010  g :     0.000213
      g+1     :     0.000031
      g-1     :     0.000010
      g+2     :     0.000011
      g-2     :     0.000020
      g+3     :     0.000000
      g-3     :     0.000033
      g+4     :     0.000052
      g-4     :     0.000045
 13 H s       :     0.913740  s :     0.913740
      pz      :     0.007899  p :     0.025931
      px      :     0.009587
      py      :     0.008445
      dz2     :     0.000262  d :     0.003762
      dxz     :     0.001206
      dyz     :     0.000345
      dx2y2   :     0.000969
      dxy     :     0.000981
      f0      :     0.000037  f :     0.000203
      f+1     :     0.000012
      f-1     :     0.000010
      f+2     :     0.000018
      f-2     :     0.000030
      f+3     :     0.000055
      f-3     :     0.000040


                     *******************************
                     * LOEWDIN POPULATION ANALYSIS *
                     *******************************

----------------------
LOEWDIN ATOMIC CHARGES
----------------------
   0 C :   -0.130253
   1 C :    0.103593
   2 C :    0.072256
   3 C :    0.077930
   4 C :    0.068654
   5 C :    0.085275
   6 H :   -0.043036
   7 H :   -0.053701
   8 H :   -0.052622
   9 H :   -0.054690
  10 H :   -0.048688
  11 C :   -0.306156
  12 O :    0.350119
  13 H :   -0.068684

-------------------------------
LOEWDIN REDUCED ORBITAL CHARGES
-------------------------------
  0 C s       :     2.589052  s :     2.589052
      pz      :     0.784196  p :     2.757424
      px      :     1.003391
      py      :     0.969837
      dz2     :     0.052363  d :     0.621284
      dxz     :     0.097301
      dyz     :     0.055919
      dx2y2   :     0.226773
      dxy     :     0.188928
      f0      :     0.010011  f :     0.148453
      f+1     :     0.008502
      f-1     :     0.009439
      f+2     :     0.009910
      f-2     :     0.021492
      f+3     :     0.064719
      f-3     :     0.024379
      g0      :     0.000416  g :     0.014039
      g+1     :     0.001481
      g-1     :     0.000907
      g+2     :     0.001438
      g-2     :     0.001365
      g+3     :     0.000165
      g-3     :     0.001237
      g+4     :     0.003698
      g-4     :     0.003332
  1 C s       :     2.590139  s :     2.590139
      pz      :     0.735196  p :     2.685311
      px      :     0.957655
      py      :     0.992460
      dz2     :     0.038663  d :     0.496746
      dxz     :     0.033850
      dyz     :     0.081013
      dx2y2   :     0.160250
      dxy     :     0.182969
      f0      :     0.006287  f :     0.112832
      f+1     :     0.006704
      f-1     :     0.007665
      f+2     :     0.013941
      f-2     :     0.012326
      f+3     :     0.046541
      f-3     :     0.019368
      g0      :     0.000367  g :     0.011378
      g+1     :     0.000776
      g-1     :     0.001363
      g+2     :     0.001202
      g-2     :     0.001280
      g+3     :     0.000110
      g-3     :     0.000791
      g+4     :     0.002112
      g-4     :     0.003377
  2 C s       :     2.595694  s :     2.595694
      pz      :     0.768173  p :     2.716917
      px      :     0.963952
      py      :     0.984792
      dz2     :     0.037556  d :     0.494257
      dxz     :     0.043610
      dyz     :     0.065298
      dx2y2   :     0.147479
      dxy     :     0.200314
      f0      :     0.006136  f :     0.109664
      f+1     :     0.006925
      f-1     :     0.007250
      f+2     :     0.017940
      f-2     :     0.006694
      f+3     :     0.045644
      f-3     :     0.019076
      g0      :     0.000361  g :     0.011214
      g+1     :     0.000869
      g-1     :     0.001143
      g+2     :     0.001252
      g-2     :     0.001247
      g+3     :     0.000091
      g-3     :     0.000771
      g+4     :     0.002862
      g-4     :     0.002616
  3 C s       :     2.597541  s :     2.597541
      pz      :     0.749901  p :     2.702835
      px      :     1.003198
      py      :     0.949736
      dz2     :     0.038150  d :     0.500589
      dxz     :     0.095740
      dyz     :     0.020654
      dx2y2   :     0.203284
      dxy     :     0.142761
      f0      :     0.006092  f :     0.110009
      f+1     :     0.007476
      f-1     :     0.006645
      f+2     :     0.005502
      f-2     :     0.020231
      f+3     :     0.045095
      f-3     :     0.018967
      g0      :     0.000353  g :     0.011096
      g+1     :     0.001466
      g-1     :     0.000632
      g+2     :     0.001230
      g-2     :     0.001227
      g+3     :     0.000082
      g-3     :     0.000755
      g+4     :     0.003238
      g-4     :     0.002114
  4 C s       :     2.595499  s :     2.595499
      pz      :     0.773001  p :     2.720442
      px      :     0.958174
      py      :     0.989267
      dz2     :     0.037651  d :     0.494525
      dxz     :     0.032878
      dyz     :     0.077194
      dx2y2   :     0.167657
      dxy     :     0.179146
      f0      :     0.006172  f :     0.109671
      f+1     :     0.006824
      f-1     :     0.007384
      f+2     :     0.013735
      f-2     :     0.011026
      f+3     :     0.045410
      f-3     :     0.019121
      g0      :     0.000361  g :     0.011208
      g+1     :     0.000773
      g-1     :     0.001259
      g+2     :     0.001249
      g-2     :     0.001244
      g+3     :     0.000088
      g-3     :     0.000778
      g+4     :     0.002050
      g-4     :     0.003406
  5 C s       :     2.590378  s :     2.590378
      pz      :     0.749884  p :     2.697542
      px      :     0.961159
      py      :     0.986500
      dz2     :     0.038757  d :     0.502554
      dxz     :     0.045789
      dyz     :     0.073853
      dx2y2   :     0.144943
      dxy     :     0.199212
      f0      :     0.006203  f :     0.112909
      f+1     :     0.006986
      f-1     :     0.007378
      f+2     :     0.018998
      f-2     :     0.007578
      f+3     :     0.045714
      f-3     :     0.020053
      g0      :     0.000365  g :     0.011342
      g+1     :     0.000925
      g-1     :     0.001256
      g+2     :     0.001215
      g-2     :     0.001266
      g+3     :     0.000073
      g-3     :     0.000781
      g+4     :     0.002916
      g-4     :     0.002546
  6 H s       :     0.784645  s :     0.784645
      pz      :     0.047821  p :     0.186420
      px      :     0.082556
      py      :     0.056044
      dz2     :     0.004745  d :     0.062824
      dxz     :     0.015030
      dyz     :     0.004285
      dx2y2   :     0.021108
      dxy     :     0.017656
      f0      :     0.000946  f :     0.009146
      f+1     :     0.000840
      f-1     :     0.000383
      f+2     :     0.000607
      f-2     :     0.001040
      f+3     :     0.003314
      f-3     :     0.002017
  7 H s       :     0.796471  s :     0.796471
      pz      :     0.051830  p :     0.185607
      px      :     0.075199
      py      :     0.058577
      dz2     :     0.004702  d :     0.062492
      dxz     :     0.013029
      dyz     :     0.006753
      dx2y2   :     0.022657
      dxy     :     0.015352
      f0      :     0.000989  f :     0.009131
      f+1     :     0.000722
      f-1     :     0.000477
      f+2     :     0.000207
      f-2     :     0.001469
      f+3     :     0.003217
      f-3     :     0.002050
  8 H s       :     0.796305  s :     0.796305
      pz      :     0.050460  p :     0.184993
      px      :     0.042709
      py      :     0.091824
      dz2     :     0.004708  d :     0.062241
      dxz     :     0.000434
      dyz     :     0.018854
      dx2y2   :     0.014667
      dxy     :     0.023577
      f0      :     0.000961  f :     0.009083
      f+1     :     0.000242
      f-1     :     0.000956
      f+2     :     0.001549
      f-2     :     0.000084
      f+3     :     0.003248
      f-3     :     0.002043
  9 H s       :     0.796786  s :     0.796786
      pz      :     0.052671  p :     0.186182
      px      :     0.082698
      py      :     0.050813
      dz2     :     0.004695  d :     0.062573
      dxz     :     0.016206
      dyz     :     0.003764
      dx2y2   :     0.019799
      dxy     :     0.018110
      f0      :     0.000999  f :     0.009149
      f+1     :     0.000833
      f-1     :     0.000366
      f+2     :     0.000701
      f-2     :     0.000990
      f+3     :     0.003226
      f-3     :     0.002033
 10 H s       :     0.791289  s :     0.791289
      pz      :     0.051449  p :     0.185917
      px      :     0.074481
      py      :     0.059987
      dz2     :     0.004714  d :     0.062400
      dxz     :     0.012729
      dyz     :     0.006691
      dx2y2   :     0.022977
      dxy     :     0.015289
      f0      :     0.000961  f :     0.009081
      f+1     :     0.000715
      f-1     :     0.000480
      f+2     :     0.000205
      f-2     :     0.001439
      f+3     :     0.003244
      f-3     :     0.002037
 11 C s       :     2.648466  s :     2.648466
      pz      :     0.643560  p :     2.603686
      px      :     0.981344
      py      :     0.978782
      dz2     :     0.059172  d :     0.814319
      dxz     :     0.074878
      dyz     :     0.092603
      dx2y2   :     0.307321
      dxy     :     0.280345
      f0      :     0.011467  f :     0.206687
      f+1     :     0.015832
      f-1     :     0.010043
      f+2     :     0.019140
      f-2     :     0.020807
      f+3     :     0.090513
      f-3     :     0.038885
      g0      :     0.000937  g :     0.032998
      g+1     :     0.004329
      g-1     :     0.002188
      g+2     :     0.003210
      g-2     :     0.002962
      g+3     :     0.000061
      g-3     :     0.003111
      g+4     :     0.009618
      g-4     :     0.006583
 12 O s       :     3.265607  s :     3.265607
      pz      :     1.190495  p :     4.261241
      px      :     1.522488
      py      :     1.548258
      dz2     :     0.009837  d :     0.100402
      dxz     :     0.012964
      dyz     :     0.005117
      dx2y2   :     0.038294
      dxy     :     0.034191
      f0      :     0.001525  f :     0.021375
      f+1     :     0.001943
      f-1     :     0.001096
      f+2     :     0.000658
      f-2     :     0.002222
      f+3     :     0.009248
      f-3     :     0.004682
      g0      :     0.000052  g :     0.001256
      g+1     :     0.000104
      g-1     :     0.000035
      g+2     :     0.000089
      g-2     :     0.000111
      g+3     :     0.000001
      g-3     :     0.000113
      g+4     :     0.000446
      g-4     :     0.000306
 13 H s       :     0.834099  s :     0.834099
      pz      :     0.030587  p :     0.170702
      px      :     0.089522
      py      :     0.050593
      dz2     :     0.005322  d :     0.056288
      dxz     :     0.011848
      dyz     :     0.002781
      dx2y2   :     0.018798
      dxy     :     0.017538
      f0      :     0.000721  f :     0.007595
      f+1     :     0.000716
      f-1     :     0.000379
      f+2     :     0.000490
      f-2     :     0.000747
      f+3     :     0.002740
      f-3     :     0.001802


                      *****************************
                      * MAYER POPULATION ANALYSIS *
                      *****************************

  NA   - Mulliken gross atomic population
  ZA   - Total nuclear charge
  QA   - Mulliken gross atomic charge
  VA   - Mayer's total valence
  BVA  - Mayer's bonded valence
  FA   - Mayer's free valence

  ATOM       NA         ZA         QA         VA         BVA        FA
  0 C      5.9033     6.0000     0.0967     3.4780     3.4780    -0.0000
  1 C      6.0306     6.0000    -0.0306     3.6361     3.6361    -0.0000
  2 C      6.0854     6.0000    -0.0854     3.8094     3.8094    -0.0000
  3 C      6.0223     6.0000    -0.0223     3.7722     3.7722     0.0000
  4 C      6.0924     6.0000    -0.0924     3.8374     3.8374     0.0000
  5 C      6.0539     6.0000    -0.0539     3.6507     3.6507     0.0000
  6 H      0.9019     1.0000     0.0981     1.0055     1.0055    -0.0000
  7 H      0.9333     1.0000     0.0667     1.0003     1.0003    -0.0000
  8 H      0.9344     1.0000     0.0656     0.9959     0.9959     0.0000
  9 H      0.9367     1.0000     0.0633     1.0002     1.0002    -0.0000
 10 H      0.9355     1.0000     0.0645     0.9995     0.9995    -0.0000
 11 C      5.8941     6.0000     0.1059     3.9854     3.9854    -0.0000
 12 O      8.3326     8.0000    -0.3326     2.1214     2.1214    -0.0000
 13 H      0.9436     1.0000     0.0564     0.9818     0.9818    -0.0000

  Mayer bond orders larger than 0.100000
B(  0-C ,  1-C ) :   1.2065 B(  0-C ,  5-C ) :   1.2047 B(  0-C , 11-C ) :   0.9832 
B(  1-C ,  2-C ) :   1.3362 B(  1-C ,  6-H ) :   0.9433 B(  2-C ,  3-C ) :   1.3019 
B(  2-C ,  7-H ) :   0.9692 B(  3-C ,  4-C ) :   1.3280 B(  3-C ,  8-H ) :   0.9646 
B(  4-C ,  5-C ) :   1.3429 B(  4-C ,  9-H ) :   0.9675 B(  5-C , 10-H ) :   0.9562 
B( 11-C , 12-O ) :   2.0094 B( 11-C , 13-H ) :   0.9630 

-------
TIMINGS
-------

Total SCF time: 0 days 0 hours 59 min 58 sec 

Total time                  ....    3598.716 sec
Sum of individual times     ....    3554.381 sec  ( 98.8%)

Fock matrix formation       ....    3493.658 sec  ( 97.1%)
  Split-RI-J                ....     192.752 sec  (  5.5% of F)
  Chain of spheres X        ....    2876.909 sec  ( 82.3% of F)
  XC integration            ....     386.150 sec  ( 11.1% of F)
    Basis function eval.    ....      68.559 sec  ( 17.8% of XC)
    Density eval.           ....     130.846 sec  ( 33.9% of XC)
    XC-Functional eval.     ....       4.177 sec  (  1.1% of XC)
    XC-Potential eval.      ....     134.917 sec  ( 34.9% of XC)
Diagonalization             ....       4.168 sec  (  0.1%)
Density matrix formation    ....       0.424 sec  (  0.0%)
Population analysis         ....       0.771 sec  (  0.0%)
Initial guess               ....      16.826 sec  (  0.5%)
Orbital Transformation      ....       0.000 sec  (  0.0%)
Orbital Orthonormalization  ....       0.000 sec  (  0.0%)
DIIS solution               ....       1.900 sec  (  0.1%)
SOSCF solution              ....       3.586 sec  (  0.1%)
Grid generation             ....      33.048 sec  (  0.9%)

Maximum memory used throughout the entire SCF-calculation: 678.7 MB

-------------------------   --------------------
FINAL SINGLE POINT ENERGY      -345.523639927168
-------------------------   --------------------


                            ***************************************
                            *     ORCA property calculations      *
                            ***************************************

                                    ---------------------
                                    Active property flags
                                    ---------------------
   (+) Dipole Moment


------------------------------------------------------------------------------
                       ORCA ELECTRIC PROPERTIES CALCULATION
------------------------------------------------------------------------------

Dipole Moment Calculation                       ... on
Quadrupole Moment Calculation                   ... off
Polarizability Calculation                      ... off
GBWName                                         ... fukui_neutral.gbw
Electron density                                ... fukui_neutral.scfp
The origin for moment calculation is the CENTER OF MASS  = (-14.631047,  0.983448  0.000029)

-------------
DIPOLE MOMENT
-------------
                                X             Y             Z
Electronic contribution:     -1.30970       2.77498       0.00055
Nuclear contribution   :      2.09952      -3.87654      -0.00033
                        -----------------------------------------
Total Dipole Moment    :      0.78982      -1.10156       0.00022
                        -----------------------------------------
Magnitude (a.u.)       :      1.35546
Magnitude (Debye)      :      3.44529



--------------------
Rotational spectrum 
--------------------
 
Rotational constants in cm-1:     0.173808     0.051962     0.040003 
Rotational constants in MHz :  5210.632863  1557.792854  1199.257712 

 Dipole components along the rotational axes: 
x,y,z [a.u.] :    -1.272736    -0.466265     0.000189 
x,y,z [Debye]:    -3.235038    -1.185152     0.000479 

 

Timings for individual modules:

Sum of individual times         ...     3611.704 sec (=  60.195 min)
GTO integral calculation        ...       12.387 sec (=   0.206 min)   0.3 %
SCF iterations                  ...     3599.317 sec (=  59.989 min)  99.7 %
                             ****ORCA TERMINATED NORMALLY****
TOTAL RUN TIME: 0 days 1 hours 0 minutes 15 seconds 353 msec
