
                                 *****************
                                 * O   R   C   A *
                                 *****************

                                            #,                                       
                                            ###                                      
                                            ####                                     
                                            #####                                    
                                            ######                                   
                                           ########,                                 
                                     ,,################,,,,,                         
                               ,,#################################,,                 
                          ,,##########################################,,             
                       ,#########################################, ''#####,          
                    ,#############################################,,   '####,        
                  ,##################################################,,,,####,       
                ,###########''''           ''''###############################       
              ,#####''   ,,,,##########,,,,          '''####'''          '####       
            ,##' ,,,,###########################,,,                        '##       
           ' ,,###''''                  '''############,,,                           
         ,,##''                                '''############,,,,        ,,,,,,###''
      ,#''                                            '''#######################'''  
     '                                                          ''''####''''         
             ,#######,   #######,   ,#######,      ##                                
            ,#'     '#,  ##    ##  ,#'     '#,    #''#        ######   ,####,        
            ##       ##  ##   ,#'  ##            #'  '#       #        #'  '#        
            ##       ##  #######   ##           ,######,      #####,   #    #        
            '#,     ,#'  ##    ##  '#,     ,#' ,#      #,         ##   #,  ,#        
             '#######'   ##     ##  '#######'  #'      '#     #####' # '####'        



                  #######################################################
                  #                        -***-                        #
                  #          Department of theory and spectroscopy      #
                  #    Directorship and core code : Frank Neese         #
                  #        Max Planck Institute fuer Kohlenforschung    #
                  #                Kaiser Wilhelm Platz 1               #
                  #                 D-45470 Muelheim/Ruhr               #
                  #                      Germany                        #
                  #                                                     #
                  #                  All rights reserved                #
                  #                        -***-                        #
                  #######################################################



                         Program Version 5.0.4 -  RELEASE  -

 With contributions from (in alphabetic order):
   Daniel Aravena         : Magnetic Suceptibility
   Michael Atanasov       : Ab Initio Ligand Field Theory (pilot matlab implementation)
   Alexander A. Auer      : GIAO ZORA, VPT2 properties, NMR spectrum
   Ute Becker             : Parallelization
   Giovanni Bistoni       : ED, misc. LED, open-shell LED, HFLD
   Martin Brehm           : Molecular dynamics
   Dmytro Bykov           : SCF Hessian
   Vijay G. Chilkuri      : MRCI spin determinant printing, contributions to CSF-ICE
   Dipayan Datta          : RHF DLPNO-CCSD density
   Achintya Kumar Dutta   : EOM-CC, STEOM-CC
   Dmitry Ganyushin       : Spin-Orbit,Spin-Spin,Magnetic field MRCI
   Miquel Garcia          : C-PCM and meta-GGA Hessian, CC/C-PCM, Gaussian charge scheme
   Yang Guo               : DLPNO-NEVPT2, F12-NEVPT2, CIM, IAO-localization
   Andreas Hansen         : Spin unrestricted coupled pair/coupled cluster methods
   Benjamin Helmich-Paris : MC-RPA, TRAH-SCF, COSX integrals
   Lee Huntington         : MR-EOM, pCC
   Robert Izsak           : Overlap fitted RIJCOSX, COSX-SCS-MP3, EOM
   Marcus Kettner         : VPT2
   Christian Kollmar      : KDIIS, OOCD, Brueckner-CCSD(T), CCSD density, CASPT2, CASPT2-K
   Simone Kossmann        : Meta GGA functionals, TD-DFT gradient, OOMP2, MP2 Hessian
   Martin Krupicka        : Initial AUTO-CI
   Lucas Lang             : DCDCAS
   Marvin Lechner         : AUTO-CI (C++ implementation), FIC-MRCC
   Dagmar Lenk            : GEPOL surface, SMD
   Dimitrios Liakos       : Extrapolation schemes; Compound Job, initial MDCI parallelization
   Dimitrios Manganas     : Further ROCIS development; embedding schemes
   Dimitrios Pantazis     : SARC Basis sets
   Anastasios Papadopoulos: AUTO-CI, single reference methods and gradients
   Taras Petrenko         : DFT Hessian,TD-DFT gradient, ASA, ECA, R-Raman, ABS, FL, XAS/XES, NRVS
   Peter Pinski           : DLPNO-MP2, DLPNO-MP2 Gradient
   Christoph Reimann      : Effective Core Potentials
   Marius Retegan         : Local ZFS, SOC
   Christoph Riplinger    : Optimizer, TS searches, QM/MM, DLPNO-CCSD(T), (RO)-DLPNO pert. Triples
   Tobias Risthaus        : Range-separated hybrids, TD-DFT gradient, RPA, STAB
   Michael Roemelt        : Original ROCIS implementation
   Masaaki Saitow         : Open-shell DLPNO-CCSD energy and density
   Barbara Sandhoefer     : DKH picture change effects
   Avijit Sen             : IP-ROCIS
   Kantharuban Sivalingam : CASSCF convergence, NEVPT2, FIC-MRCI
   Bernardo de Souza      : ESD, SOC TD-DFT
   Georgi Stoychev        : AutoAux, RI-MP2 NMR, DLPNO-MP2 response
   Willem Van den Heuvel  : Paramagnetic NMR
   Boris Wezisla          : Elementary symmetry handling
   Frank Wennmohs         : Technical directorship


 We gratefully acknowledge several colleagues who have allowed us to
 interface, adapt or use parts of their codes:
   Stefan Grimme, W. Hujo, H. Kruse, P. Pracht,  : VdW corrections, initial TS optimization,
                  C. Bannwarth, S. Ehlert          DFT functionals, gCP, sTDA/sTD-DF
   Ed Valeev, F. Pavosevic, A. Kumar             : LibInt (2-el integral package), F12 methods
   Garnet Chan, S. Sharma, J. Yang, R. Olivares  : DMRG
   Ulf Ekstrom                                   : XCFun DFT Library
   Mihaly Kallay                                 : mrcc  (arbitrary order and MRCC methods)
   Jiri Pittner, Ondrej Demel                    : Mk-CCSD
   Frank Weinhold                                : gennbo (NPA and NBO analysis)
   Christopher J. Cramer and Donald G. Truhlar   : smd solvation model
   Lars Goerigk                                  : TD-DFT with DH, B97 family of functionals
   V. Asgeirsson, H. Jonsson                     : NEB implementation
   FAccTs GmbH                                   : IRC, NEB, NEB-TS, DLPNO-Multilevel, CI-OPT
                                                   MM, QMMM, 2- and 3-layer-ONIOM, Crystal-QMMM,
                                                   LR-CPCM, SF, NACMEs, symmetry and pop. for TD-DFT,
                                                   nearIR, NL-DFT gradient (VV10), updates on ESD,
                                                   ML-optimized integration grids
   S Lehtola, MJT Oliveira, MAL Marques          : LibXC Library
   Liviu Ungur et al                             : ANISO software


 Your calculation uses the libint2 library for the computation of 2-el integrals
 For citations please refer to: http://libint.valeyev.net

 Your ORCA version has been built with support for libXC version: 5.1.0
 For citations please refer to: https://tddft.org/programs/libxc/

 This ORCA versions uses:
   CBLAS   interface :  Fast vector & matrix operations
   LAPACKE interface :  Fast linear algebra routines
   Shared memory     :  Shared parallel matrices


Your calculation utilizes the atom-pairwise dispersion correction
based on tight binding partial charges (D4)
Cite in your paper:
E.Caldeweyher, C.Bannwarth, S.Grimme, J.Chem.Phys., (2017), 147, 034112.
E.Caldeweyher, S.Ehlert, A.Hansen, H.Neugebauer, S.Grimme, J.Chem.Phys., (2018), in progress.
   

================================================================================

----- Orbital basis set information -----
Your calculation utilizes the basis: cc-pVDZ 
       H, B-Ne : Obtained from the ccRepo (grant-hill.group.shef.ac.uk/ccrepo) Feb. 2017
                 T. H. Dunning, Jr., J. Chem. Phys. 90, 1007 (1989)
            He : Obtained from the ccRepo (grant-hill.group.shef.ac.uk/ccrepo) Feb. 2017
                 D. E. Woon, T. H. Dunning, Jr., J. Chem. Phys. 100, 2975 (1994)
  Li-Be, Na-Mg : Obtained from the ccRepo (grant-hill.group.shef.ac.uk/ccrepo) Feb. 2017
                 B. P. Prascher, D. E. Woon, K. A. Peterson, T. H. Dunning, Jr., A. K. Wilson, Theor. Chem. Acc. 128, 69 (2011)
         Al-Ar : Obtained from the ccRepo (grant-hill.group.shef.ac.uk/ccrepo) Feb. 2017
                 D. E. Woon, T. H. Dunning, Jr., J. Chem. Phys. 98, 1358 (1993)
            Ca : Obtained from the Peterson Research Group Website (tyr0.chem.wsu.edu/~kipeters) Feb. 2017
                 J. Koput, K. A. Peterson, J. Phys. Chem. 106, 9595 (2002)
         Sc-Zn : Obtained from the ccRepo (grant-hill.group.shef.ac.uk/ccrepo) Feb. 2017
                 N. B. Balabanov, K. A. Peterson, J. Chem. Phys. 123, 064107 (2005)
                 N. B. Balabanov, K. A. Peterson, J. Chem. Phys. 125, 074110 (2006)
         Ga-Kr : Obtained from the ccRepo (grant-hill.group.shef.ac.uk/ccrepo) Feb. 2017
                 A. K. Wilson, D. E. Woon, K. A. Peterson, T. H. Dunning, Jr., J. Chem. Phys. 110, 7667 (1999)

----- AuxJ basis set information -----
Your calculation utilizes the auxiliary basis: def2/J
   F. Weigend, Phys. Chem. Chem. Phys. 8, 1057 (2006).

----- AuxC basis set information -----
Your calculation utilizes the auxiliary basis: cc-pVDZ/C 
  H-He, B, Ne, Al-Ar, Ga-Br : Obtained from the EMSL Basis Set Exchange (bse.pnl.gov) Feb. 2017
                              F. Weigend, A. Kohn, C. Hattig, J. Chem. Phys. 116, 3175 (2002)
               Li-Be, Na-Mg : Obtained from the EMSL Basis Set Exchange (bse.pnl.gov) Feb. 2017
                              C. Haettig, Phys. Chem. Chem. Phys. 7, 59 (2005)
                        C-F : Obtained from the EMSL Basis Set Exchange (bse.pnl.gov) Feb. 2017
                              C. Haettig, Phys. Chem. Chem. Phys. 7, 59 (2005)
                              F. Weigend, A. Kohn, C. Hattig, J. Chem. Phys. 116, 3175 (2002)
                         Kr : Obtained from the TURBOMOLE 7.0 basis set library
                              F. Weigend, A. Kohn, C. Hattig, J. Chem. Phys. 116, 3175 (2002)
                              S function revised in Sep. 2009

================================================================================
                                        WARNINGS
                       Please study these warnings very carefully!
================================================================================



WARNING: Found flag for RIJCOSX approximation but no HF exchange needed!
  ===> : RIJCOSX  will be disabled and Split-RI-J is turned on

WARNING: Geometry Optimization
  ===> : Switching off AutoStart
         For restart on a previous wavefunction, please use MOREAD

INFO   : the flag for use of the SHARK integral package has been found!

================================================================================
                                       INPUT FILE
================================================================================
NAME = opt.inp
|  1> !BP86 cc-pVDZ OPT FREQ D4 cc-pVDZ/C RIJCOSX 
|  2> 
|  3> %geom
|  4> convergence loose
|  5> end
|  6> 
|  7> * xyz 0 1
|  8>    C       -2.35960        1.23828       -0.50808
|  9>    C       -3.67227        1.57227       -0.11970
| 10>    C       -4.63898        0.58593        0.08995
| 11>    C       -4.31545       -0.76351       -0.08429
| 12>    C       -3.02097       -1.11633       -0.46873
| 13>    C       -2.04837       -0.13296       -0.68022
| 14>    H       -3.95192        2.60880        0.02286
| 15>    H       -5.63939        0.87381        0.38800
| 16>    H       -1.07749       -0.48702       -0.97409
| 17>    H       -2.76496       -2.15987       -0.60510
| 18>    O       -5.23713       -1.72749        0.11413
| 19>    H       -6.14510       -1.52451        0.38102
| 20>    N       -1.42579        2.31530       -0.70290
| 21>    C       -0.11359        2.23110       -1.07577
| 22>    H       -1.78782        3.26866       -0.54234
| 23>    C        0.69257        3.48857       -1.22363
| 24>    H        1.73536        3.25730       -1.53016
| 25>    H        0.71800        4.03127       -0.25549
| 26>    H        0.23050        4.13922       -1.99539
| 27>    O        0.43078        1.16233       -1.29461
| 28> **                         ****END OF INPUT****
================================================================================

                       *****************************
                       * Geometry Optimization Run *
                       *****************************

Geometry optimization settings:
Update method            Update   .... BFGS
Choice of coordinates    CoordSys .... Z-matrix Internals
Initial Hessian          InHess   .... Almoef's Model

Convergence Tolerances:
Energy Change            TolE     ....  3.0000e-05 Eh
Max. Gradient            TolMAXG  ....  2.0000e-03 Eh/bohr
RMS Gradient             TolRMSG  ....  5.0000e-04 Eh/bohr
Max. Displacement        TolMAXD  ....  1.0000e-02 bohr
RMS Displacement         TolRMSD  ....  7.0000e-03 bohr
Strict Convergence                ....  False
------------------------------------------------------------------------------
                        ORCA OPTIMIZATION COORDINATE SETUP
------------------------------------------------------------------------------

The optimization will be done in new redundant internal coordinates
Making redundant internal coordinates   ...  (new redundants) done
Evaluating the initial hessian          ...  (Almloef) done
Evaluating the coordinates              ...  done
Calculating the B-matrix                .... done
Calculating the G-matrix                .... done
Diagonalizing the G-matrix              .... done
Small eigenvalue found = 1.233e-02
The first mode is                       ....   37
The number of degrees of freedom        ....   54

    -----------------------------------------------------------------
                    Redundant Internal Coordinates


    -----------------------------------------------------------------
         Definition                    Initial Value    Approx d2E/dq
    -----------------------------------------------------------------
      1. B(C   1,C   0)                  1.4091         0.582514   
      2. B(C   2,C   1)                  1.3969         0.609143   
      3. B(C   3,C   2)                  1.3986         0.605415   
      4. B(C   4,C   3)                  1.3957         0.611869   
      5. B(C   5,C   0)                  1.4166         0.566601   
      6. B(C   5,C   4)                  1.3992         0.604085   
      7. B(H   6,C   1)                  1.0830         0.369460   
      8. B(H   7,C   2)                  1.0828         0.369706   
      9. B(H   8,C   5)                  1.0744         0.381346   
     10. B(H   9,C   4)                  1.0831         0.369339   
     11. B(O  10,C   3)                  1.3484         0.652051   
     12. B(H  11,O  10)                  0.9679         0.505073   
     13. B(N  12,C   0)                  1.4387         0.467885   
     14. B(C  13,N  12)                  1.3667         0.609506   
     15. B(H  14,N  12)                  1.0323         0.398604   
     16. B(C  15,C  13)                  1.5010         0.415578   
     17. B(H  16,C  15)                  1.1112         0.333069   
     18. B(H  17,C  15)                  1.1102         0.334389   
     19. B(H  18,C  15)                  1.1102         0.334388   
     20. B(O  19,C  13)                  1.2192         1.047956   
     21. A(C   1,C   0,N  12)          117.6800         0.405602   
     22. A(C   5,C   0,N  12)          124.4415         0.403623   
     23. A(C   1,C   0,C   5)          117.8785         0.422364   
     24. A(C   0,C   1,C   2)          121.2446         0.427872   
     25. A(C   2,C   1,H   6)          118.5113         0.353387   
     26. A(C   0,C   1,H   6)          120.2440         0.350725   
     27. A(C   3,C   2,H   7)          120.3001         0.353060   
     28. A(C   1,C   2,H   7)          119.5347         0.353427   
     29. A(C   1,C   2,C   3)          120.1653         0.430842   
     30. A(C   2,C   3,C   4)          119.5234         0.431188   
     31. A(C   2,C   3,O  10)          120.8868         0.433293   
     32. A(C   4,C   3,O  10)          119.5897         0.434120   
     33. A(C   5,C   4,H   9)          119.5915         0.352869   
     34. A(C   3,C   4,H   9)          119.8324         0.353635   
     35. A(C   3,C   4,C   5)          120.5761         0.431017   
     36. A(C   0,C   5,C   4)          120.6121         0.425119   
     37. A(C   4,C   5,H   8)          115.9689         0.354786   
     38. A(C   0,C   5,H   8)          123.4190         0.350961   
     39. A(C   3,O  10,H  11)          122.1319         0.371479   
     40. A(C  13,N  12,H  14)          115.8499         0.352683   
     41. A(C   0,N  12,H  14)          116.2726         0.337365   
     42. A(C   0,N  12,C  13)          127.8775         0.406232   
     43. A(N  12,C  13,O  19)          122.1166         0.469751   
     44. A(C  15,C  13,O  19)          118.4828         0.441034   
     45. A(N  12,C  13,C  15)          119.4006         0.400395   
     46. A(H  17,C  15,H  18)          109.2245         0.284183   
     47. A(H  16,C  15,H  18)          108.7109         0.284009   
     48. A(C  13,C  15,H  18)          109.6293         0.326055   
     49. A(H  16,C  15,H  17)          108.7112         0.284009   
     50. A(C  13,C  15,H  17)          109.6292         0.326055   
     51. A(C  13,C  15,H  16)          110.9050         0.325843   
     52. D(C   2,C   1,C   0,C   5)     -0.0008         0.023322   
     53. D(C   2,C   1,C   0,N  12)    179.9998         0.023322   
     54. D(H   6,C   1,C   0,N  12)      0.0003         0.023322   
     55. D(H   6,C   1,C   0,C   5)    179.9997         0.023322   
     56. D(C   3,C   2,C   1,H   6)   -180.0000         0.025623   
     57. D(H   7,C   2,C   1,C   0)   -179.9995         0.025623   
     58. D(C   3,C   2,C   1,C   0)      0.0005         0.025623   
     59. D(H   7,C   2,C   1,H   6)     -0.0000         0.025623   
     60. D(O  10,C   3,C   2,H   7)      0.0002         0.025292   
     61. D(O  10,C   3,C   2,C   1)   -179.9999         0.025292   
     62. D(C   4,C   3,C   2,H   7)   -179.9999         0.025292   
     63. D(C   4,C   3,C   2,C   1)      0.0000         0.025292   
     64. D(C   5,C   4,C   3,O  10)    179.9996         0.025866   
     65. D(H   9,C   4,C   3,C   2)    179.9999         0.025866   
     66. D(C   5,C   4,C   3,C   2)     -0.0003         0.025866   
     67. D(H   9,C   4,C   3,O  10)     -0.0002         0.025866   
     68. D(H   8,C   5,C   4,H   9)     -0.0006         0.025175   
     69. D(C   0,C   5,C   4,H   9)    179.9999         0.025175   
     70. D(C   0,C   5,C   4,C   3)      0.0001         0.025175   
     71. D(H   8,C   5,C   0,N  12)      0.0004         0.022011   
     72. D(H   8,C   5,C   0,C   1)   -179.9990         0.022011   
     73. D(H   8,C   5,C   4,C   3)    179.9996         0.025175   
     74. D(C   4,C   5,C   0,N  12)    179.9999         0.022011   
     75. D(C   4,C   5,C   0,C   1)      0.0005         0.022011   
     76. D(H  11,O  10,C   3,C   4)   -179.9996         0.031438   
     77. D(H  11,O  10,C   3,C   2)      0.0003         0.031438   
     78. D(H  14,N  12,C   0,C   5)   -179.9950         0.017254   
     79. D(H  14,N  12,C   0,C   1)      0.0044         0.017254   
     80. D(C  13,N  12,C   0,C   5)      0.0057         0.017254   
     81. D(C  13,N  12,C   0,C   1)   -179.9948         0.017254   
     82. D(C  15,C  13,N  12,C   0)   -179.9999         0.030004   
     83. D(O  19,C  13,N  12,H  14)   -179.9981         0.030004   
     84. D(O  19,C  13,N  12,C   0)      0.0011         0.030004   
     85. D(C  15,C  13,N  12,H  14)      0.0008         0.030004   
     86. D(H  18,C  15,C  13,O  19)    120.0540         0.012779   
     87. D(H  18,C  15,C  13,N  12)    -59.9450         0.012779   
     88. D(H  17,C  15,C  13,O  19)   -120.0544         0.012779   
     89. D(H  17,C  15,C  13,N  12)     59.9466         0.012779   
     90. D(H  16,C  15,C  13,O  19)     -0.0000         0.012779   
     91. D(H  16,C  15,C  13,N  12)   -179.9990         0.012779   
    -----------------------------------------------------------------

Number of atoms                         .... 20
Number of degrees of freedom            .... 91

         *************************************************************
         *                GEOMETRY OPTIMIZATION CYCLE   1            *
         *************************************************************
---------------------------------
CARTESIAN COORDINATES (ANGSTROEM)
---------------------------------
  C     -2.359600    1.238280   -0.508080
  C     -3.672270    1.572270   -0.119700
  C     -4.638980    0.585930    0.089950
  C     -4.315450   -0.763510   -0.084290
  C     -3.020970   -1.116330   -0.468730
  C     -2.048370   -0.132960   -0.680220
  H     -3.951920    2.608800    0.022860
  H     -5.639390    0.873810    0.388000
  H     -1.077490   -0.487020   -0.974090
  H     -2.764960   -2.159870   -0.605100
  O     -5.237130   -1.727490    0.114130
  H     -6.145100   -1.524510    0.381020
  N     -1.425790    2.315300   -0.702900
  C     -0.113590    2.231100   -1.075770
  H     -1.787820    3.268660   -0.542340
  C      0.692570    3.488570   -1.223630
  H      1.735360    3.257300   -1.530160
  H      0.718000    4.031270   -0.255490
  H      0.230500    4.139220   -1.995390
  O      0.430780    1.162330   -1.294610

----------------------------
CARTESIAN COORDINATES (A.U.)
----------------------------
  NO LB      ZA    FRAG     MASS         X           Y           Z
   0 C     6.0000    0    12.011   -4.458998    2.340010   -0.960132
   1 C     6.0000    0    12.011   -6.939585    2.971160   -0.226200
   2 C     6.0000    0    12.011   -8.766402    1.107247    0.169981
   3 C     6.0000    0    12.011   -8.155019   -1.442825   -0.159285
   4 C     6.0000    0    12.011   -5.708806   -2.109558   -0.885771
   5 C     6.0000    0    12.011   -3.870858   -0.251258   -1.285430
   6 H     1.0000    0     1.008   -7.468047    4.929918    0.043199
   7 H     1.0000    0     1.008  -10.656903    1.651262    0.733214
   8 H     1.0000    0     1.008   -2.036161   -0.920334   -1.840763
   9 H     1.0000    0     1.008   -5.225017   -4.081563   -1.143473
  10 O     8.0000    0    15.999   -9.896741   -3.264483    0.215674
  11 H     1.0000    0     1.008  -11.612556   -2.880906    0.720023
  12 N     7.0000    0    14.007   -2.694353    4.375283   -1.328288
  13 C     6.0000    0    12.011   -0.214654    4.216168   -2.032911
  14 H     1.0000    0     1.008   -3.378490    6.176872   -1.024874
  15 C     6.0000    0    12.011    1.308768    6.592442   -2.312326
  16 H     1.0000    0     1.008    3.279355    6.155405   -2.891583
  17 H     1.0000    0     1.008    1.356823    7.617996   -0.482806
  18 H     1.0000    0     1.008    0.435582    7.821992   -3.770741
  19 O     8.0000    0    15.999    0.814056    2.196485   -2.446458

--------------------------------
INTERNAL COORDINATES (ANGSTROEM)
--------------------------------
 C      0   0   0     0.000000000000     0.00000000     0.00000000
 C      1   0   0     1.409074474043     0.00000000     0.00000000
 C      2   1   0     1.396906561728   121.24463547     0.00000000
 C      3   2   1     1.398577688975   120.16527123     0.00000000
 C      4   3   2     1.395691418760   119.52344155     0.00000000
 C      5   4   3     1.399176663971   120.57608012     0.00000000
 H      2   1   3     1.083015197031   120.24402242   180.00048631
 H      3   2   1     1.082833719922   119.53466876   180.00045413
 H      6   5   4     1.074395660313   115.96890238   179.99955680
 H      5   4   3     1.083103701683   119.83244991   179.99986805
 O      4   3   2     1.348377528439   120.88681976   180.00013836
 H     11   4   3     0.967905301876   122.13194079     0.00000000
 N      1   2   3     1.438724445090   117.68003121   179.99977773
 C     13   1   2     1.366744495837   127.87754237   180.00516242
 H     13   1   2     1.032347094780   116.27259317     0.00000000
 C     14  13   1     1.500995445063   119.40060421   180.00006942
 H     16  14  13     1.111241394972   110.90501407   180.00099471
 H     16  14  13     1.110164417778   109.62920652    59.94663911
 H     16  14  13     1.110165575489   109.62927649   300.05501521
 O     14  13   1     1.219220634422   122.11658771     0.00000000

---------------------------
INTERNAL COORDINATES (A.U.)
---------------------------
 C      0   0   0     0.000000000000     0.00000000     0.00000000
 C      1   0   0     2.662764858241     0.00000000     0.00000000
 C      2   1   0     2.639770836344   121.24463547     0.00000000
 C      3   2   1     2.642928809176   120.16527123     0.00000000
 C      4   3   2     2.637474548920   119.52344155     0.00000000
 C      5   4   3     2.644060707878   120.57608012     0.00000000
 H      2   1   3     2.046602121263   120.24402242   180.00048631
 H      3   2   1     2.046259179228   119.53466876   180.00045413
 H      6   5   4     2.030313557466   115.96890238   179.99955680
 H      5   4   3     2.046769370818   119.83244991   179.99986805
 O      4   3   2     2.548064253884   120.88681976   180.00013836
 H     11   4   3     1.829075944116   122.13194079     0.00000000
 N      1   2   3     2.718795183398   117.68003121   179.99977773
 C     13   1   2     2.582772792176   127.87754237   180.00516242
 H     13   1   2     1.950853284283   116.27259317     0.00000000
 C     14  13   1     2.836470319432   119.40060421   180.00006942
 H     16  14  13     2.099941905174   110.90501407   180.00099471
 H     16  14  13     2.097906713224   109.62920652    59.94663911
 H     16  14  13     2.097908900981   109.62927649   300.05501521
 O     14  13   1     2.303993095883   122.11658771     0.00000000

---------------------
BASIS SET INFORMATION
---------------------
There are 4 groups of distinct atoms

 Group   1 Type C   : 17s4p1d contracted to 3s2p1d pattern {881/31/1}
 Group   2 Type H   : 4s1p contracted to 2s1p pattern {31/1}
 Group   3 Type O   : 17s4p1d contracted to 3s2p1d pattern {881/31/1}
 Group   4 Type N   : 17s4p1d contracted to 3s2p1d pattern {881/31/1}

Atom   0C    basis set group =>   1
Atom   1C    basis set group =>   1
Atom   2C    basis set group =>   1
Atom   3C    basis set group =>   1
Atom   4C    basis set group =>   1
Atom   5C    basis set group =>   1
Atom   6H    basis set group =>   2
Atom   7H    basis set group =>   2
Atom   8H    basis set group =>   2
Atom   9H    basis set group =>   2
Atom  10O    basis set group =>   3
Atom  11H    basis set group =>   2
Atom  12N    basis set group =>   4
Atom  13C    basis set group =>   1
Atom  14H    basis set group =>   2
Atom  15C    basis set group =>   1
Atom  16H    basis set group =>   2
Atom  17H    basis set group =>   2
Atom  18H    basis set group =>   2
Atom  19O    basis set group =>   3
---------------------------------
AUXILIARY/J BASIS SET INFORMATION
---------------------------------
There are 4 groups of distinct atoms

 Group   1 Type C   : 12s5p4d2f1g contracted to 6s4p3d1f1g pattern {711111/2111/211/2/1}
 Group   2 Type H   : 5s2p1d contracted to 3s1p1d pattern {311/2/1}
 Group   3 Type O   : 12s5p4d2f1g contracted to 6s4p3d1f1g pattern {711111/2111/211/2/1}
 Group   4 Type N   : 12s5p4d2f1g contracted to 6s4p3d1f1g pattern {711111/2111/211/2/1}

Atom   0C    basis set group =>   1
Atom   1C    basis set group =>   1
Atom   2C    basis set group =>   1
Atom   3C    basis set group =>   1
Atom   4C    basis set group =>   1
Atom   5C    basis set group =>   1
Atom   6H    basis set group =>   2
Atom   7H    basis set group =>   2
Atom   8H    basis set group =>   2
Atom   9H    basis set group =>   2
Atom  10O    basis set group =>   3
Atom  11H    basis set group =>   2
Atom  12N    basis set group =>   4
Atom  13C    basis set group =>   1
Atom  14H    basis set group =>   2
Atom  15C    basis set group =>   1
Atom  16H    basis set group =>   2
Atom  17H    basis set group =>   2
Atom  18H    basis set group =>   2
Atom  19O    basis set group =>   3
---------------------------------
AUXILIARY/C BASIS SET INFORMATION
---------------------------------
There are 4 groups of distinct atoms

 Group   1 Type C   : 7s5p4d2f contracted to 7s5p4d2f pattern {1111111/11111/1111/11}
 Group   2 Type H   : 3s2p1d contracted to 3s2p1d pattern {111/11/1}
 Group   3 Type O   : 7s5p4d2f contracted to 7s5p4d2f pattern {1111111/11111/1111/11}
 Group   4 Type N   : 7s5p4d2f contracted to 7s5p4d2f pattern {1111111/11111/1111/11}

Atom   0C    basis set group =>   1
Atom   1C    basis set group =>   1
Atom   2C    basis set group =>   1
Atom   3C    basis set group =>   1
Atom   4C    basis set group =>   1
Atom   5C    basis set group =>   1
Atom   6H    basis set group =>   2
Atom   7H    basis set group =>   2
Atom   8H    basis set group =>   2
Atom   9H    basis set group =>   2
Atom  10O    basis set group =>   3
Atom  11H    basis set group =>   2
Atom  12N    basis set group =>   4
Atom  13C    basis set group =>   1
Atom  14H    basis set group =>   2
Atom  15C    basis set group =>   1
Atom  16H    basis set group =>   2
Atom  17H    basis set group =>   2
Atom  18H    basis set group =>   2
Atom  19O    basis set group =>   3
------------------------------------------------------------------------------
                           ORCA GTO INTEGRAL CALCULATION
                           -- RI-GTO INTEGRALS CHOSEN --
------------------------------------------------------------------------------
------------------------------------------------------------------------------
                   ___                                                        
                  /   \      - P O W E R E D   B Y -                         
                 /     \                                                     
                 |  |  |   _    _      __       _____    __    __             
                 |  |  |  | |  | |    /  \     |  _  \  |  |  /  |          
                  \  \/   | |  | |   /    \    | | | |  |  | /  /          
                 / \  \   | |__| |  /  /\  \   | |_| |  |  |/  /          
                |  |  |   |  __  | /  /__\  \  |    /   |      \           
                |  |  |   | |  | | |   __   |  |    \   |  |\   \          
                \     /   | |  | | |  |  |  |  | |\  \  |  | \   \       
                 \___/    |_|  |_| |__|  |__|  |_| \__\ |__|  \__/        
                                                                              
                      - O R C A' S   B I G   F R I E N D -                    
                                      &                                       
                       - I N T E G R A L  F E E D E R -                       
                                                                              
 v1 FN, 2020, v2 2021                                                         
------------------------------------------------------------------------------


Reading SHARK input file opt.SHARKINP.tmp ... ok
----------------------
SHARK INTEGRAL PACKAGE
----------------------

Number of atoms                             ...     20
Number of basis functions                   ...    265
Number of shells                            ...    159
Maximum angular momentum                    ...      2
Integral batch strategy                     ... SHARK/LIBINT Hybrid
RI-J (if used) integral strategy            ... SPLIT-RIJ (Revised 2003 algorithm where possible)
Printlevel                                  ...      1
Contraction scheme used                     ... PARTIAL GENERAL contraction
Coulomb Range Separation                    ... NOT USED
Exchange Range Separation                   ... NOT USED
Finite Nucleus Model                        ... NOT USED
Auxiliary Coulomb fitting basis             ... AVAILABLE
   # of basis functions in Aux-J            ...    638
   # of shells in Aux-J                     ...    210
   Maximum angular momentum in Aux-J        ...      4
Auxiliary J/K fitting basis                 ... NOT available
Auxiliary Correlation fitting basis         ... AVAILABLE
   # of basis functions in Aux-C            ...    742
   # of shells in Aux-C                     ...    252
   Maximum angular momentum in Aux-C        ...      3
Auxiliary 'external' fitting basis          ... NOT available
Integral threshold                          ...     2.500000e-11
Primitive cut-off                           ...     2.500000e-12
Primitive pair pre-selection threshold      ...     2.500000e-12

Calculating pre-screening integrals         ... done (  0.1 sec) Dimension = 159
Calculating pre-screening integrals (ORCA)  ... done (  0.6 sec) Dimension = 93
Organizing shell pair data                  ... done (  0.1 sec)
Shell pair information
Total number of shell pairs                 ...     12720
Shell pairs after pre-screening             ...      7970
Total number of primitive shell pairs       ...     19960
Primitive shell pairs kept                  ...     11029
          la=0 lb=0:   3525 shell pairs
          la=1 lb=0:   2727 shell pairs
          la=1 lb=1:    433 shell pairs
          la=2 lb=0:    935 shell pairs
          la=2 lb=1:    293 shell pairs
          la=2 lb=2:     57 shell pairs

Calculating one electron integrals          ... done (  0.1 sec)
Calculating RI/J V-Matrix + Cholesky decomp.... done (  0.1 sec)
Calculating RI/C V-Matrix + Cholesky decomp.... done (  0.1 sec)
Calculating Nuclear repulsion               ... done (  0.0 sec) ENN=    569.143948286421 Eh

SHARK setup successfully completed in   1.5 seconds

Maximum memory used throughout the entire GTOINT-calculation: 32.2 MB
-------------------------------------------------------------------------------
                                 ORCA SCF
-------------------------------------------------------------------------------

------------
SCF SETTINGS
------------
Hamiltonian:
 Density Functional     Method          .... DFT(GTOs)
 Exchange Functional    Exchange        .... B88
   X-Alpha parameter    XAlpha          ....  0.666667
   Becke's b parameter  XBeta           ....  0.004200
 Correlation Functional Correlation     .... P86
 LDA part of GGA corr.  LDAOpt          .... PW91-LDA
 Gradients option       PostSCFGGA      .... off
   Density functional embedding theory  .... OFF
   NL short-range parameter             ....  4.400000
 RI-approximation to the Coulomb term is turned on
   Number of AuxJ basis functions       .... 638


General Settings:
 Integral files         IntName         .... opt
 Hartree-Fock type      HFTyp           .... RHF
 Total Charge           Charge          ....    0
 Multiplicity           Mult            ....    1
 Number of Electrons    NEL             ....   80
 Basis Dimension        Dim             ....  199
 Nuclear Repulsion      ENuc            ....    569.1439482864 Eh

Convergence Acceleration:
 DIIS                   CNVDIIS         .... on
   Start iteration      DIISMaxIt       ....    12
   Startup error        DIISStart       ....  0.200000
   # of expansion vecs  DIISMaxEq       ....     5
   Bias factor          DIISBfac        ....   1.050
   Max. coefficient     DIISMaxC        ....  10.000
 Trust-Rad. Augm. Hess. CNVTRAH         .... auto
   Auto Start mean grad. ratio tolernc. ....  1.125000
   Auto Start start iteration           ....    20
   Auto Start num. interpolation iter.  ....    10
   Max. Number of Micro iterations      ....    16
   Max. Number of Macro iterations      .... Maxiter - #DIIS iter
   Number of Davidson start vectors     ....     2
   Converg. threshold I  (grad. norm)   ....   1.000e-05
   Converg. threshold II (energy diff.) ....   1.000e-08
   Grad. Scal. Fac. for Micro threshold ....   0.100
   Minimum threshold for Micro iter.    ....   0.010
   NR start threshold (gradient norm)   ....   0.001
   Initial trust radius                 ....   0.400
   Minimum AH scaling param. (alpha)    ....   1.000
   Maximum AH scaling param. (alpha)    .... 1000.000
   Orbital update algorithm             .... Taylor
   White noise on init. David. guess    .... on
   Maximum white noise                  ....   0.010
   Quad. conv. algorithm                .... NR
 SOSCF                  CNVSOSCF        .... on
   Start iteration      SOSCFMaxIt      ....   150
   Startup grad/error   SOSCFStart      ....  0.003300
 Level Shifting         CNVShift        .... on
   Level shift para.    LevelShift      ....    0.2500
   Turn off err/grad.   ShiftErr        ....    0.0010
 Zerner damping         CNVZerner       .... off
 Static damping         CNVDamp         .... on
   Fraction old density DampFac         ....    0.7000
   Max. Damping (<1)    DampMax         ....    0.9800
   Min. Damping (>=0)   DampMin         ....    0.0000
   Turn off err/grad.   DampErr         ....    0.1000
 Fernandez-Rico         CNVRico         .... off

SCF Procedure:
 Maximum # iterations   MaxIter         ....   125
 SCF integral mode      SCFMode         .... Direct
   Integral package                     .... SHARK and LIBINT hybrid scheme
 Reset frequency        DirectResetFreq ....    20
 Integral Threshold     Thresh          ....  2.500e-11 Eh
 Primitive CutOff       TCut            ....  2.500e-12 Eh

Convergence Tolerance:
 Convergence Check Mode ConvCheckMode   .... Total+1el-Energy
 Convergence forced     ConvForced      .... 0
 Energy Change          TolE            ....  1.000e-08 Eh
 1-El. energy change                    ....  1.000e-05 Eh
 Orbital Gradient       TolG            ....  1.000e-05
 Orbital Rotation angle TolX            ....  1.000e-05
 DIIS Error             TolErr          ....  5.000e-07


Diagonalization of the overlap matrix:
Smallest eigenvalue                        ... 3.628e-04
Time for diagonalization                   ...    0.013 sec
Threshold for overlap eigenvalues          ... 1.000e-08
Number of eigenvalues below threshold      ... 0
Time for construction of square roots      ...    0.007 sec
Total time needed                          ...    0.021 sec

Time for model grid setup =    1.408 sec

------------------------------
INITIAL GUESS: MODEL POTENTIAL
------------------------------
Loading Hartree-Fock densities                     ... done
Calculating cut-offs                               ... done
Initializing the effective Hamiltonian             ... done
Setting up the integral package (SHARK)            ... done
Starting the Coulomb interaction                   ... done (   1.6 sec)
Reading the grid                                   ... done
Mapping shells                                     ... done
Starting the XC term evaluation                    ... done (   0.7 sec)
  promolecular density results
     # of electrons  =     79.993629616
     EX              =    -66.780065664
     EC              =     -2.924467528
     EX+EC           =    -69.704533191
Transforming the Hamiltonian                       ... done (   0.0 sec)
Diagonalizing the Hamiltonian                      ... done (   0.0 sec)
Back transforming the eigenvectors                 ... done (   0.0 sec)
Now organizing SCF variables                       ... done
                      ------------------
                      INITIAL GUESS DONE (   3.7 sec)
                      ------------------
-------------------
DFT GRID GENERATION
-------------------

General Integration Accuracy     IntAcc      ... 4.388
Radial Grid Type                 RadialGrid  ... OptM3 with GC (2021)
Angular Grid (max. ang.)         AngularGrid ... 4 (Lebedev-302)
Angular grid pruning method      GridPruning ... 4 (adaptive)
Weight generation scheme         WeightScheme... Becke
Basis function cutoff            BFCut       ... 1.0000e-11
Integration weight cutoff        WCut        ... 1.0000e-14
Angular grids for H and He will be reduced by one unit
Partially contracted basis set               ... off
Rotationally invariant grid construction     ... off

Total number of grid points                  ...    95264
Total number of batches                      ...     1498
Average number of points per batch           ...       63
Average number of grid points per atom       ...     4763
Time for grid setup =    2.789 sec

--------------
SCF ITERATIONS
--------------
ITER       Energy         Delta-E        Max-DP      RMS-DP      [F,P]     Damp
               ***  Starting incremental Fock matrix formation  ***
  0   -515.2272305448   0.000000000000 0.11391080  0.00253761  0.2656578 0.7000
  1   -515.3724999714  -0.145269426589 0.05896454  0.00159254  0.0884384 0.7000
                               ***Turning on DIIS***
  2   -515.4185955114  -0.046095540056 0.05283265  0.00210571  0.0313724 0.0000
  3   -515.4981430288  -0.079547517350 0.03790948  0.00111175  0.0540851 0.0000
  4   -515.5155803771  -0.017437348357 0.01645919  0.00035401  0.0281594 0.0000
                      *** Initiating the SOSCF procedure ***
                           *** Shutting down DIIS ***
                      *** Re-Reading the Fockian *** 
                      *** Removing any level shift *** 
ITER      Energy       Delta-E        Grad      Rot      Max-DP    RMS-DP
  5   -515.51816230  -0.0025819247  0.000775  0.000775  0.002904  0.000106
               *** Restarting incremental Fock matrix formation ***
  6   -515.51825139  -0.0000890891  0.000434  0.002171  0.003555  0.000085
  7   -515.51822088   0.0000305120  0.001276  0.001669  0.003059  0.000051
  8   -515.51826083  -0.0000399530  0.000268  0.000822  0.000953  0.000028
  9   -515.51825744   0.0000033894  0.000432  0.000653  0.000701  0.000017
 10   -515.51826206  -0.0000046222  0.000092  0.000519  0.000474  0.000010
 11   -515.51826148   0.0000005867  0.000172  0.000349  0.000318  0.000007
 12   -515.51826224  -0.0000007643  0.000012  0.000041  0.000110  0.000002
 13   -515.51826222   0.0000000202  0.000024  0.000027  0.000070  0.000001
 14   -515.51826225  -0.0000000278  0.000003  0.000013  0.000019  0.000000
 15   -515.51826225  -0.0000000048  0.000005  0.000010  0.000014  0.000000
                 **** Energy Check signals convergence ****
              ***Rediagonalizing the Fockian in SOSCF/NRSCF***

               *****************************************************
               *                     SUCCESS                       *
               *           SCF CONVERGED AFTER  16 CYCLES          *
               *****************************************************


----------------
TOTAL SCF ENERGY
----------------

Total Energy       :         -515.51826225 Eh          -14027.96508 eV

Components:
Nuclear Repulsion  :          569.14394829 Eh           15487.19419 eV
Electronic Energy  :        -1084.66221054 Eh          -29515.15927 eV
One Electron Energy:        -1828.77417492 Eh          -49763.47523 eV
Two Electron Energy:          744.11196438 Eh           20248.31596 eV

Virial components:
Potential Energy   :        -1027.43994476 Eh          -27958.06226 eV
Kinetic Energy     :          511.92168251 Eh           13930.09717 eV
Virial Ratio       :            2.00702564


DFT components:
N(Alpha)           :       39.999974852474 electrons
N(Beta)            :       39.999974852474 electrons
N(Total)           :       79.999949704947 electrons
E(X)               :      -67.967989216004 Eh       
E(C)               :       -2.940544149987 Eh       
E(XC)              :      -70.908533365991 Eh       
DFET-embed. en.    :        0.000000000000 Eh       

---------------
SCF CONVERGENCE
---------------

  Last Energy change         ...    2.1142e-09  Tolerance :   1.0000e-08
  Last MAX-Density change    ...    3.0175e-06  Tolerance :   1.0000e-07
  Last RMS-Density change    ...    9.4809e-08  Tolerance :   5.0000e-09
  Last Orbital Gradient      ...    6.6753e-07  Tolerance :   1.0000e-05
  Last Orbital Rotation      ...    3.9884e-06  Tolerance :   1.0000e-05

             **** THE GBW FILE WAS UPDATED (opt.gbw) ****
             **** DENSITY opt.scfp WAS UPDATED ****
             **** ENERGY FILE WAS UPDATED (opt.en.tmp) ****
             **** THE GBW FILE WAS UPDATED (opt.gbw) ****
             **** DENSITY opt.scfp WAS UPDATED ****
----------------
ORBITAL ENERGIES
----------------

  NO   OCC          E(Eh)            E(eV) 
   0   2.0000     -18.810590      -511.8622 
   1   2.0000     -18.741951      -509.9944 
   2   2.0000     -14.056393      -382.4939 
   3   2.0000     -10.001783      -272.1624 
   4   2.0000      -9.969960      -271.2964 
   5   2.0000      -9.957782      -270.9650 
   6   2.0000      -9.922462      -270.0039 
   7   2.0000      -9.920578      -269.9526 
   8   2.0000      -9.914009      -269.7739 
   9   2.0000      -9.909630      -269.6547 
  10   2.0000      -9.907915      -269.6081 
  11   2.0000      -0.973107       -26.4796 
  12   2.0000      -0.947752       -25.7896 
  13   2.0000      -0.851741       -23.1770 
  14   2.0000      -0.770001       -20.9528 
  15   2.0000      -0.689580       -18.7644 
  16   2.0000      -0.679608       -18.4931 
  17   2.0000      -0.653518       -17.7831 
  18   2.0000      -0.583736       -15.8843 
  19   2.0000      -0.556102       -15.1323 
  20   2.0000      -0.525581       -14.3018 
  21   2.0000      -0.499046       -13.5797 
  22   2.0000      -0.480505       -13.0752 
  23   2.0000      -0.429331       -11.6827 
  24   2.0000      -0.411641       -11.2013 
  25   2.0000      -0.406613       -11.0645 
  26   2.0000      -0.392068       -10.6687 
  27   2.0000      -0.377809       -10.2807 
  28   2.0000      -0.369573       -10.0566 
  29   2.0000      -0.365114        -9.9353 
  30   2.0000      -0.349065        -9.4985 
  31   2.0000      -0.340112        -9.2549 
  32   2.0000      -0.338520        -9.2116 
  33   2.0000      -0.322905        -8.7867 
  34   2.0000      -0.297667        -8.0999 
  35   2.0000      -0.288502        -7.8505 
  36   2.0000      -0.245747        -6.6871 
  37   2.0000      -0.226794        -6.1714 
  38   2.0000      -0.194586        -5.2950 
  39   2.0000      -0.176212        -4.7950 
  40   0.0000      -0.037917        -1.0318 
  41   0.0000      -0.030887        -0.8405 
  42   0.0000       0.015298         0.4163 
  43   0.0000       0.022489         0.6119 
  44   0.0000       0.025385         0.6908 
  45   0.0000       0.049625         1.3504 
  46   0.0000       0.071416         1.9433 
  47   0.0000       0.096816         2.6345 
  48   0.0000       0.100684         2.7398 
  49   0.0000       0.108417         2.9502 
  50   0.0000       0.119843         3.2611 
  51   0.0000       0.126219         3.4346 
  52   0.0000       0.148950         4.0531 
  53   0.0000       0.159761         4.3473 
  54   0.0000       0.184593         5.0230 
  55   0.0000       0.212171         5.7735 
  56   0.0000       0.243012         6.6127 
  57   0.0000       0.253360         6.8943 
  58   0.0000       0.266180         7.2431 
  59   0.0000       0.285858         7.7786 
  60   0.0000       0.318602         8.6696 
  61   0.0000       0.343739         9.3536 
  62   0.0000       0.375896        10.2287 
  63   0.0000       0.402664        10.9570 
  64   0.0000       0.406346        11.0572 
  65   0.0000       0.419506        11.4154 
  66   0.0000       0.421889        11.4802 
  67   0.0000       0.432833        11.7780 
  68   0.0000       0.440090        11.9754 
  69   0.0000       0.459858        12.5134 
  70   0.0000       0.462432        12.5834 
  71   0.0000       0.465539        12.6679 
  72   0.0000       0.475459        12.9379 
  73   0.0000       0.482781        13.1371 
  74   0.0000       0.484619        13.1872 
  75   0.0000       0.500885        13.6298 
  76   0.0000       0.508876        13.8472 
  77   0.0000       0.516344        14.0504 
  78   0.0000       0.558121        15.1872 
  79   0.0000       0.561511        15.2795 
  80   0.0000       0.574236        15.6258 
  81   0.0000       0.581804        15.8317 
  82   0.0000       0.582205        15.8426 
  83   0.0000       0.585285        15.9264 
  84   0.0000       0.604071        16.4376 
  85   0.0000       0.608661        16.5625 
  86   0.0000       0.637848        17.3567 
  87   0.0000       0.652680        17.7603 
  88   0.0000       0.657685        17.8965 
  89   0.0000       0.663183        18.0461 
  90   0.0000       0.684344        18.6219 
  91   0.0000       0.699183        19.0257 
  92   0.0000       0.730306        19.8726 
  93   0.0000       0.751444        20.4478 
  94   0.0000       0.785326        21.3698 
  95   0.0000       0.812019        22.0962 
  96   0.0000       0.814428        22.1617 
  97   0.0000       0.824122        22.4255 
  98   0.0000       0.854514        23.2525 
  99   0.0000       0.859580        23.3904 
 100   0.0000       0.869035        23.6476 
 101   0.0000       0.882633        24.0177 
 102   0.0000       0.911224        24.7957 
 103   0.0000       0.925237        25.1770 
 104   0.0000       0.946490        25.7553 
 105   0.0000       0.947866        25.7928 
 106   0.0000       0.973354        26.4863 
 107   0.0000       0.984962        26.8022 
 108   0.0000       0.993429        27.0326 
 109   0.0000       1.013029        27.5659 
 110   0.0000       1.020374        27.7658 
 111   0.0000       1.045981        28.4626 
 112   0.0000       1.053100        28.6563 
 113   0.0000       1.072634        29.1879 
 114   0.0000       1.109323        30.1862 
 115   0.0000       1.133743        30.8507 
 116   0.0000       1.139968        31.0201 
 117   0.0000       1.193380        32.4735 
 118   0.0000       1.229930        33.4681 
 119   0.0000       1.235121        33.6093 
 120   0.0000       1.301536        35.4166 
 121   0.0000       1.306333        35.5471 
 122   0.0000       1.314239        35.7623 
 123   0.0000       1.326926        36.1075 
 124   0.0000       1.335148        36.3312 
 125   0.0000       1.371969        37.3332 
 126   0.0000       1.401681        38.1417 
 127   0.0000       1.415192        38.5093 
 128   0.0000       1.419069        38.6148 
 129   0.0000       1.439117        39.1604 
 130   0.0000       1.475051        40.1382 
 131   0.0000       1.491055        40.5737 
 132   0.0000       1.496046        40.7095 
 133   0.0000       1.499861        40.8133 
 134   0.0000       1.532266        41.6951 
 135   0.0000       1.541178        41.9376 
 136   0.0000       1.549898        42.1749 
 137   0.0000       1.565854        42.6091 
 138   0.0000       1.575202        42.8634 
 139   0.0000       1.582585        43.0643 
 140   0.0000       1.591835        43.3160 
 141   0.0000       1.610361        43.8201 
 142   0.0000       1.640447        44.6388 
 143   0.0000       1.649294        44.8796 
 144   0.0000       1.678638        45.6781 
 145   0.0000       1.678648        45.6783 
 146   0.0000       1.691282        46.0221 
 147   0.0000       1.699067        46.2340 
 148   0.0000       1.724024        46.9131 
 149   0.0000       1.726606        46.9833 
 150   0.0000       1.757046        47.8117 
 151   0.0000       1.772496        48.2321 
 152   0.0000       1.788949        48.6798 
 153   0.0000       1.799476        48.9662 
 154   0.0000       1.810618        49.2694 
 155   0.0000       1.842566        50.1388 
 156   0.0000       1.886691        51.3395 
 157   0.0000       1.903888        51.8074 
 158   0.0000       1.905509        51.8515 
 159   0.0000       1.943846        52.8948 
 160   0.0000       1.960852        53.3575 
 161   0.0000       1.978069        53.8260 
 162   0.0000       2.006185        54.5911 
 163   0.0000       2.031786        55.2877 
 164   0.0000       2.036378        55.4127 
 165   0.0000       2.047743        55.7219 
 166   0.0000       2.073251        56.4160 
 167   0.0000       2.080256        56.6066 
 168   0.0000       2.139052        58.2066 
 169   0.0000       2.145377        58.3787 
 170   0.0000       2.194919        59.7268 
 171   0.0000       2.219152        60.3862 
 172   0.0000       2.238538        60.9137 
 173   0.0000       2.272380        61.8346 
 174   0.0000       2.283825        62.1460 
 175   0.0000       2.296376        62.4876 
 176   0.0000       2.324734        63.2592 
 177   0.0000       2.340778        63.6958 
 178   0.0000       2.355597        64.0991 
 179   0.0000       2.391655        65.0802 
 180   0.0000       2.487868        67.6983 
 181   0.0000       2.541156        69.1484 
 182   0.0000       2.556997        69.5794 
 183   0.0000       2.605959        70.9118 
 184   0.0000       2.645308        71.9825 
 185   0.0000       2.671434        72.6934 
 186   0.0000       2.716364        73.9160 
 187   0.0000       2.737530        74.4920 
 188   0.0000       2.808014        76.4099 
 189   0.0000       2.886611        78.5487 
 190   0.0000       2.902540        78.9821 
 191   0.0000       2.987267        81.2877 
 192   0.0000       3.020645        82.1959 
 193   0.0000       3.051123        83.0253 
 194   0.0000       3.169109        86.2358 
 195   0.0000       3.369268        91.6824 
 196   0.0000       3.426890        93.2504 
 197   0.0000       3.531981        96.1101 
 198   0.0000       3.698319       100.6364 

                    ********************************
                    * MULLIKEN POPULATION ANALYSIS *
                    ********************************

-----------------------
MULLIKEN ATOMIC CHARGES
-----------------------
   0 C :    0.055922
   1 C :    0.010097
   2 C :    0.000933
   3 C :    0.048662
   4 C :    0.025231
   5 C :    0.047645
   6 H :   -0.032594
   7 H :   -0.029963
   8 H :   -0.001838
   9 H :   -0.013972
  10 O :   -0.164623
  11 H :    0.149005
  12 N :   -0.118294
  13 C :    0.043351
  14 H :    0.085793
  15 C :   -0.050102
  16 H :    0.066942
  17 H :    0.055107
  18 H :    0.055111
  19 O :   -0.232416
Sum of atomic charges:    0.0000000

--------------------------------
MULLIKEN REDUCED ORBITAL CHARGES
--------------------------------
  0 C s       :     3.080447  s :     3.080447
      pz      :     1.013439  p :     2.761295
      px      :     0.858583
      py      :     0.889272
      dz2     :     0.008315  d :     0.102336
      dxz     :     0.014370
      dyz     :     0.018585
      dx2y2   :     0.025345
      dxy     :     0.035721
  1 C s       :     3.105756  s :     3.105756
      pz      :     1.019281  p :     2.823994
      px      :     0.953549
      py      :     0.851164
      dz2     :     0.004959  d :     0.060153
      dxz     :     0.012914
      dyz     :     0.005307
      dx2y2   :     0.022137
      dxy     :     0.014836
  2 C s       :     3.083925  s :     3.083925
      pz      :     1.041801  p :     2.856884
      px      :     0.874938
      py      :     0.940144
      dz2     :     0.003179  d :     0.058258
      dxz     :     0.005205
      dyz     :     0.013090
      dx2y2   :     0.021845
      dxy     :     0.014939
  3 C s       :     3.097649  s :     3.097649
      pz      :     0.973400  p :     2.712841
      px      :     0.893993
      py      :     0.845448
      dz2     :     0.010760  d :     0.140847
      dxz     :     0.021037
      dyz     :     0.023638
      dx2y2   :     0.039217
      dxy     :     0.046195
  4 C s       :     3.095274  s :     3.095274
      pz      :     1.021102  p :     2.821088
      px      :     0.951148
      py      :     0.848838
      dz2     :     0.004471  d :     0.058407
      dxz     :     0.011536
      dyz     :     0.005422
      dx2y2   :     0.023151
      dxy     :     0.013826
  5 C s       :     3.119378  s :     3.119378
      pz      :     0.970110  p :     2.773618
      px      :     0.875621
      py      :     0.927887
      dz2     :     0.003281  d :     0.059358
      dxz     :     0.005496
      dyz     :     0.013149
      dx2y2   :     0.020497
      dxy     :     0.016936
  6 H s       :     1.003942  s :     1.003942
      pz      :     0.007243  p :     0.028651
      px      :     0.005741
      py      :     0.015667
  7 H s       :     1.001053  s :     1.001053
      pz      :     0.008154  p :     0.028909
      px      :     0.015043
      py      :     0.005713
  8 H s       :     0.970852  s :     0.970852
      pz      :     0.007575  p :     0.030987
      px      :     0.017816
      py      :     0.005595
  9 H s       :     0.985306  s :     0.985306
      pz      :     0.006868  p :     0.028666
      px      :     0.005415
      py      :     0.016383
 10 O s       :     3.659388  s :     3.659388
      pz      :     1.745754  p :     4.492747
      px      :     1.148568
      py      :     1.598425
      dz2     :     0.001708  d :     0.012488
      dxz     :     0.001369
      dyz     :     0.002150
      dx2y2   :     0.003341
      dxy     :     0.003920
 11 H s       :     0.769991  s :     0.769991
      pz      :     0.023302  p :     0.081004
      px      :     0.040034
      py      :     0.017668
 12 N s       :     3.422416  s :     3.422416
      pz      :     1.555794  p :     3.667948
      px      :     1.080122
      py      :     1.032032
      dz2     :     0.002906  d :     0.027930
      dxz     :     0.005800
      dyz     :     0.002741
      dx2y2   :     0.008910
      dxy     :     0.007572
 13 C s       :     3.081878  s :     3.081878
      pz      :     0.875608  p :     2.671383
      px      :     0.865337
      py      :     0.930437
      dz2     :     0.014388  d :     0.203388
      dxz     :     0.029800
      dyz     :     0.032006
      dx2y2   :     0.069886
      dxy     :     0.057308
 14 H s       :     0.861179  s :     0.861179
      pz      :     0.014743  p :     0.053028
      px      :     0.011510
      py      :     0.026776
 15 C s       :     3.025317  s :     3.025317
      pz      :     0.988561  p :     2.988933
      px      :     1.010863
      py      :     0.989509
      dz2     :     0.005413  d :     0.035852
      dxz     :     0.004023
      dyz     :     0.009905
      dx2y2   :     0.007557
      dxy     :     0.008954
 16 H s       :     0.905757  s :     0.905757
      pz      :     0.006927  p :     0.027300
      px      :     0.014935
      py      :     0.005438
 17 H s       :     0.916255  s :     0.916255
      pz      :     0.013611  p :     0.028638
      px      :     0.006202
      py      :     0.008825
 18 H s       :     0.916252  s :     0.916252
      pz      :     0.011234  p :     0.028637
      px      :     0.007533
      py      :     0.009870
 19 O s       :     3.747001  s :     3.747001
      pz      :     1.399257  p :     4.468252
      px      :     1.647073
      py      :     1.421923
      dz2     :     0.002124  d :     0.017163
      dxz     :     0.001214
      dyz     :     0.004207
      dx2y2   :     0.004258
      dxy     :     0.005360


                     *******************************
                     * LOEWDIN POPULATION ANALYSIS *
                     *******************************

----------------------
LOEWDIN ATOMIC CHARGES
----------------------
   0 C :   -0.042401
   1 C :   -0.045352
   2 C :   -0.069531
   3 C :   -0.075184
   4 C :   -0.041069
   5 C :   -0.022789
   6 H :    0.021711
   7 H :    0.022788
   8 H :    0.028261
   9 H :    0.032328
  10 O :    0.088453
  11 H :    0.063460
  12 N :    0.140093
  13 C :   -0.167702
  14 H :    0.070537
  15 C :   -0.093127
  16 H :    0.052703
  17 H :    0.042982
  18 H :    0.042984
  19 O :   -0.049145

-------------------------------
LOEWDIN REDUCED ORBITAL CHARGES
-------------------------------
  0 C s       :     2.804845  s :     2.804845
      pz      :     0.996200  p :     2.955084
      px      :     0.976307
      py      :     0.982576
      dz2     :     0.022572  d :     0.282473
      dxz     :     0.037409
      dyz     :     0.047006
      dx2y2   :     0.075347
      dxy     :     0.100139
  1 C s       :     2.816247  s :     2.816247
      pz      :     0.988316  p :     3.033896
      px      :     1.028674
      py      :     1.016907
      dz2     :     0.016792  d :     0.195209
      dxz     :     0.035795
      dyz     :     0.013637
      dx2y2   :     0.073211
      dxy     :     0.055775
  2 C s       :     2.816946  s :     2.816946
      pz      :     1.009925  p :     3.060037
      px      :     1.014438
      py      :     1.035673
      dz2     :     0.013330  d :     0.192548
      dxz     :     0.014066
      dyz     :     0.034771
      dx2y2   :     0.072385
      dxy     :     0.057996
  3 C s       :     2.805030  s :     2.805030
      pz      :     0.954887  p :     2.901705
      px      :     0.968474
      py      :     0.978343
      dz2     :     0.029421  d :     0.368449
      dxz     :     0.051789
      dyz     :     0.059141
      dx2y2   :     0.107875
      dxy     :     0.120223
  4 C s       :     2.816105  s :     2.816105
      pz      :     0.987006  p :     3.034480
      px      :     1.026875
      py      :     1.020599
      dz2     :     0.015870  d :     0.190484
      dxz     :     0.032433
      dyz     :     0.013254
      dx2y2   :     0.074709
      dxy     :     0.054218
  5 C s       :     2.819519  s :     2.819519
      pz      :     0.955450  p :     3.013080
      px      :     1.035243
      py      :     1.022387
      dz2     :     0.012614  d :     0.190190
      dxz     :     0.013880
      dyz     :     0.035023
      dx2y2   :     0.067492
      dxy     :     0.061181
  6 H s       :     0.894339  s :     0.894339
      pz      :     0.020575  p :     0.083949
      px      :     0.018767
      py      :     0.044608
  7 H s       :     0.893121  s :     0.893121
      pz      :     0.023177  p :     0.084091
      px      :     0.042645
      py      :     0.018269
  8 H s       :     0.878406  s :     0.878406
      pz      :     0.022084  p :     0.093334
      px      :     0.051419
      py      :     0.019831
  9 H s       :     0.883772  s :     0.883772
      pz      :     0.020063  p :     0.083900
      px      :     0.017493
      py      :     0.046344
 10 O s       :     3.335280  s :     3.335280
      pz      :     1.699732  p :     4.549563
      px      :     1.255898
      py      :     1.593933
      dz2     :     0.003036  d :     0.026704
      dxz     :     0.003422
      dyz     :     0.002826
      dx2y2   :     0.008702
      dxy     :     0.008716
 11 H s       :     0.736460  s :     0.736460
      pz      :     0.059186  p :     0.200080
      px      :     0.093170
      py      :     0.047724
 12 N s       :     3.008308  s :     3.008308
      pz      :     1.476974  p :     3.765970
      px      :     1.168475
      py      :     1.120522
      dz2     :     0.007122  d :     0.085629
      dxz     :     0.013742
      dyz     :     0.006586
      dx2y2   :     0.030625
      dxy     :     0.027554
 13 C s       :     2.824644  s :     2.824644
      pz      :     0.861618  p :     2.838395
      px      :     0.948830
      py      :     1.027947
      dz2     :     0.040016  d :     0.504663
      dxz     :     0.075749
      dyz     :     0.066767
      dx2y2   :     0.179020
      dxy     :     0.143109
 14 H s       :     0.796017  s :     0.796017
      pz      :     0.041159  p :     0.133446
      px      :     0.027513
      py      :     0.064774
 15 C s       :     2.821947  s :     2.821947
      pz      :     1.050504  p :     3.141053
      px      :     1.051601
      py      :     1.038948
      dz2     :     0.021715  d :     0.130128
      dxz     :     0.014168
      dyz     :     0.035957
      dx2y2   :     0.027778
      dxy     :     0.030509
 16 H s       :     0.871696  s :     0.871696
      pz      :     0.017177  p :     0.075601
      px      :     0.042840
      py      :     0.015584
 17 H s       :     0.878572  s :     0.878572
      pz      :     0.037866  p :     0.078446
      px      :     0.016016
      py      :     0.024564
 18 H s       :     0.878570  s :     0.878570
      pz      :     0.030032  p :     0.078446
      px      :     0.020732
      py      :     0.027682
 19 O s       :     3.491381  s :     3.491381
      pz      :     1.384200  p :     4.526802
      px      :     1.634679
      py      :     1.507923
      dz2     :     0.004211  d :     0.030962
      dxz     :     0.001771
      dyz     :     0.005923
      dx2y2   :     0.008360
      dxy     :     0.010697


                      *****************************
                      * MAYER POPULATION ANALYSIS *
                      *****************************

  NA   - Mulliken gross atomic population
  ZA   - Total nuclear charge
  QA   - Mulliken gross atomic charge
  VA   - Mayer's total valence
  BVA  - Mayer's bonded valence
  FA   - Mayer's free valence

  ATOM       NA         ZA         QA         VA         BVA        FA
  0 C      5.9441     6.0000     0.0559     4.0323     4.0323     0.0000
  1 C      5.9899     6.0000     0.0101     3.9566     3.9566     0.0000
  2 C      5.9991     6.0000     0.0009     3.9575     3.9575     0.0000
  3 C      5.9513     6.0000     0.0487     4.1638     4.1638    -0.0000
  4 C      5.9748     6.0000     0.0252     3.9694     3.9694     0.0000
  5 C      5.9524     6.0000     0.0476     3.9993     3.9993     0.0000
  6 H      1.0326     1.0000    -0.0326     0.9754     0.9754    -0.0000
  7 H      1.0300     1.0000    -0.0300     0.9760     0.9760     0.0000
  8 H      1.0018     1.0000    -0.0018     1.0304     1.0304     0.0000
  9 H      1.0140     1.0000    -0.0140     0.9847     0.9847     0.0000
 10 O      8.1646     8.0000    -0.1646     2.3451     2.3451    -0.0000
 11 H      0.8510     1.0000     0.1490     1.0391     1.0391    -0.0000
 12 N      7.1183     7.0000    -0.1183     3.3527     3.3527     0.0000
 13 C      5.9566     6.0000     0.0434     4.4451     4.4451    -0.0000
 14 H      0.9142     1.0000     0.0858     1.0206     1.0206    -0.0000
 15 C      6.0501     6.0000    -0.0501     3.9167     3.9167    -0.0000
 16 H      0.9331     1.0000     0.0669     1.0062     1.0062    -0.0000
 17 H      0.9449     1.0000     0.0551     0.9809     0.9809     0.0000
 18 H      0.9449     1.0000     0.0551     0.9809     0.9809     0.0000
 19 O      8.2324     8.0000    -0.2324     2.3576     2.3576    -0.0000

  Mayer bond orders larger than 0.100000
B(  0-C ,  1-C ) :   1.3743 B(  0-C ,  5-C ) :   1.3763 B(  0-C , 12-N ) :   1.0651 
B(  1-C ,  2-C ) :   1.4900 B(  1-C ,  6-H ) :   0.9175 B(  2-C ,  3-C ) :   1.3522 
B(  2-C ,  7-H ) :   0.9157 B(  3-C ,  4-C ) :   1.3693 B(  3-C , 10-O ) :   1.2283 
B(  4-C ,  5-C ) :   1.4971 B(  4-C ,  9-H ) :   0.9180 B(  5-C ,  8-H ) :   0.9145 
B( 10-O , 11-H ) :   0.9765 B( 12-N , 13-C ) :   1.2092 B( 12-N , 14-H ) :   0.9296 
B( 13-C , 15-C ) :   1.0544 B( 13-C , 19-O ) :   2.0601 B( 15-C , 16-H ) :   0.9541 
B( 15-C , 17-H ) :   0.9459 B( 15-C , 18-H ) :   0.9459 

-------
TIMINGS
-------

Total SCF time: 0 days 0 hours 1 min 17 sec 

Total time                  ....      77.612 sec
Sum of individual times     ....      76.661 sec  ( 98.8%)

Fock matrix formation       ....      69.738 sec  ( 89.9%)
  Split-RI-J                ....      21.612 sec  ( 31.0% of F)
  XC integration            ....      48.045 sec  ( 68.9% of F)
    Basis function eval.    ....      20.188 sec  ( 42.0% of XC)
    Density eval.           ....      13.258 sec  ( 27.6% of XC)
    XC-Functional eval.     ....       2.906 sec  (  6.0% of XC)
    XC-Potential eval.      ....       9.820 sec  ( 20.4% of XC)
Diagonalization             ....       0.086 sec  (  0.1%)
Density matrix formation    ....       0.027 sec  (  0.0%)
Population analysis         ....       0.087 sec  (  0.1%)
Initial guess               ....       2.329 sec  (  3.0%)
Orbital Transformation      ....       0.000 sec  (  0.0%)
Orbital Orthonormalization  ....       0.000 sec  (  0.0%)
DIIS solution               ....       0.080 sec  (  0.1%)
SOSCF solution              ....       0.117 sec  (  0.2%)
Grid generation             ....       4.197 sec  (  5.4%)

Maximum memory used throughout the entire SCF-calculation: 62.6 MB


-------------------------------------------------------------------------------
                          DFT DISPERSION CORRECTION                            
                                                                               
                                 DFTD4 V2.5                                    
-------------------------------------------------------------------------------
The BP86 functional is recognized
Active option DFTDOPT                   ...         5   

Starting D4
-------------------------   ----------------
Dispersion correction           -0.027149486
-------------------------   ----------------


-------------------------   --------------------
FINAL SINGLE POINT ENERGY      -515.545411738749
-------------------------   --------------------

------------------------------------------------------------------------------
                         ORCA SCF GRADIENT CALCULATION
------------------------------------------------------------------------------

Gradient of the Kohn-Sham DFT energy:
Kohn-Sham wavefunction type      ... RKS
Hartree-Fock exchange scaling    ...    0.000
Number of operators              ...    1
Number of atoms                  ...   20
Basis set dimensions             ...  199
Integral neglect threshold       ... 2.5e-11
Integral primitive cutoff        ... 2.5e-12
SHARK Integral package           ... ON

Nuc. rep. gradient       (SHARK) ... done (  0.0 sec)
HCore & Overlap gradient (SHARK) ... done (  0.8 sec)
RI-J gradient            (SHARK) ... done (  3.8 sec)
Exchange-correlation gradient    ... done
Dispersion correction            ... Starting D4


------------------- 
Dispersion Gradient 
------------------- 
   1  :   -0.000064546    0.000059088    0.000021752
   2  :   -0.000322516    0.000275630    0.000107428
   3  :   -0.000405229    0.000008811    0.000114052
   4  :   -0.000246509   -0.000239484    0.000054208
   5  :   -0.000079686   -0.000465304   -0.000006504
   6  :    0.000113244   -0.000273557   -0.000048659
   7  :   -0.000102564    0.000137726    0.000037264
   8  :   -0.000138663    0.000036492    0.000041100
   9  :    0.000121061   -0.000102432   -0.000040256
  10  :    0.000023271   -0.000157196   -0.000016258
  11  :   -0.000342196   -0.000349050    0.000074218
  12  :   -0.000083640   -0.000057090    0.000019889
  13  :    0.000188275    0.000286698   -0.000034964
  14  :    0.000428567    0.000254690   -0.000104276
  15  :   -0.000000062    0.000165085    0.000010258
  16  :    0.000307275    0.000321948   -0.000066120
  17  :    0.000059866    0.000036521   -0.000014508
  18  :    0.000076234    0.000074239    0.000001693
  19  :    0.000066684    0.000076353   -0.000032393
  20  :    0.000401132   -0.000089167   -0.000117925

  |G| =    0.001285625

done

------------------
CARTESIAN GRADIENT
------------------

   1   C   :   -0.009054678   -0.006287880    0.002148793
   2   C   :   -0.003580588    0.006802495    0.001417246
   3   C   :   -0.012273082   -0.006336986    0.003032433
   4   C   :    0.018112173   -0.014474969   -0.005970876
   5   C   :   -0.000442173   -0.007678833   -0.000337413
   6   C   :    0.009592883   -0.001457845   -0.002768647
   7   H   :    0.002096903   -0.012744868   -0.001384530
   8   H   :    0.011391682   -0.002878968   -0.003363997
   9   H   :   -0.015718571   -0.003955466    0.004166759
  10   H   :   -0.001560564    0.010524657    0.001090800
  11   O   :   -0.006264024    0.043987458    0.004473410
  12   H   :   -0.000942739   -0.020276047   -0.000986863
  13   N   :    0.020473122   -0.008763925   -0.006292472
  14   C   :   -0.010363706    0.006824502    0.003318166
  15   H   :    0.000985434    0.008992689    0.000278130
  16   C   :    0.003278471   -0.017803920   -0.002001625
  17   H   :    0.006844147    0.003198249   -0.001718733
  18   H   :   -0.000401745   -0.004419980    0.001371717
  19   H   :   -0.001159917   -0.004220277   -0.001488440
  20   O   :   -0.011013028    0.030969915    0.005016144

Difference to translation invariance:
           :   -0.0000000000    0.0000000000    0.0000000000

Difference to rotation invariance:
           :   -0.0002098822   -0.0001432573   -0.0002249543

Norm of the cartesian gradient     ...    0.0810186149
RMS gradient                       ...    0.0104594582
MAX gradient                       ...    0.0439874583

-------
TIMINGS
-------

Total SCF gradient time            ...       19.244 sec

One electron gradient       ....       0.849 sec  (  4.4%)
RI-J Coulomb gradient       ....       3.769 sec  ( 19.6%)
XC gradient                 ....      14.218 sec  ( 73.9%)

Maximum memory used throughout the entire SCFGRAD-calculation: 59.4 MB
------------------------------------------------------------------------------
                         ORCA GEOMETRY RELAXATION STEP
------------------------------------------------------------------------------

Reading the OPT-File                    .... done
Getting information on internals        .... done
Copying old internal coords+grads       .... done
Making the new internal coordinates     .... (new redundants).... done
Validating the new internal coordinates .... (new redundants).... done
Calculating the B-matrix                .... done
Calculating the G,G- and P matrices     .... done
Transforming gradient to internals      .... done
Projecting the internal gradient        .... done
Number of atoms                         ....  20
Number of internal coordinates          ....  91
Current Energy                          ....  -515.545411739 Eh
Current gradient norm                   ....     0.081018615 Eh/bohr
Maximum allowed component of the step   ....  0.300
Current trust radius                    ....  0.300
Evaluating the initial hessian          ....  (Almloef) done
Projecting the Hessian                  .... done
Forming the augmented Hessian           .... done
Diagonalizing the augmented Hessian     .... done
Last element of RFO vector              ....  0.985783458
Lowest eigenvalues of augmented Hessian:
 -0.012579490  0.012779091  0.017253527  0.019977586  0.021057823
Length of the computed step             ....  0.170443878
The final length of the internal step   ....  0.170443878
Converting the step to cartesian space:
 Initial RMS(Int)=    0.0178673732
Transforming coordinates:
 Iter   0:  RMS(Cart)=    0.0407282597 RMS(Int)=    1.9759919708
 Iter   1:  RMS(Cart)=    0.0014278893 RMS(Int)=    0.0007122801
 Iter   2:  RMS(Cart)=    0.0000643962 RMS(Int)=    0.0000313005
 Iter   3:  RMS(Cart)=    0.0000050686 RMS(Int)=    0.0000036233
 Iter   4:  RMS(Cart)=    0.0000003419 RMS(Int)=    0.0000001936
 Iter   5:  RMS(Cart)=    0.0000000282 RMS(Int)=    0.0000000208
done
Storing new coordinates                 .... done

                                .--------------------.
          ----------------------|Geometry convergence|-------------------------
          Item                value                   Tolerance       Converged
          ---------------------------------------------------------------------
          RMS gradient        0.0080851329            0.0005000000      NO
          MAX gradient        0.0365738760            0.0020000000      NO
          RMS step            0.0178673732            0.0070000000      NO
          MAX step            0.0952300628            0.0100000000      NO
          ........................................................
          Max(Bonds)      0.0189      Max(Angles)    5.46
          Max(Dihed)        0.11      Max(Improp)    0.00
          ---------------------------------------------------------------------

The optimization has not yet converged - more geometry cycles are needed


    ---------------------------------------------------------------------------
                         Redundant Internal Coordinates
                            (Angstroem and degrees)

        Definition                    Value    dE/dq     Step     New-Value
    ----------------------------------------------------------------------------
     1. B(C   1,C   0)                1.4091 -0.001153  0.0008    1.4099   
     2. B(C   2,C   1)                1.3969 -0.003418  0.0030    1.3999   
     3. B(C   3,C   2)                1.3986 -0.011095  0.0098    1.4084   
     4. B(C   4,C   3)                1.3957 -0.008994  0.0079    1.4036   
     5. B(C   5,C   0)                1.4166  0.005370 -0.0052    1.4114   
     6. B(C   5,C   4)                1.3992 -0.004486  0.0038    1.4030   
     7. B(H   6,C   1)                1.0830 -0.012923  0.0179    1.1009   
     8. B(H   7,C   2)                1.0828 -0.012217  0.0169    1.0997   
     9. B(H   8,C   5)                1.0744 -0.014039  0.0189    1.0933   
    10. B(H   9,C   4)                1.0831 -0.010645  0.0148    1.0979   
    11. B(O  10,C   3)                1.3484 -0.011512  0.0092    1.3575   
[...]
     34      -0.346090   0.168717  -0.017309  -0.000067  -0.000000  -0.002641
     35       0.027734  -0.016311   0.000416  -0.000020   0.000012   0.002051
     36       0.075381  -0.041521  -0.017513  -0.000014  -0.000070   0.000084
     37      -0.018412  -0.021789   0.073516  -0.000127   0.000022   0.000165
     38      -0.022263   0.010273   0.009465  -0.000005  -0.000240  -0.000014
     39      -0.036953   0.003359   0.316288  -0.002038   0.000206  -0.000329
     40      -0.000097  -0.008033  -0.604110  -0.001042  -0.000054  -0.000123
     41       0.010345  -0.001450  -0.126219   0.000503   0.000718   0.000085
     42      -0.397935   0.107469  -0.399405   0.001776   0.000786  -0.003951
     43      -0.210560   0.042380  -0.097851   0.001711  -0.000261  -0.004980
     44       0.098423  -0.027454   0.105896  -0.000394   0.002697   0.000796
     45       0.003220   0.003904  -0.013922   0.004746   0.024809   0.000495
     46       0.002040   0.002541   0.052540   0.052493  -0.005529  -0.000119
     47      -0.000784  -0.000939   0.007185   0.001957   0.088312  -0.000146
     48       0.009874   0.001960  -0.043747  -0.349240   0.004689  -0.005556
     49       0.038404  -0.005632  -0.262641   0.066851  -0.001108   0.000841
     50      -0.000368  -0.000892  -0.004196   0.101779   0.020882   0.001605
     51       0.016144  -0.007990  -0.007681   0.007974   0.017771  -0.000008
     52      -0.015156  -0.002979   0.156810  -0.305489  -0.347071   0.000342
     53       0.007758   0.003537  -0.061933  -0.580614  -0.611538   0.000703
     54       0.009303  -0.008789   0.030548   0.296953  -0.320637  -0.000350
     55      -0.013636  -0.002827   0.148151  -0.369200   0.414699   0.000411
     56      -0.016661   0.000776   0.074456   0.453228  -0.470693  -0.000544
     57       0.005457  -0.000371  -0.186926   0.000478   0.000026   0.000114
     58      -0.002234   0.004933   0.360364  -0.000342  -0.000004  -0.000089
     59      -0.001664   0.000413   0.074812  -0.000155   0.000098  -0.000038
                 54         55         56         57         58         59    
      0      -0.003695   0.000342   0.000028  -0.000608  -0.001140  -0.000026
      1      -0.000268   0.000171  -0.000444   0.003520   0.000179  -0.000059
      2       0.001019  -0.000085  -0.000036   0.000388   0.000331   0.000003
      3       0.012900  -0.000433   0.000524  -0.000304  -0.000046  -0.000147
      4      -0.060857   0.001704  -0.002586  -0.000596  -0.000707  -0.000019
      5      -0.007376   0.000227  -0.000307   0.000047  -0.000031   0.000040
      6       0.058468  -0.001004   0.000735  -0.000635   0.000120   0.001675
      7      -0.016182   0.000259  -0.000811   0.000289   0.000046   0.000034
      8      -0.017370   0.000297  -0.000255   0.000196  -0.000031  -0.000466
      9       0.000423   0.000002   0.004056  -0.001142   0.000006  -0.001964
     10       0.004167  -0.000058   0.000437  -0.000032  -0.000045   0.002261
     11       0.000140  -0.000004  -0.001111   0.000317  -0.000004   0.000689
     12      -0.000049   0.000037  -0.019275  -0.000743  -0.000071   0.000765
     13      -0.002612  -0.000006   0.083142  -0.011937   0.000148  -0.000371
     14      -0.000147  -0.000011   0.010539  -0.000530   0.000030  -0.000237
     15       0.000019  -0.000198   0.006774   0.080037   0.000172  -0.000168
     16       0.000742   0.000007  -0.004942  -0.023902  -0.000947   0.000127
     17       0.000040   0.000056  -0.002202  -0.023908  -0.000107   0.000055
     18      -0.162892   0.004779  -0.006726  -0.001412   0.001571   0.000212
     19       0.676949  -0.019478   0.027756   0.007528   0.004609   0.000871
     20       0.087488  -0.002543   0.003601   0.000860  -0.000161  -0.000005
     21      -0.648783   0.010924  -0.010617   0.006012   0.000005  -0.008532
     22       0.199065  -0.003359   0.003808  -0.001971   0.000122  -0.000498
     23       0.193922  -0.003266   0.003208  -0.001803   0.000006   0.002354
     24       0.003309   0.001585  -0.108240  -0.911492  -0.002401   0.000606
     25      -0.002883  -0.000802   0.034008   0.272056   0.001106  -0.000581
     26      -0.001107  -0.000495   0.032439   0.272280   0.000741  -0.000205
     27      -0.005120  -0.000060   0.216267  -0.023007   0.000396   0.000550
     28       0.027818  -0.000084  -0.957336   0.111795  -0.000124   0.000381
     29       0.003152   0.000011  -0.119759   0.013367  -0.000118  -0.000132
     30       0.000110  -0.000008  -0.000487   0.000048   0.000025  -0.054526
     31      -0.000724  -0.000003   0.000016   0.000059  -0.000061   0.024166
     32      -0.000075   0.000002   0.000137  -0.000010  -0.000011   0.016782
     33      -0.008191   0.000093  -0.000558   0.000979  -0.000994   0.870029
     34      -0.000748   0.000071  -0.002211  -0.000075   0.000428  -0.408242
     35       0.002251  -0.000022   0.000024  -0.000280   0.000305  -0.269174
     36       0.000426   0.000280   0.000159   0.000752  -0.025593   0.000134
     37      -0.000211  -0.000223   0.000031  -0.000571   0.067059   0.000141
     38      -0.000132  -0.000093  -0.000043  -0.000245   0.011331  -0.000029
     39      -0.000074  -0.001540  -0.000233  -0.001077   0.001267  -0.000187
     40       0.000337   0.001954   0.000037   0.000498   0.001434   0.000086
     41       0.000042   0.000556   0.000067   0.000332  -0.000268   0.000058
     42       0.003171   0.002272   0.000076  -0.001652   0.346057   0.000396
     43       0.004711   0.001976   0.000976   0.001807  -0.922576  -0.001004
     44      -0.000595  -0.000511   0.000039   0.000574  -0.154186  -0.000173
     45      -0.001831  -0.081917  -0.000054  -0.000056  -0.000160  -0.000000
     46       0.000645   0.032371   0.000028   0.000035   0.000056   0.000009
     47       0.000555   0.025028   0.000017   0.000019   0.000039   0.000000
     48       0.020607   0.883060   0.000908   0.001670   0.000732   0.000093
     49      -0.003132  -0.143702  -0.000095  -0.000033   0.000020   0.000025
     50      -0.005954  -0.255721  -0.000260  -0.000468  -0.000195  -0.000024
     51      -0.000121  -0.008752   0.000008  -0.000036   0.000518   0.000044
     52      -0.002113  -0.116524  -0.000000  -0.000649  -0.000753   0.000050
     53      -0.004156  -0.222303  -0.000029  -0.000486  -0.000645   0.000024
     54       0.001955   0.102766   0.000020   0.000194   0.000799   0.000027
     55      -0.002549  -0.140280  -0.000000  -0.000693  -0.000889   0.000054
     56       0.003316   0.178578   0.000017   0.000347   0.000285  -0.000038
     57       0.000004   0.000563   0.000195   0.001149   0.000427   0.000050
     58      -0.000039  -0.000532   0.000025   0.000000  -0.000931  -0.000078
     59      -0.000004  -0.000190  -0.000053  -0.000322  -0.000177  -0.000019


-----------
IR SPECTRUM
-----------

 Mode   freq       eps      Int      T**2         TX        TY        TZ
       cm**-1   L/(mol*cm) km/mol    a.u.
----------------------------------------------------------------------------
  7:     55.39   0.000053    0.27  0.000296  ( 0.004691 -0.001072  0.016522)
  8:     73.50   0.000747    3.78  0.003173  (-0.015199  0.003346 -0.054141)
  9:    150.81   0.000722    3.65  0.001494  ( 0.035167  0.013245 -0.009030)
 10:    170.47   0.000024    0.12  0.000043  ( 0.001954 -0.000286  0.006256)
 11:    305.30   0.001118    5.65  0.001142  (-0.025064 -0.021979  0.005581)
 12:    307.78   0.000048    0.24  0.000049  ( 0.002063 -0.006527 -0.001382)
 13:    356.59   0.017876   90.34  0.015644  ( 0.033633 -0.007493  0.120234)
 14:    366.59   0.001164    5.88  0.000991  (-0.008394  0.001949 -0.030280)
 15:    407.47   0.000161    0.81  0.000123  ( 0.002700 -0.000943  0.010716)
 16:    408.56   0.001899    9.60  0.001450  ( 0.027367  0.025808 -0.005932)
 17:    487.73   0.004155   21.00  0.002658  ( 0.039273  0.032148 -0.009087)
 18:    503.79   0.008337   42.13  0.005164  (-0.019449  0.004223 -0.069050)
 19:    508.66   0.002582   13.05  0.001584  ( 0.010793 -0.002357  0.038239)
 20:    590.27   0.002430   12.28  0.001285  (-0.009641  0.002171 -0.034451)
 21:    613.57   0.000251    1.27  0.000128  ( 0.000213 -0.011259 -0.000830)
 22:    637.93   0.000394    1.99  0.000193  ( 0.012254  0.005726 -0.003131)
 23:    698.30   0.000060    0.31  0.000027  ( 0.001371 -0.000323  0.005005)
 24:    764.26   0.003768   19.04  0.001539  ( 0.010601 -0.002282  0.037698)
 25:    775.45   0.002564   12.96  0.001032  ( 0.021670  0.023257 -0.004643)
 26:    824.92   0.005293   26.75  0.002002  ( 0.012051 -0.002695  0.043009)
 27:    842.14   0.001767    8.93  0.000655  ( 0.020735  0.014176 -0.004883)
 28:    870.74   0.000040    0.20  0.000014  (-0.001055  0.000188 -0.003640)
 29:    938.09   0.003084   15.59  0.001026  ( 0.026298  0.017171 -0.006297)
 30:    949.28   0.000109    0.55  0.000036  (-0.001648  0.000373 -0.005757)
 31:    958.16   0.005099   25.77  0.001661  ( 0.035050  0.018894 -0.008671)
 32:    988.61   0.000543    2.74  0.000171  ( 0.003518 -0.000770  0.012587)
 33:    989.14   0.000174    0.88  0.000055  (-0.005978 -0.004092  0.001523)
 34:   1083.21   0.003162   15.98  0.000911  ( 0.022499 -0.018690 -0.007451)
 35:   1141.30   0.000858    4.33  0.000235  ( 0.013246  0.006950 -0.003283)
 36:   1163.48   0.034901  176.38  0.009361  (-0.066122 -0.069182  0.014242)
 37:   1203.39   0.012096   61.13  0.003137  (-0.045787 -0.030350  0.010919)
 38:   1228.93   0.012474   63.04  0.003167  (-0.040806 -0.037674  0.009111)
 39:   1269.15   0.006145   31.05  0.001511  (-0.037290 -0.004056  0.010193)
 40:   1283.94   0.005803   29.33  0.001411  ( 0.017768  0.032956 -0.002955)
 41:   1312.30   0.002529   12.78  0.000601  (-0.010530 -0.022087  0.001612)
 42:   1377.82   0.029924  151.22  0.006777  ( 0.074356  0.029799 -0.018990)
 43:   1393.17   0.004668   23.59  0.001046  (-0.030726  0.004768  0.008882)
 44:   1408.61   0.001653    8.36  0.000366  (-0.005159  0.001193 -0.018391)
 45:   1420.63   0.020186  102.01  0.004434  (-0.054925 -0.035269  0.013174)
 46:   1490.08   0.004873   24.62  0.001020  (-0.012954 -0.029143  0.001840)
 47:   1513.97   0.084764  428.36  0.017472  ( 0.109397  0.069352 -0.026351)
 48:   1598.44   0.006493   32.81  0.001268  (-0.028226 -0.020663  0.006631)
 49:   1630.27   0.000768    3.88  0.000147  (-0.007553 -0.009361  0.001551)
 50:   1719.01   0.041249  208.46  0.007488  ( 0.071526 -0.043066 -0.022749)
 51:   2963.97   0.001771    8.95  0.000186  ( 0.002178  0.013477  0.000304)
 52:   3037.64   0.001951    9.86  0.000200  ( 0.003783 -0.000866  0.013615)
 53:   3079.24   0.004530   22.89  0.000459  ( 0.014802  0.015157 -0.003205)
 54:   3097.09   0.003085   15.59  0.000311  ( 0.013103 -0.010977 -0.004319)
 55:   3099.66   0.000743    3.75  0.000075  (-0.007994  0.002314  0.002345)
 56:   3126.43   0.001124    5.68  0.000112  ( 0.000945  0.010543  0.000360)
 57:   3174.21   0.001559    7.88  0.000153  (-0.011354 -0.003957  0.002955)
 58:   3494.86   0.002155   10.89  0.000192  ( 0.007455 -0.011355 -0.002814)
 59:   3649.44   0.010198   51.53  0.000872  ( 0.028325  0.003104 -0.007748)

* The epsilon (eps) is given for a Dirac delta lineshape.
** The dipole moment derivative (T) already includes vibrational overlap.

The first frequency considered to be a vibration is 7
The total number of vibrations considered is 53


--------------------------
THERMOCHEMISTRY AT 298.15K
--------------------------

Temperature         ... 298.15 K
Pressure            ... 1.00 atm
Total Mass          ... 151.16 AMU

Throughout the following assumptions are being made:
  (1) The electronic state is orbitally nondegenerate
  (2) There are no thermally accessible electronically excited states
  (3) Hindered rotations indicated by low frequency modes are not
      treated as such but are treated as vibrations and this may
      cause some error
  (4) All equations used are the standard statistical mechanics
      equations for an ideal gas
  (5) All vibrations are strictly harmonic

freq.      55.39  E(vib)   ...       0.52 
freq.      73.50  E(vib)   ...       0.49 
freq.     150.81  E(vib)   ...       0.40 
freq.     170.47  E(vib)   ...       0.38 
freq.     305.30  E(vib)   ...       0.26 
freq.     307.78  E(vib)   ...       0.26 
freq.     356.59  E(vib)   ...       0.22 
freq.     366.59  E(vib)   ...       0.22 
freq.     407.47  E(vib)   ...       0.19 
freq.     408.56  E(vib)   ...       0.19 
freq.     487.73  E(vib)   ...       0.15 
freq.     503.79  E(vib)   ...       0.14 
freq.     508.66  E(vib)   ...       0.14 
freq.     590.27  E(vib)   ...       0.10 
freq.     613.57  E(vib)   ...       0.10 
freq.     637.93  E(vib)   ...       0.09 
freq.     698.30  E(vib)   ...       0.07 
freq.     764.26  E(vib)   ...       0.06 
freq.     775.45  E(vib)   ...       0.05 
freq.     824.92  E(vib)   ...       0.04 
freq.     842.14  E(vib)   ...       0.04 
freq.     870.74  E(vib)   ...       0.04 
freq.     938.09  E(vib)   ...       0.03 
freq.     949.28  E(vib)   ...       0.03 
freq.     958.16  E(vib)   ...       0.03 
freq.     988.61  E(vib)   ...       0.02 
freq.     989.14  E(vib)   ...       0.02 
freq.    1083.21  E(vib)   ...       0.02 
freq.    1141.30  E(vib)   ...       0.01 
freq.    1163.48  E(vib)   ...       0.01 
freq.    1203.39  E(vib)   ...       0.01 
freq.    1228.93  E(vib)   ...       0.01 
freq.    1269.15  E(vib)   ...       0.01 
freq.    1283.94  E(vib)   ...       0.01 
freq.    1312.30  E(vib)   ...       0.01 
freq.    1377.82  E(vib)   ...       0.01 
freq.    1393.17  E(vib)   ...       0.00 
freq.    1408.61  E(vib)   ...       0.00 
freq.    1420.63  E(vib)   ...       0.00 
freq.    1490.08  E(vib)   ...       0.00 
freq.    1513.97  E(vib)   ...       0.00 
freq.    1598.44  E(vib)   ...       0.00 
freq.    1630.27  E(vib)   ...       0.00 
freq.    1719.01  E(vib)   ...       0.00 
freq.    2963.97  E(vib)   ...       0.00 
freq.    3037.64  E(vib)   ...       0.00 
freq.    3079.24  E(vib)   ...       0.00 
freq.    3097.09  E(vib)   ...       0.00 
freq.    3099.66  E(vib)   ...       0.00 
freq.    3126.43  E(vib)   ...       0.00 
freq.    3174.21  E(vib)   ...       0.00 
freq.    3494.86  E(vib)   ...       0.00 
freq.    3649.44  E(vib)   ...       0.00 

------------
INNER ENERGY
------------

The inner energy is: U= E(el) + E(ZPE) + E(vib) + E(rot) + E(trans)
    E(el)   - is the total energy from the electronic structure calculation
              = E(kin-el) + E(nuc-el) + E(el-el) + E(nuc-nuc)
    E(ZPE)  - the the zero temperature vibrational energy from the frequency calculation
    E(vib)  - the the finite temperature correction to E(ZPE) due to population
              of excited vibrational states
    E(rot)  - is the rotational thermal energy
    E(trans)- is the translational thermal energy

Summary of contributions to the inner energy U:
Electronic energy                ...   -515.55723847 Eh
Zero point energy                ...      0.15378475 Eh      96.50 kcal/mol
Thermal vibrational correction   ...      0.00699714 Eh       4.39 kcal/mol
Thermal rotational correction    ...      0.00141627 Eh       0.89 kcal/mol
Thermal translational correction ...      0.00141627 Eh       0.89 kcal/mol
-----------------------------------------------------------------------
Total thermal energy                   -515.39362404 Eh


Summary of corrections to the electronic energy:
(perhaps to be used in another calculation)
Total thermal correction                  0.00982968 Eh       6.17 kcal/mol
Non-thermal (ZPE) correction              0.15378475 Eh      96.50 kcal/mol
-----------------------------------------------------------------------
Total correction                          0.16361443 Eh     102.67 kcal/mol


--------
ENTHALPY
--------

The enthalpy is H = U + kB*T
                kB is Boltzmann's constant
Total free energy                 ...   -515.39362404 Eh 
Thermal Enthalpy correction       ...      0.00094421 Eh       0.59 kcal/mol
-----------------------------------------------------------------------
Total Enthalpy                    ...   -515.39267983 Eh


Note: Only C1 symmetry has been detected, increase convergence thresholds 
      if your molecule has a higher symmetry. Symmetry factor of 1.0 is   
      used for the rotational entropy correction. 
 

Note: Rotational entropy computed according to Herzberg 
Infrared and Raman Spectra, Chapter V,1, Van Nostrand Reinhold, 1945 
Point Group:  C1, Symmetry Number:   1  
Rotational constants in cm-1:     0.117796     0.018012     0.015671 

Vibrational entropy computed according to the QRRHO of S. Grimme
Chem.Eur.J. 2012 18 9955


-------
ENTROPY
-------

The entropy contributions are T*S = T*(S(el)+S(vib)+S(rot)+S(trans))
     S(el)   - electronic entropy
     S(vib)  - vibrational entropy
     S(rot)  - rotational entropy
     S(trans)- translational entropy
The entropies will be listed as multiplied by the temperature to get
units of energy

Electronic entropy                ...      0.00000000 Eh      0.00 kcal/mol
Vibrational entropy               ...      0.01158188 Eh      7.27 kcal/mol
Rotational entropy                ...      0.01437875 Eh      9.02 kcal/mol
Translational entropy             ...      0.01945645 Eh     12.21 kcal/mol
-----------------------------------------------------------------------
Final entropy term                ...      0.04541708 Eh     28.50 kcal/mol

In case the symmetry of your molecule has not been determined correctly
or in case you have a reason to use a different symmetry number we print 
out the resulting rotational entropy values for sn=1,12 :
 --------------------------------------------------------
|  sn= 1 | S(rot)=       0.01437875 Eh      9.02 kcal/mol|
|  sn= 2 | S(rot)=       0.01372430 Eh      8.61 kcal/mol|
|  sn= 3 | S(rot)=       0.01334146 Eh      8.37 kcal/mol|
|  sn= 4 | S(rot)=       0.01306984 Eh      8.20 kcal/mol|
|  sn= 5 | S(rot)=       0.01285915 Eh      8.07 kcal/mol|
|  sn= 6 | S(rot)=       0.01268701 Eh      7.96 kcal/mol|
|  sn= 7 | S(rot)=       0.01254146 Eh      7.87 kcal/mol|
|  sn= 8 | S(rot)=       0.01241538 Eh      7.79 kcal/mol|
|  sn= 9 | S(rot)=       0.01230418 Eh      7.72 kcal/mol|
|  sn=10 | S(rot)=       0.01220470 Eh      7.66 kcal/mol|
|  sn=11 | S(rot)=       0.01211471 Eh      7.60 kcal/mol|
|  sn=12 | S(rot)=       0.01203255 Eh      7.55 kcal/mol|
 --------------------------------------------------------


-------------------
GIBBS FREE ENERGY
-------------------

The Gibbs free energy is G = H - T*S

Total enthalpy                    ...   -515.39267983 Eh 
Total entropy correction          ...     -0.04541708 Eh    -28.50 kcal/mol
-----------------------------------------------------------------------
Final Gibbs free energy         ...   -515.43809691 Eh

For completeness - the Gibbs free energy minus the electronic energy
G-E(el)                           ...      0.11914156 Eh     74.76 kcal/mol


Timings for individual modules:

Sum of individual times         ...     1226.049 sec (=  20.434 min)
GTO integral calculation        ...        8.147 sec (=   0.136 min)   0.7 %
SCF iterations                  ...      344.687 sec (=   5.745 min)  28.1 %
SCF Gradient evaluation         ...      100.013 sec (=   1.667 min)   8.2 %
Geometry relaxation             ...        0.887 sec (=   0.015 min)   0.1 %
Analytical frequency calculation...      772.315 sec (=  12.872 min)  63.0 %
                             ****ORCA TERMINATED NORMALLY****
TOTAL RUN TIME: 0 days 0 hours 20 minutes 30 seconds 731 msec
