
                                 *****************
                                 * O   R   C   A *
                                 *****************

                                            #,                                       
                                            ###                                      
                                            ####                                     
                                            #####                                    
                                            ######                                   
                                           ########,                                 
                                     ,,################,,,,,                         
                               ,,#################################,,                 
                          ,,##########################################,,             
                       ,#########################################, ''#####,          
                    ,#############################################,,   '####,        
                  ,##################################################,,,,####,       
                ,###########''''           ''''###############################       
              ,#####''   ,,,,##########,,,,          '''####'''          '####       
            ,##' ,,,,###########################,,,                        '##       
           ' ,,###''''                  '''############,,,                           
         ,,##''                                '''############,,,,        ,,,,,,###''
      ,#''                                            '''#######################'''  
     '                                                          ''''####''''         
             ,#######,   #######,   ,#######,      ##                                
            ,#'     '#,  ##    ##  ,#'     '#,    #''#        ######   ,####,        
            ##       ##  ##   ,#'  ##            #'  '#       #        #'  '#        
            ##       ##  #######   ##           ,######,      #####,   #    #        
            '#,     ,#'  ##    ##  '#,     ,#' ,#      #,         ##   #,  ,#        
             '#######'   ##     ##  '#######'  #'      '#     #####' # '####'        



                  #######################################################
                  #                        -***-                        #
                  #          Department of theory and spectroscopy      #
                  #    Directorship and core code : Frank Neese         #
                  #        Max Planck Institute fuer Kohlenforschung    #
                  #                Kaiser Wilhelm Platz 1               #
                  #                 D-45470 Muelheim/Ruhr               #
                  #                      Germany                        #
                  #                                                     #
                  #                  All rights reserved                #
                  #                        -***-                        #
                  #######################################################



                         Program Version 5.0.4 -  RELEASE  -

 With contributions from (in alphabetic order):
   Daniel Aravena         : Magnetic Suceptibility
   Michael Atanasov       : Ab Initio Ligand Field Theory (pilot matlab implementation)
   Alexander A. Auer      : GIAO ZORA, VPT2 properties, NMR spectrum
   Ute Becker             : Parallelization
   Giovanni Bistoni       : ED, misc. LED, open-shell LED, HFLD
   Martin Brehm           : Molecular dynamics
   Dmytro Bykov           : SCF Hessian
   Vijay G. Chilkuri      : MRCI spin determinant printing, contributions to CSF-ICE
   Dipayan Datta          : RHF DLPNO-CCSD density
   Achintya Kumar Dutta   : EOM-CC, STEOM-CC
   Dmitry Ganyushin       : Spin-Orbit,Spin-Spin,Magnetic field MRCI
   Miquel Garcia          : C-PCM and meta-GGA Hessian, CC/C-PCM, Gaussian charge scheme
   Yang Guo               : DLPNO-NEVPT2, F12-NEVPT2, CIM, IAO-localization
   Andreas Hansen         : Spin unrestricted coupled pair/coupled cluster methods
   Benjamin Helmich-Paris : MC-RPA, TRAH-SCF, COSX integrals
   Lee Huntington         : MR-EOM, pCC
   Robert Izsak           : Overlap fitted RIJCOSX, COSX-SCS-MP3, EOM
   Marcus Kettner         : VPT2
   Christian Kollmar      : KDIIS, OOCD, Brueckner-CCSD(T), CCSD density, CASPT2, CASPT2-K
   Simone Kossmann        : Meta GGA functionals, TD-DFT gradient, OOMP2, MP2 Hessian
   Martin Krupicka        : Initial AUTO-CI
   Lucas Lang             : DCDCAS
   Marvin Lechner         : AUTO-CI (C++ implementation), FIC-MRCC
   Dagmar Lenk            : GEPOL surface, SMD
   Dimitrios Liakos       : Extrapolation schemes; Compound Job, initial MDCI parallelization
   Dimitrios Manganas     : Further ROCIS development; embedding schemes
   Dimitrios Pantazis     : SARC Basis sets
   Anastasios Papadopoulos: AUTO-CI, single reference methods and gradients
   Taras Petrenko         : DFT Hessian,TD-DFT gradient, ASA, ECA, R-Raman, ABS, FL, XAS/XES, NRVS
   Peter Pinski           : DLPNO-MP2, DLPNO-MP2 Gradient
   Christoph Reimann      : Effective Core Potentials
   Marius Retegan         : Local ZFS, SOC
   Christoph Riplinger    : Optimizer, TS searches, QM/MM, DLPNO-CCSD(T), (RO)-DLPNO pert. Triples
   Tobias Risthaus        : Range-separated hybrids, TD-DFT gradient, RPA, STAB
   Michael Roemelt        : Original ROCIS implementation
   Masaaki Saitow         : Open-shell DLPNO-CCSD energy and density
   Barbara Sandhoefer     : DKH picture change effects
   Avijit Sen             : IP-ROCIS
   Kantharuban Sivalingam : CASSCF convergence, NEVPT2, FIC-MRCI
   Bernardo de Souza      : ESD, SOC TD-DFT
   Georgi Stoychev        : AutoAux, RI-MP2 NMR, DLPNO-MP2 response
   Willem Van den Heuvel  : Paramagnetic NMR
   Boris Wezisla          : Elementary symmetry handling
   Frank Wennmohs         : Technical directorship


 We gratefully acknowledge several colleagues who have allowed us to
 interface, adapt or use parts of their codes:
   Stefan Grimme, W. Hujo, H. Kruse, P. Pracht,  : VdW corrections, initial TS optimization,
                  C. Bannwarth, S. Ehlert          DFT functionals, gCP, sTDA/sTD-DF
   Ed Valeev, F. Pavosevic, A. Kumar             : LibInt (2-el integral package), F12 methods
   Garnet Chan, S. Sharma, J. Yang, R. Olivares  : DMRG
   Ulf Ekstrom                                   : XCFun DFT Library
   Mihaly Kallay                                 : mrcc  (arbitrary order and MRCC methods)
   Jiri Pittner, Ondrej Demel                    : Mk-CCSD
   Frank Weinhold                                : gennbo (NPA and NBO analysis)
   Christopher J. Cramer and Donald G. Truhlar   : smd solvation model
   Lars Goerigk                                  : TD-DFT with DH, B97 family of functionals
   V. Asgeirsson, H. Jonsson                     : NEB implementation
   FAccTs GmbH                                   : IRC, NEB, NEB-TS, DLPNO-Multilevel, CI-OPT
                                                   MM, QMMM, 2- and 3-layer-ONIOM, Crystal-QMMM,
                                                   LR-CPCM, SF, NACMEs, symmetry and pop. for TD-DFT,
                                                   nearIR, NL-DFT gradient (VV10), updates on ESD,
                                                   ML-optimized integration grids
   S Lehtola, MJT Oliveira, MAL Marques          : LibXC Library
   Liviu Ungur et al                             : ANISO software


 Your calculation uses the libint2 library for the computation of 2-el integrals
 For citations please refer to: http://libint.valeyev.net

 Your ORCA version has been built with support for libXC version: 5.1.0
 For citations please refer to: https://tddft.org/programs/libxc/

 This ORCA versions uses:
   CBLAS   interface :  Fast vector & matrix operations
   LAPACKE interface :  Fast linear algebra routines
   Shared memory     :  Shared parallel matrices


Your calculation utilizes the atom-pairwise dispersion correction
based on tight binding partial charges (D4)
Cite in your paper:
E.Caldeweyher, C.Bannwarth, S.Grimme, J.Chem.Phys., (2017), 147, 034112.
E.Caldeweyher, S.Ehlert, A.Hansen, H.Neugebauer, S.Grimme, J.Chem.Phys., (2018), in progress.
   

================================================================================

----- Orbital basis set information -----
Your calculation utilizes the basis: def2-TZVP
   F. Weigend and R. Ahlrichs, Phys. Chem. Chem. Phys. 7, 3297 (2005).

----- AuxJ basis set information -----
Your calculation utilizes the auxiliary basis: def2/J
   F. Weigend, Phys. Chem. Chem. Phys. 8, 1057 (2006).

================================================================================
                                        WARNINGS
                       Please study these warnings very carefully!
================================================================================


WARNING: Geometry Optimization
  ===> : Switching off AutoStart
         For restart on a previous wavefunction, please use MOREAD

INFO   : the flag for use of the SHARK integral package has been found!

================================================================================
                                       INPUT FILE
================================================================================
NAME = para_produtcts_optfreq_6.inp
|  1> !B3LYP/G DEF2-TZVP COPT FREQ D4 SOSCF
|  2> 
|  3> * xyz 1 1
|  4>   C   -5.63725555436335      0.98899874329515      0.21143731105954
|  5>   C   -6.61524513455999      1.64479024878323     -0.54151690386741
|  6>   C   -7.25970173966677      1.00967137309125     -1.58904618989250
|  7>   C   -6.92062604431759     -0.30362370539239     -1.88291326135627
|  8>   C   -5.95831324748989     -0.98694197191882     -1.15534464262827
|  9>   C   -5.32131205703316     -0.33154419579735     -0.11375427455918
| 10>   C   -4.95759796008800      1.68707067612682      1.35420600464028
| 11>   H   -4.01505294221542      1.20546634971565      1.61127557408429
| 12>   H   -5.59048773687366      1.67367642391712      2.24555037853371
| 13>   H   -4.75615851271304      2.73184328865900      1.11603493305350
| 14>   H   -6.87004918838875      2.67076103014061     -0.30634972814763
| 15>   H   -8.01147152638620      1.51131297415801     -2.17909918625573
| 16>   H   -5.71641472066939     -2.00625554484822     -1.41503486752261
| 17>   H   -4.56130033440061     -0.85285320518107      0.45466036609449
| 18>   N   -7.58940947091777     -0.98171342884454     -3.00078187901111
| 19>   O   -7.31396723977917     -2.15557775105460     -3.20456096513483
| 20>   O   -8.38382380037584     -0.33444134289835     -3.66701453995351
| 21>   H   -14.01431599520870    -10.62009079787079    -11.87983500894279
| 22> *
| 23> 
| 24>                          ****END OF INPUT****
================================================================================

                       *****************************
                       * Geometry Optimization Run *
                       *****************************

Geometry optimization settings:
Update method            Update   .... BFGS
Choice of coordinates    CoordSys .... Cartesian
Initial Hessian          InHess   .... Unit Matrix

Convergence Tolerances:
Energy Change            TolE     ....  5.0000e-06 Eh
Max. Gradient            TolMAXG  ....  3.0000e-04 Eh/bohr
RMS Gradient             TolRMSG  ....  1.0000e-04 Eh/bohr
Max. Displacement        TolMAXD  ....  4.0000e-03 bohr
RMS Displacement         TolRMSD  ....  2.0000e-03 bohr
Strict Convergence                ....  False
------------------------------------------------------------------------------
                        ORCA OPTIMIZATION COORDINATE SETUP
------------------------------------------------------------------------------

The optimization will be done in cartesian displacement coordinates
Initial hessian                         ....done
Number of atoms                         .... 18
Number of degrees of freedom            .... 54

         *************************************************************
         *                GEOMETRY OPTIMIZATION CYCLE   1            *
         *************************************************************
---------------------------------
CARTESIAN COORDINATES (ANGSTROEM)
---------------------------------
  C     -5.637256    0.988999    0.211437
  C     -6.615245    1.644790   -0.541517
  C     -7.259702    1.009671   -1.589046
  C     -6.920626   -0.303624   -1.882913
  C     -5.958313   -0.986942   -1.155345
  C     -5.321312   -0.331544   -0.113754
  C     -4.957598    1.687071    1.354206
  H     -4.015053    1.205466    1.611276
  H     -5.590488    1.673676    2.245550
  H     -4.756159    2.731843    1.116035
  H     -6.870049    2.670761   -0.306350
  H     -8.011472    1.511313   -2.179099
  H     -5.716415   -2.006256   -1.415035
  H     -4.561300   -0.852853    0.454660
  N     -7.589409   -0.981713   -3.000782
  O     -7.313967   -2.155578   -3.204561
  O     -8.383824   -0.334441   -3.667015
  H    -14.014316  -10.620091  -11.879835

----------------------------
CARTESIAN COORDINATES (A.U.)
----------------------------
  NO LB      ZA    FRAG     MASS         X           Y           Z
   0 C     6.0000    0    12.011  -10.652869    1.868937    0.399559
   1 C     6.0000    0    12.011  -12.501002    3.108203   -1.023319
   2 C     6.0000    0    12.011  -13.718848    1.908002   -3.002862
   3 C     6.0000    0    12.011  -13.078088   -0.573766   -3.558190
   4 C     6.0000    0    12.011  -11.259580   -1.865050   -2.183285
   5 C     6.0000    0    12.011  -10.055822   -0.626528   -0.214964
   6 C     6.0000    0    12.011   -9.368502    3.188102    2.559078
   7 H     1.0000    0     1.008   -7.587350    2.278001    3.044870
   8 H     1.0000    0     1.008  -10.564491    3.162790    4.243475
   9 H     1.0000    0     1.008   -8.987837    5.162436    2.109000
  10 H     1.0000    0     1.008  -12.982511    5.047007   -0.578917
  11 H     1.0000    0     1.008  -15.139487    2.855968   -4.117901
  12 H     1.0000    0     1.008  -10.802458   -3.791274   -2.674028
  13 H     1.0000    0     1.008   -8.619608   -1.611659    0.859184
  14 N     7.0000    0    14.007  -14.341905   -1.855170   -5.670656
  15 O     8.0000    0    15.999  -13.821395   -4.073452   -6.055743
  16 O     8.0000    0    15.999  -15.843131   -0.632003   -6.929653
  17 H     1.0000    0     1.008  -26.483219  -20.069063  -22.449635

--------------------------------
INTERNAL COORDINATES (ANGSTROEM)
--------------------------------
 C      0   0   0     0.000000000000     0.00000000     0.00000000
 C      1   0   0     1.397664540374     0.00000000     0.00000000
 C      2   1   0     1.384202986273   121.21060148     0.00000000
 C      3   2   1     1.387830733929   118.73009693     0.18071237
 C      4   3   2     1.386479667094   121.65713293     0.00000000
 C      5   4   3     1.385722647734   118.71140979   359.75320848
 C      1   2   3     1.501718733948   120.56621012   180.65468547
 H      7   1   2     1.089228443197   111.45080317   199.77643219
 H      7   1   2     1.093262854223   110.65435740    80.03118849
 H      7   1   2     1.090345414168   111.27285343   320.87945731
 H      2   1   3     1.082979570713   119.48240770   180.39958341
 H      3   2   1     1.079335280004   121.65106426   180.39319905
 H      5   4   3     1.079330380440   119.65224541   180.29908085
 H      6   5   4     1.082809357880   119.30934653   180.59436055
 N      4   3   2     1.468573182066   119.13389199   180.59269675
 O     15   4   3     1.222845773429   117.87278333   182.98830202
 O     15   4   3     1.222260708114   117.79959612     3.06518727
 H     16  15   4    13.849297249293   125.59956281   169.70310080

---------------------------
INTERNAL COORDINATES (A.U.)
---------------------------
 C      0   0   0     0.000000000000     0.00000000     0.00000000
 C      1   0   0     2.641203208400     0.00000000     0.00000000
 C      2   1   0     2.615764557811   121.21060148     0.00000000
 C      3   2   1     2.622620007364   118.73009693     0.18071237
 C      4   3   2     2.620066861058   121.65713293     0.00000000
 C      5   4   3     2.618636301789   118.71140979   359.75320848
 C      1   2   3     2.837837137342   120.56621012   180.65468547
 H      7   1   2     2.058343454919   111.45080317   199.77643219
 H      7   1   2     2.065967386870   110.65435740    80.03118849
 H      7   1   2     2.060454224154   111.27285343   320.87945731
 H      2   1   3     2.046534797280   119.48240770   180.39958341
 H      3   2   1     2.039648085888   121.65106426   180.39319905
 H      5   4   3     2.039638827053   119.65224541   180.29908085
 H      6   5   4     2.046213141641   119.30934653   180.59436055
 N      4   3   2     2.775201121726   119.13389199   180.59269675
 O     15   4   3     2.310843615804   117.87278333   182.98830202
 O     15   4   3     2.309738002589   117.79959612     3.06518727
 H     16  15   4    26.171378948433   125.59956281   169.70310080

---------------------
BASIS SET INFORMATION
---------------------
There are 4 groups of distinct atoms

 Group   1 Type C   : 11s6p2d1f contracted to 5s3p2d1f pattern {62111/411/11/1}
 Group   2 Type H   : 5s1p contracted to 3s1p pattern {311/1}
 Group   3 Type N   : 11s6p2d1f contracted to 5s3p2d1f pattern {62111/411/11/1}
 Group   4 Type O   : 11s6p2d1f contracted to 5s3p2d1f pattern {62111/411/11/1}

Atom   0C    basis set group =>   1
Atom   1C    basis set group =>   1
Atom   2C    basis set group =>   1
Atom   3C    basis set group =>   1
Atom   4C    basis set group =>   1
Atom   5C    basis set group =>   1
Atom   6C    basis set group =>   1
Atom   7H    basis set group =>   2
Atom   8H    basis set group =>   2
Atom   9H    basis set group =>   2
Atom  10H    basis set group =>   2
Atom  11H    basis set group =>   2
Atom  12H    basis set group =>   2
Atom  13H    basis set group =>   2
Atom  14N    basis set group =>   3
Atom  15O    basis set group =>   4
Atom  16O    basis set group =>   4
Atom  17H    basis set group =>   2
---------------------------------
AUXILIARY/J BASIS SET INFORMATION
---------------------------------
There are 4 groups of distinct atoms

 Group   1 Type C   : 12s5p4d2f1g contracted to 6s4p3d1f1g pattern {711111/2111/211/2/1}
 Group   2 Type H   : 5s2p1d contracted to 3s1p1d pattern {311/2/1}
 Group   3 Type N   : 12s5p4d2f1g contracted to 6s4p3d1f1g pattern {711111/2111/211/2/1}
 Group   4 Type O   : 12s5p4d2f1g contracted to 6s4p3d1f1g pattern {711111/2111/211/2/1}

Atom   0C    basis set group =>   1
Atom   1C    basis set group =>   1
Atom   2C    basis set group =>   1
Atom   3C    basis set group =>   1
Atom   4C    basis set group =>   1
Atom   5C    basis set group =>   1
Atom   6C    basis set group =>   1
Atom   7H    basis set group =>   2
Atom   8H    basis set group =>   2
Atom   9H    basis set group =>   2
Atom  10H    basis set group =>   2
Atom  11H    basis set group =>   2
Atom  12H    basis set group =>   2
Atom  13H    basis set group =>   2
Atom  14N    basis set group =>   3
Atom  15O    basis set group =>   4
Atom  16O    basis set group =>   4
Atom  17H    basis set group =>   2
------------------------------------------------------------------------------
                           ORCA GTO INTEGRAL CALCULATION
                           -- RI-GTO INTEGRALS CHOSEN --
------------------------------------------------------------------------------
------------------------------------------------------------------------------
                   ___                                                        
                  /   \      - P O W E R E D   B Y -                         
                 /     \                                                     
                 |  |  |   _    _      __       _____    __    __             
                 |  |  |  | |  | |    /  \     |  _  \  |  |  /  |          
                  \  \/   | |  | |   /    \    | | | |  |  | /  /          
                 / \  \   | |__| |  /  /\  \   | |_| |  |  |/  /          
                |  |  |   |  __  | /  /__\  \  |    /   |      \           
                |  |  |   | |  | | |   __   |  |    \   |  |\   \          
                \     /   | |  | | |  |  |  |  | |\  \  |  | \   \       
                 \___/    |_|  |_| |__|  |__|  |_| \__\ |__|  \__/        
                                                                              
                      - O R C A' S   B I G   F R I E N D -                    
                                      &                                       
                       - I N T E G R A L  F E E D E R -                       
                                                                              
 v1 FN, 2020, v2 2021                                                         
------------------------------------------------------------------------------


Reading SHARK input file para_produtcts_optfreq_6.SHARKINP.tmp ... ok
----------------------
SHARK INTEGRAL PACKAGE
----------------------

Number of atoms                             ...     18
Number of basis functions                   ...    358
Number of shells                            ...    142
Maximum angular momentum                    ...      3
Integral batch strategy                     ... SHARK/LIBINT Hybrid
RI-J (if used) integral strategy            ... SPLIT-RIJ (Revised 2003 algorithm where possible)
Printlevel                                  ...      1
Contraction scheme used                     ... SEGMENTED contraction
Coulomb Range Separation                    ... NOT USED
Exchange Range Separation                   ... NOT USED
Finite Nucleus Model                        ... NOT USED
Auxiliary Coulomb fitting basis             ... AVAILABLE
   # of basis functions in Aux-J            ...    578
   # of shells in Aux-J                     ...    190
   Maximum angular momentum in Aux-J        ...      4
Auxiliary J/K fitting basis                 ... NOT available
Auxiliary Correlation fitting basis         ... NOT available
Auxiliary 'external' fitting basis          ... NOT available
Integral threshold                          ...     2.500000e-11
Primitive cut-off                           ...     2.500000e-12
Primitive pair pre-selection threshold      ...     2.500000e-12

Calculating pre-screening integrals         ... done (  0.6 sec) Dimension = 142
Organizing shell pair data                  ... done (  0.7 sec)
Shell pair information
Total number of shell pairs                 ...     10153
Shell pairs after pre-screening             ...      8351
Total number of primitive shell pairs       ...     31120
Primitive shell pairs kept                  ...     18966
          la=0 lb=0:   2119 shell pairs
          la=1 lb=0:   2335 shell pairs
          la=1 lb=1:    649 shell pairs
          la=2 lb=0:   1228 shell pairs
          la=2 lb=1:    675 shell pairs
          la=2 lb=2:    191 shell pairs
          la=3 lb=0:    593 shell pairs
          la=3 lb=1:    337 shell pairs
          la=3 lb=2:    176 shell pairs
          la=3 lb=3:     48 shell pairs

Calculating one electron integrals          ... done (  0.3 sec)
Calculating RI/J V-Matrix + Cholesky decomp.... done (  0.1 sec)
Calculating Nuclear repulsion               ... done (  0.0 sec) ENN=    496.015230646039 Eh

SHARK setup successfully completed in   2.9 seconds

Maximum memory used throughout the entire GTOINT-calculation: 127.3 MB
-------------------------------------------------------------------------------
                                 ORCA SCF
-------------------------------------------------------------------------------

------------
SCF SETTINGS
------------
Hamiltonian:
 Density Functional     Method          .... DFT(GTOs)
 Exchange Functional    Exchange        .... B88
   X-Alpha parameter    XAlpha          ....  0.666667
   Becke's b parameter  XBeta           ....  0.004200
 Correlation Functional Correlation     .... LYP
 LDA part of GGA corr.  LDAOpt          .... VWN-3
 Gradients option       PostSCFGGA      .... off
 Hybrid DFT is turned on
   Fraction HF Exchange ScalHFX         ....  0.200000
   Scaling of DF-GGA-X  ScalDFX         ....  0.720000
   Scaling of DF-GGA-C  ScalDFC         ....  0.810000
   Scaling of DF-LDA-C  ScalLDAC        ....  1.000000
   Perturbative correction              ....  0.000000
   Density functional embedding theory  .... OFF
   NL short-range parameter             ....  4.800000
 RI-approximation to the Coulomb term is turned on
   Number of AuxJ basis functions       .... 578
   RIJ-COSX (HFX calculated with COS-X)).... on


General Settings:
 Integral files         IntName         .... para_produtcts_optfreq_6
 Hartree-Fock type      HFTyp           .... RHF
 Total Charge           Charge          ....    1
 Multiplicity           Mult            ....    1
 Number of Electrons    NEL             ....   72
 Basis Dimension        Dim             ....  358
 Nuclear Repulsion      ENuc            ....    496.0152306460 Eh

Convergence Acceleration:
 DIIS                   CNVDIIS         .... on
   Start iteration      DIISMaxIt       ....    12
   Startup error        DIISStart       ....  0.200000
   # of expansion vecs  DIISMaxEq       ....     5
   Bias factor          DIISBfac        ....   1.050
   Max. coefficient     DIISMaxC        ....  10.000
 Trust-Rad. Augm. Hess. CNVTRAH         .... auto
   Auto Start mean grad. ratio tolernc. ....  1.125000
   Auto Start start iteration           ....    20
   Auto Start num. interpolation iter.  ....    10
   Max. Number of Micro iterations      ....    16
   Max. Number of Macro iterations      .... Maxiter - #DIIS iter
   Number of Davidson start vectors     ....     2
   Converg. threshold I  (grad. norm)   ....   1.000e-05
   Converg. threshold II (energy diff.) ....   1.000e-08
   Grad. Scal. Fac. for Micro threshold ....   0.100
   Minimum threshold for Micro iter.    ....   0.010
   NR start threshold (gradient norm)   ....   0.001
   Initial trust radius                 ....   0.400
   Minimum AH scaling param. (alpha)    ....   1.000
   Maximum AH scaling param. (alpha)    .... 1000.000
   Orbital update algorithm             .... Taylor
   White noise on init. David. guess    .... on
   Maximum white noise                  ....   0.010
   Quad. conv. algorithm                .... NR
 SOSCF                  CNVSOSCF        .... on
   Start iteration      SOSCFMaxIt      ....   150
   Startup grad/error   SOSCFStart      ....  0.003300
 Level Shifting         CNVShift        .... on
   Level shift para.    LevelShift      ....    0.2500
   Turn off err/grad.   ShiftErr        ....    0.0010
 Zerner damping         CNVZerner       .... off
 Static damping         CNVDamp         .... on
   Fraction old density DampFac         ....    0.7000
   Max. Damping (<1)    DampMax         ....    0.9800
   Min. Damping (>=0)   DampMin         ....    0.0000
   Turn off err/grad.   DampErr         ....    0.1000
 Fernandez-Rico         CNVRico         .... off

SCF Procedure:
 Maximum # iterations   MaxIter         ....   125
 SCF integral mode      SCFMode         .... Direct
   Integral package                     .... SHARK and LIBINT hybrid scheme
 Reset frequency        DirectResetFreq ....    20
 Integral Threshold     Thresh          ....  2.500e-11 Eh
 Primitive CutOff       TCut            ....  2.500e-12 Eh

Convergence Tolerance:
 Convergence Check Mode ConvCheckMode   .... Total+1el-Energy
 Convergence forced     ConvForced      .... 0
 Energy Change          TolE            ....  1.000e-08 Eh
 1-El. energy change                    ....  1.000e-05 Eh
 Orbital Gradient       TolG            ....  1.000e-05
 Orbital Rotation angle TolX            ....  1.000e-05
 DIIS Error             TolErr          ....  5.000e-07


Diagonalization of the overlap matrix:
Smallest eigenvalue                        ... 7.619e-06
Time for diagonalization                   ...    0.092 sec
Threshold for overlap eigenvalues          ... 1.000e-08
Number of eigenvalues below threshold      ... 0
Time for construction of square roots      ...    0.027 sec
Total time needed                          ...    0.120 sec

Time for model grid setup =    1.954 sec

------------------------------
INITIAL GUESS: MODEL POTENTIAL
------------------------------
Loading Hartree-Fock densities                     ... done
Calculating cut-offs                               ... done
Initializing the effective Hamiltonian             ... done
Setting up the integral package (SHARK)            ... done
Starting the Coulomb interaction                   ... done (   3.6 sec)
Reading the grid                                   ... done
Mapping shells                                     ... done
Starting the XC term evaluation                    ... done (   4.0 sec)
  promolecular density results
     # of electrons  =     73.004078089
     EX              =    -61.306821987
     EC              =     -2.483340075
     EX+EC           =    -63.790162061
Transforming the Hamiltonian                       ... done (   0.0 sec)
Diagonalizing the Hamiltonian                      ... done (   0.1 sec)
Back transforming the eigenvectors                 ... done (   0.0 sec)
Now organizing SCF variables                       ... done
                      ------------------
                      INITIAL GUESS DONE (   9.7 sec)
                      ------------------
-------------------
DFT GRID GENERATION
-------------------

General Integration Accuracy     IntAcc      ... 4.388
Radial Grid Type                 RadialGrid  ... OptM3 with GC (2021)
Angular Grid (max. ang.)         AngularGrid ... 4 (Lebedev-302)
Angular grid pruning method      GridPruning ... 4 (adaptive)
Weight generation scheme         WeightScheme... Becke
Basis function cutoff            BFCut       ... 1.0000e-11
Integration weight cutoff        WCut        ... 1.0000e-14
Angular grids for H and He will be reduced by one unit
Partially contracted basis set               ... off
Rotationally invariant grid construction     ... off

Total number of grid points                  ...    86166
Total number of batches                      ...     1356
Average number of points per batch           ...       63
Average number of grid points per atom       ...     4787
Time for grid setup =    6.034 sec

--------------------
COSX GRID GENERATION
--------------------

GRIDX 1
-------
General Integration Accuracy     IntAcc      ... 3.816
Radial Grid Type                 RadialGrid  ... OptM3 with GC (2021)
Angular Grid (max. ang.)         AngularGrid ... 1 (Lebedev-50)
Angular grid pruning method      GridPruning ... 4 (adaptive)
Weight generation scheme         WeightScheme... Becke
Basis function cutoff            BFCut       ... 1.0000e-11
Integration weight cutoff        WCut        ... 1.0000e-14
Angular grids for H and He will be reduced by one unit
Partially contracted basis set               ... on
Rotationally invariant grid construction     ... off

Total number of grid points                  ...    10992
Total number of batches                      ...      179
Average number of points per batch           ...       61
Average number of grid points per atom       ...      611
UseSFitting                                  ... on

GRIDX 2
-------
General Integration Accuracy     IntAcc      ... 4.020
Radial Grid Type                 RadialGrid  ... OptM3 with GC (2021)
Angular Grid (max. ang.)         AngularGrid ... 2 (Lebedev-110)
Angular grid pruning method      GridPruning ... 4 (adaptive)
Weight generation scheme         WeightScheme... Becke
Basis function cutoff            BFCut       ... 1.0000e-11
Integration weight cutoff        WCut        ... 1.0000e-14
Angular grids for H and He will be reduced by one unit
Partially contracted basis set               ... on
Rotationally invariant grid construction     ... off

Total number of grid points                  ...    24158
Total number of batches                      ...      386
Average number of points per batch           ...       62
Average number of grid points per atom       ...     1342
UseSFitting                                  ... on

GRIDX 3
-------
General Integration Accuracy     IntAcc      ... 4.338
Radial Grid Type                 RadialGrid  ... OptM3 with GC (2021)
Angular Grid (max. ang.)         AngularGrid ... 3 (Lebedev-194)
Angular grid pruning method      GridPruning ... 4 (adaptive)
Weight generation scheme         WeightScheme... Becke
Basis function cutoff            BFCut       ... 1.0000e-11
Integration weight cutoff        WCut        ... 1.0000e-14
Angular grids for H and He will be reduced by one unit
Partially contracted basis set               ... on
Rotationally invariant grid construction     ... off

Total number of grid points                  ...    53310
Total number of batches                      ...      842
Average number of points per batch           ...       63
Average number of grid points per atom       ...     2962
UseSFitting                                  ... on

Time for X-Grid setup             =   11.877 sec

--------------
SCF ITERATIONS
--------------
ITER       Energy         Delta-E        Max-DP      RMS-DP      [F,P]     Damp
               ***  Starting incremental Fock matrix formation  ***
  0   -475.9553521233   0.000000000000 0.15182509  0.00136320  0.2275461 0.7000
  1   -476.2220308512  -0.266678727866 0.09701048  0.00091629  0.0870244 0.7000
                               ***Turning on DIIS***
  2   -476.2093605894   0.012670261788 0.24883557  0.00214105  0.0440380 0.0000
  3   -476.1966366814   0.012723907995 0.02328457  0.00052379  0.0773529 0.0000
  4   -476.2364104844  -0.039773803016 0.01421480  0.00032676  0.0504063 0.0000
  5   -476.2500085041  -0.013598019747 0.02232389  0.00048357  0.0320282 0.0000
  6   -476.2587058836  -0.008697379486 0.01417757  0.00032747  0.0167348 0.0000
  7   -476.2612926489  -0.002586765299 0.00871555  0.00021767  0.0078095 0.0000
                      *** Initiating the SOSCF procedure ***
                           *** Shutting down DIIS ***
                      *** Re-Reading the Fockian *** 
                      *** Removing any level shift *** 
ITER      Energy       Delta-E        Grad      Rot      Max-DP    RMS-DP
  8   -476.26203643  -0.0007437762  0.001439  0.001439  0.002973  0.000084
               *** Restarting incremental Fock matrix formation ***
  9   -476.26210486  -0.0000684385  0.000972  0.005365  0.001511  0.000053
 10   -476.26210883  -0.0000039713  0.000632  0.001431  0.000922  0.000025
 11   -476.26211831  -0.0000094763  0.000351  0.000984  0.000686  0.000019
 12   -476.26211734   0.0000009754  0.000551  0.000762  0.000463  0.000010
 13   -476.26211975  -0.0000024127  0.000156  0.000577  0.000348  0.000009
 14   -476.26211943   0.0000003148  0.000179  0.000238  0.000109  0.000003
 15   -476.26212016  -0.0000007268  0.000025  0.000084  0.000187  0.000004
 16   -476.26212016   0.0000000028  0.000037  0.000037  0.000075  0.000001
 17   -476.26212018  -0.0000000272  0.000014  0.000029  0.000048  0.000001
 18   -476.26212019  -0.0000000069  0.000009  0.000011  0.000040  0.000001
                  ***Gradient check signals convergence***
              ***Rediagonalizing the Fockian in SOSCF/NRSCF***

               *****************************************************
               *                     SUCCESS                       *
               *           SCF CONVERGED AFTER  19 CYCLES          *
               *****************************************************

Old exchange energy                            =    -12.354784340 Eh
New exchange energy                            =    -12.354798321 Eh
Exchange energy change after final integration =     -0.000013981 Eh
Total energy after final integration           =   -476.262134166 Eh
Final COS-X integration done in                =   116.907 sec

----------------
TOTAL SCF ENERGY
----------------

Total Energy       :         -476.26213417 Eh          -12959.75153 eV

Components:
Nuclear Repulsion  :          496.01523065 Eh           13497.26061 eV
Electronic Energy  :         -972.27736481 Eh          -26457.01215 eV
One Electron Energy:        -1626.89153842 Eh          -44269.96940 eV
Two Electron Energy:          654.61417361 Eh           17812.95726 eV
Max COSX asymmetry :            0.00000107 Eh               0.00003 eV

Virial components:
Potential Energy   :         -950.32144721 Eh          -25859.56125 eV
Kinetic Energy     :          474.05931304 Eh           12899.80972 eV
Virial Ratio       :            2.00464672


DFT components:
N(Alpha)           :       36.000088124470 electrons
N(Beta)            :       36.000088124470 electrons
N(Total)           :       72.000176248940 electrons
E(X)               :      -49.185092056484 Eh       
E(C)               :       -3.178615584484 Eh       
E(XC)              :      -52.363707640968 Eh       
DFET-embed. en.    :        0.000000000000 Eh       

---------------
SCF CONVERGENCE
---------------

  Last Energy change         ...    6.8002e-09  Tolerance :   1.0000e-08
  Last MAX-Density change    ...    1.3323e-15  Tolerance :   1.0000e-07
  Last RMS-Density change    ...    1.3020e-17  Tolerance :   5.0000e-09
  Last Orbital Gradient      ...    7.3146e-07  Tolerance :   1.0000e-05
  Last Orbital Rotation      ...    5.0980e-06  Tolerance :   1.0000e-05

             **** THE GBW FILE WAS UPDATED (para_produtcts_optfreq_6.gbw) ****
             **** DENSITY para_produtcts_optfreq_6.scfp WAS UPDATED ****
             **** ENERGY FILE WAS UPDATED (para_produtcts_optfreq_6.en.tmp) ****
             **** THE GBW FILE WAS UPDATED (para_produtcts_optfreq_6.gbw) ****
             **** DENSITY para_produtcts_optfreq_6.scfp WAS UPDATED ****
----------------
ORBITAL ENERGIES
----------------

  NO   OCC          E(Eh)            E(eV) 
   0   2.0000     -19.194176      -522.3001 
   1   2.0000     -19.194094      -522.2978 
   2   2.0000     -14.588430      -396.9714 
   3   2.0000     -10.272421      -279.5268 
   4   2.0000     -10.246570      -278.8233 
   5   2.0000     -10.238581      -278.6060 
   6   2.0000     -10.238267      -278.5974 
   7   2.0000     -10.231290      -278.4076 
   8   2.0000     -10.231054      -278.4011 
   9   2.0000     -10.218466      -278.0586 
  10   2.0000      -1.269076       -34.5333 
  11   2.0000      -1.094550       -29.7842 
  12   2.0000      -0.932248       -25.3678 
  13   2.0000      -0.859222       -23.3806 
  14   2.0000      -0.811332       -22.0775 
  15   2.0000      -0.782321       -21.2880 
  16   2.0000      -0.704533       -19.1713 
  17   2.0000      -0.673509       -18.3271 
  18   2.0000      -0.629907       -17.1407 
  19   2.0000      -0.601380       -16.3644 
  20   2.0000      -0.576605       -15.6902 
  21   2.0000      -0.557217       -15.1626 
  22   2.0000      -0.525799       -14.3077 
  23   2.0000      -0.522840       -14.2272 
  24   2.0000      -0.500734       -13.6257 
  25   2.0000      -0.485341       -13.2068 
  26   2.0000      -0.476523       -12.9669 
  27   2.0000      -0.441659       -12.0181 
  28   2.0000      -0.420633       -11.4460 
  29   2.0000      -0.419513       -11.4155 
  30   2.0000      -0.403146       -10.9702 
  31   2.0000      -0.355513        -9.6740 
  32   2.0000      -0.352321        -9.5872 
  33   2.0000      -0.335076        -9.1179 
  34   2.0000      -0.318024        -8.6539 
  35   2.0000      -0.311883        -8.4868 
  36   0.0000      -0.497367       -13.5340 
  37   0.0000      -0.130250        -3.5443 
  38   0.0000      -0.071625        -1.9490 
  39   0.0000      -0.042364        -1.1528 
  40   0.0000      -0.000426        -0.0116 
  41   0.0000       0.020532         0.5587 
  42   0.0000       0.029529         0.8035 
  43   0.0000       0.032202         0.8763 
  44   0.0000       0.048702         1.3252 
  45   0.0000       0.067655         1.8410 
  46   0.0000       0.072305         1.9675 
  47   0.0000       0.079300         2.1579 
  48   0.0000       0.088261         2.4017 
  49   0.0000       0.102621         2.7925 
  50   0.0000       0.104699         2.8490 
  51   0.0000       0.127806         3.4778 
  52   0.0000       0.141774         3.8579 
  53   0.0000       0.146450         3.9851 
  54   0.0000       0.156104         4.2478 
  55   0.0000       0.175556         4.7771 
  56   0.0000       0.176651         4.8069 
  57   0.0000       0.196203         5.3389 
  58   0.0000       0.205239         5.5848 
  59   0.0000       0.210837         5.7372 
  60   0.0000       0.212614         5.7855 
  61   0.0000       0.223793         6.0897 
  62   0.0000       0.238517         6.4904 
  63   0.0000       0.243607         6.6289 
  64   0.0000       0.265634         7.2283 
  65   0.0000       0.285235         7.7616 
  66   0.0000       0.291317         7.9271 
  67   0.0000       0.296190         8.0597 
  68   0.0000       0.302569         8.2333 
  69   0.0000       0.305027         8.3002 
  70   0.0000       0.318726         8.6730 
  71   0.0000       0.330592         8.9959 
  72   0.0000       0.343262         9.3406 
  73   0.0000       0.353721         9.6252 
  74   0.0000       0.363322         9.8865 
  75   0.0000       0.365593         9.9483 
  76   0.0000       0.376107        10.2344 
  77   0.0000       0.383187        10.4271 
  78   0.0000       0.384198        10.4545 
  79   0.0000       0.394369        10.7313 
  80   0.0000       0.417312        11.3556 
  81   0.0000       0.429137        11.6774 
  82   0.0000       0.439576        11.9615 
  83   0.0000       0.443786        12.0760 
  84   0.0000       0.456962        12.4346 
  85   0.0000       0.464587        12.6420 
  86   0.0000       0.468560        12.7502 
  87   0.0000       0.474608        12.9147 
  88   0.0000       0.488484        13.2923 
  89   0.0000       0.496519        13.5110 
  90   0.0000       0.514171        13.9913 
  91   0.0000       0.534206        14.5365 
  92   0.0000       0.546010        14.8577 
  93   0.0000       0.556741        15.1497 
  94   0.0000       0.580472        15.7955 
  95   0.0000       0.591539        16.0966 
  96   0.0000       0.601127        16.3575 
  97   0.0000       0.610256        16.6059 
  98   0.0000       0.619611        16.8605 
  99   0.0000       0.629099        17.1187 
 100   0.0000       0.662145        18.0179 
 101   0.0000       0.670433        18.2434 
 102   0.0000       0.685925        18.6650 
 103   0.0000       0.689119        18.7519 
 104   0.0000       0.714258        19.4360 
 105   0.0000       0.724711        19.7204 
 106   0.0000       0.741533        20.1781 
 107   0.0000       0.758480        20.6393 
 108   0.0000       0.765154        20.8209 
 109   0.0000       0.785799        21.3827 
 110   0.0000       0.797999        21.7147 
 111   0.0000       0.823881        22.4189 
 112   0.0000       0.839323        22.8392 
 113   0.0000       0.857955        23.3461 
 114   0.0000       0.874657        23.8006 
 115   0.0000       0.893645        24.3173 
 116   0.0000       0.926226        25.2039 
 117   0.0000       0.947296        25.7772 
 118   0.0000       0.961555        26.1652 
 119   0.0000       0.963748        26.2249 
 120   0.0000       0.985709        26.8225 
 121   0.0000       1.005245        27.3541 
 122   0.0000       1.029954        28.0265 
 123   0.0000       1.039292        28.2806 
 124   0.0000       1.045625        28.4529 
 125   0.0000       1.050916        28.5969 
 126   0.0000       1.050916        28.5969 
 127   0.0000       1.050924        28.5971 
 128   0.0000       1.101365        29.9697 
 129   0.0000       1.114287        30.3213 
 130   0.0000       1.124768        30.6065 
 131   0.0000       1.130819        30.7712 
 132   0.0000       1.165649        31.7189 
 133   0.0000       1.179445        32.0943 
 134   0.0000       1.186818        32.2950 
 135   0.0000       1.219350        33.1802 
 136   0.0000       1.238602        33.7041 
 137   0.0000       1.251724        34.0611 
 138   0.0000       1.261139        34.3173 
 139   0.0000       1.268386        34.5145 
 140   0.0000       1.271480        34.5987 
 141   0.0000       1.331514        36.2323 
 142   0.0000       1.356245        36.9053 
 143   0.0000       1.373692        37.3801 
 144   0.0000       1.380562        37.5670 
 145   0.0000       1.428640        38.8753 
 146   0.0000       1.438140        39.1338 
 147   0.0000       1.449903        39.4539 
 148   0.0000       1.454851        39.5885 
 149   0.0000       1.479166        40.2502 
 150   0.0000       1.487564        40.4787 
 151   0.0000       1.499992        40.8169 
 152   0.0000       1.513510        41.1847 
 153   0.0000       1.518606        41.3234 
 154   0.0000       1.539657        41.8962 
 155   0.0000       1.550987        42.2045 
 156   0.0000       1.563351        42.5409 
 157   0.0000       1.571668        42.7673 
 158   0.0000       1.597831        43.4792 
 159   0.0000       1.616914        43.9985 
 160   0.0000       1.630025        44.3552 
 161   0.0000       1.640538        44.6413 
 162   0.0000       1.664640        45.2971 
 163   0.0000       1.684811        45.8460 
 164   0.0000       1.723376        46.8955 
 165   0.0000       1.726768        46.9877 
 166   0.0000       1.738944        47.3191 
 167   0.0000       1.771078        48.1935 
 168   0.0000       1.787247        48.6335 
 169   0.0000       1.796823        48.8941 
 170   0.0000       1.829357        49.7793 
 171   0.0000       1.854755        50.4704 
 172   0.0000       1.900576        51.7173 
 173   0.0000       1.920732        52.2658 
 174   0.0000       1.925151        52.3860 
 175   0.0000       1.935326        52.6629 
 176   0.0000       1.949381        53.0454 
 177   0.0000       1.971717        53.6532 
 178   0.0000       1.975139        53.7463 
 179   0.0000       2.003065        54.5062 
 180   0.0000       2.009000        54.6677 
 181   0.0000       2.041281        55.5461 
 182   0.0000       2.073541        56.4239 
 183   0.0000       2.088549        56.8323 
 184   0.0000       2.092263        56.9334 
 185   0.0000       2.104107        57.2557 
 186   0.0000       2.119017        57.6614 
 187   0.0000       2.134369        58.0791 
 188   0.0000       2.142167        58.2913 
 189   0.0000       2.165578        58.9284 
 190   0.0000       2.180302        59.3290 
 191   0.0000       2.229452        60.6665 
 192   0.0000       2.234171        60.7949 
 193   0.0000       2.236301        60.8528 
 194   0.0000       2.301494        62.6268 
 195   0.0000       2.315966        63.0207 
 196   0.0000       2.339420        63.6589 
 197   0.0000       2.344505        63.7972 
 198   0.0000       2.425549        66.0025 
 199   0.0000       2.438675        66.3597 
 200   0.0000       2.449545        66.6555 
 201   0.0000       2.470547        67.2270 
 202   0.0000       2.478356        67.4395 
 203   0.0000       2.505828        68.1871 
 204   0.0000       2.517406        68.5021 
 205   0.0000       2.538424        69.0740 
 206   0.0000       2.549258        69.3688 
 207   0.0000       2.574848        70.0652 
 208   0.0000       2.581536        70.2472 
 209   0.0000       2.603110        70.8342 
 210   0.0000       2.610120        71.0250 
 211   0.0000       2.633577        71.6633 
 212   0.0000       2.647368        72.0386 
 213   0.0000       2.650433        72.1219 
 214   0.0000       2.663294        72.4719 
 215   0.0000       2.695110        73.3377 
 216   0.0000       2.703387        73.5629 
 217   0.0000       2.716449        73.9183 
 218   0.0000       2.740328        74.5681 
 219   0.0000       2.746440        74.7344 
 220   0.0000       2.769988        75.3752 
 221   0.0000       2.779207        75.6261 
 222   0.0000       2.790467        75.9325 
 223   0.0000       2.801858        76.2424 
 224   0.0000       2.827021        76.9271 
 225   0.0000       2.845048        77.4177 
 226   0.0000       2.888381        78.5968 
 227   0.0000       2.897278        78.8389 
 228   0.0000       2.909486        79.1711 
 229   0.0000       2.921426        79.4960 
 230   0.0000       2.937117        79.9230 
 231   0.0000       2.961757        80.5935 
 232   0.0000       2.974924        80.9518 
 233   0.0000       2.990105        81.3649 
 234   0.0000       3.000040        81.6352 
 235   0.0000       3.015531        82.0568 
 236   0.0000       3.040361        82.7324 
 237   0.0000       3.054847        83.1266 
 238   0.0000       3.069137        83.5155 
 239   0.0000       3.073508        83.6344 
 240   0.0000       3.096621        84.2633 
 241   0.0000       3.106623        84.5355 
 242   0.0000       3.123865        85.0047 
 243   0.0000       3.148332        85.6705 
 244   0.0000       3.150030        85.7167 
 245   0.0000       3.179098        86.5077 
 246   0.0000       3.189343        86.7864 
 247   0.0000       3.203328        87.1670 
 248   0.0000       3.207366        87.2769 
 249   0.0000       3.216465        87.5245 
 250   0.0000       3.227005        87.8113 
 251   0.0000       3.270990        89.0082 
 252   0.0000       3.288695        89.4899 
 253   0.0000       3.290402        89.5364 
 254   0.0000       3.295898        89.6860 
 255   0.0000       3.336862        90.8006 
 256   0.0000       3.348464        91.1163 
 257   0.0000       3.352478        91.2256 
 258   0.0000       3.361480        91.4705 
 259   0.0000       3.384658        92.1012 
 260   0.0000       3.409519        92.7777 
 261   0.0000       3.416333        92.9632 
 262   0.0000       3.435616        93.4879 
 263   0.0000       3.455029        94.0161 
 264   0.0000       3.485303        94.8399 
 265   0.0000       3.510267        95.5192 
 266   0.0000       3.523512        95.8796 
 267   0.0000       3.577879        97.3590 
 268   0.0000       3.629254        98.7570 
 269   0.0000       3.665410        99.7409 
 270   0.0000       3.685572       100.2895 
 271   0.0000       3.710725       100.9740 
 272   0.0000       3.734518       101.6214 
 273   0.0000       3.751506       102.0837 
 274   0.0000       3.764033       102.4245 
 275   0.0000       3.803344       103.4943 
 276   0.0000       3.805937       103.5648 
 277   0.0000       3.835143       104.3596 
 278   0.0000       3.856629       104.9442 
 279   0.0000       3.949334       107.4668 
 280   0.0000       3.971059       108.0580 
 281   0.0000       3.979615       108.2908 
 282   0.0000       4.005927       109.0068 
 283   0.0000       4.018060       109.3370 
 284   0.0000       4.060586       110.4942 
 285   0.0000       4.078212       110.9738 
 286   0.0000       4.106224       111.7360 
 287   0.0000       4.126943       112.2998 
 288   0.0000       4.138051       112.6021 
 289   0.0000       4.160940       113.2249 
 290   0.0000       4.177197       113.6673 
 291   0.0000       4.194392       114.1352 
 292   0.0000       4.198137       114.2371 
 293   0.0000       4.244744       115.5054 
 294   0.0000       4.255959       115.8105 
 295   0.0000       4.307744       117.2197 
 296   0.0000       4.365103       118.7805 
 297   0.0000       4.413903       120.1084 
 298   0.0000       4.469780       121.6289 
 299   0.0000       4.504441       122.5721 
 300   0.0000       4.507367       122.6517 
 301   0.0000       4.558281       124.0371 
 302   0.0000       4.579245       124.6076 
 303   0.0000       4.607652       125.3806 
 304   0.0000       4.618513       125.6761 
 305   0.0000       4.656123       126.6995 
 306   0.0000       4.663163       126.8911 
 307   0.0000       4.685933       127.5107 
 308   0.0000       4.779887       130.0673 
 309   0.0000       4.823824       131.2629 
 310   0.0000       4.859633       132.2373 
 311   0.0000       4.883176       132.8780 
 312   0.0000       4.902690       133.4090 
 313   0.0000       4.952245       134.7574 
 314   0.0000       5.030856       136.8966 
 315   0.0000       5.042166       137.2043 
 316   0.0000       5.086764       138.4179 
 317   0.0000       5.093734       138.6076 
 318   0.0000       5.108924       139.0209 
 319   0.0000       5.146051       140.0312 
 320   0.0000       5.177128       140.8768 
 321   0.0000       5.246057       142.7525 
 322   0.0000       5.272360       143.4682 
 323   0.0000       5.304523       144.3434 
 324   0.0000       5.339053       145.2830 
 325   0.0000       5.403526       147.0374 
 326   0.0000       5.424197       147.5999 
 327   0.0000       5.490117       149.3937 
 328   0.0000       5.553145       151.1087 
 329   0.0000       5.574873       151.7000 
 330   0.0000       5.738940       156.1645 
 331   0.0000       5.769381       156.9928 
 332   0.0000       5.933881       161.4691 
 333   0.0000       6.195394       168.5852 
 334   0.0000       6.242342       169.8628 
 335   0.0000       6.290544       171.1744 
 336   0.0000       6.357897       173.0072 
 337   0.0000       6.380994       173.6357 
 338   0.0000       6.392793       173.9567 
 339   0.0000       6.705842       182.4752 
 340   0.0000       6.814179       185.4232 
 341   0.0000       6.839804       186.1205 
 342   0.0000       6.897061       187.6786 
 343   0.0000       7.090179       192.9336 
 344   0.0000       7.233099       196.8226 
 345   0.0000       7.382944       200.9001 
 346   0.0000       7.447760       202.6639 
 347   0.0000       7.495450       203.9616 
 348   0.0000      22.112596       601.7143 
 349   0.0000      22.355578       608.3262 
 350   0.0000      22.633789       615.8967 
 351   0.0000      22.661118       616.6404 
 352   0.0000      22.688253       617.3788 
 353   0.0000      22.875503       622.4741 
 354   0.0000      23.245095       632.5312 
 355   0.0000      32.477892       883.7684 
 356   0.0000      44.020553      1197.8602 
 357   0.0000      44.045017      1198.5258 

                    ********************************
                    * MULLIKEN POPULATION ANALYSIS *
                    ********************************

-----------------------
MULLIKEN ATOMIC CHARGES
-----------------------
   0 C :    0.151597
   1 C :   -0.138797
   2 C :   -0.152568
   3 C :    0.079040
   4 C :   -0.155698
   5 C :   -0.137817
   6 C :   -0.352019
   7 H :    0.121664
   8 H :    0.132572
   9 H :    0.126512
  10 H :    0.119906
  11 H :    0.154289
  12 H :    0.152105
  13 H :    0.118095
  14 N :    0.418632
  15 O :   -0.320259
  16 O :   -0.317252
  17 H :    1.000000
Sum of atomic charges:    1.0000000

--------------------------------
MULLIKEN REDUCED ORBITAL CHARGES
--------------------------------
  0 C s       :     3.177238  s :     3.177238
      pz      :     0.839673  p :     2.532063
      px      :     0.846981
      py      :     0.845409
      dz2     :     0.031548  d :     0.129251
      dxz     :     0.018204
      dyz     :     0.027697
      dx2y2   :     0.027567
      dxy     :     0.024234
      f0      :     0.001049  f :     0.009852
      f+1     :     0.001396
      f-1     :     0.001337
      f+2     :     0.001901
      f-2     :     0.001314
      f+3     :     0.001615
      f-3     :     0.001239
  1 C s       :     3.224159  s :     3.224159
      pz      :     0.929278  p :     2.832329
      px      :     0.938871
      py      :     0.964180
      dz2     :     0.019938  d :     0.074992
      dxz     :     0.012806
      dyz     :     0.012966
      dx2y2   :     0.017928
      dxy     :     0.011353
      f0      :     0.000944  f :     0.007316
      f+1     :     0.001243
      f-1     :     0.000880
      f+2     :     0.001548
      f-2     :     0.001079
      f+3     :     0.000881
      f-3     :     0.000742
  2 C s       :     3.233114  s :     3.233114
      pz      :     0.935552  p :     2.824648
      px      :     0.957646
      py      :     0.931450
      dz2     :     0.017021  d :     0.087250
      dxz     :     0.013835
      dyz     :     0.020761
      dx2y2   :     0.016210
      dxy     :     0.019423
      f0      :     0.001262  f :     0.007556
      f+1     :     0.000713
      f-1     :     0.000856
      f+2     :     0.001494
      f-2     :     0.001212
      f+3     :     0.000888
      f-3     :     0.001131
  3 C s       :     3.097577  s :     3.097577
      pz      :     0.864633  p :     2.691843
      px      :     0.937214
      py      :     0.889997
      dz2     :     0.023342  d :     0.119634
      dxz     :     0.014793
      dyz     :     0.029205
      dx2y2   :     0.023849
      dxy     :     0.028445
      f0      :     0.001163  f :     0.011906
      f+1     :     0.001904
      f-1     :     0.001785
      f+2     :     0.002221
      f-2     :     0.001874
      f+3     :     0.001708
      f-3     :     0.001250
  4 C s       :     3.234241  s :     3.234241
      pz      :     0.920261  p :     2.826299
      px      :     0.918118
      py      :     0.987920
      dz2     :     0.023081  d :     0.087607
      dxz     :     0.014906
      dyz     :     0.016924
      dx2y2   :     0.019946
      dxy     :     0.012751
      f0      :     0.000942  f :     0.007551
      f+1     :     0.001220
      f-1     :     0.000967
      f+2     :     0.001617
      f-2     :     0.001070
      f+3     :     0.000895
      f-3     :     0.000841
  5 C s       :     3.212561  s :     3.212561
      pz      :     0.954897  p :     2.840970
      px      :     0.977164
      py      :     0.908909
      dz2     :     0.014131  d :     0.076947
      dxz     :     0.011440
      dyz     :     0.019767
      dx2y2   :     0.013704
      dxy     :     0.017905
      f0      :     0.001120  f :     0.007339
      f+1     :     0.000682
      f-1     :     0.000936
      f+2     :     0.001456
      f-2     :     0.001212
      f+3     :     0.000916
      f-3     :     0.001016
  6 C s       :     3.319792  s :     3.319792
      pz      :     0.958154  p :     2.984683
      px      :     1.007834
      py      :     1.018695
      dz2     :     0.014227  d :     0.043971
      dxz     :     0.009241
      dyz     :     0.005129
      dx2y2   :     0.009447
      dxy     :     0.005926
      f0      :     0.000395  f :     0.003573
      f+1     :     0.000916
      f-1     :     0.000348
      f+2     :     0.000801
      f-2     :     0.000461
      f+3     :     0.000076
      f-3     :     0.000577
  7 H s       :     0.856584  s :     0.856584
      pz      :     0.005048  p :     0.021752
      px      :     0.010991
      py      :     0.005713
  8 H s       :     0.845711  s :     0.845711
      pz      :     0.010353  p :     0.021718
      px      :     0.006885
      py      :     0.004480
  9 H s       :     0.851928  s :     0.851928
      pz      :     0.004594  p :     0.021560
      px      :     0.004730
      py      :     0.012237
 10 H s       :     0.857657  s :     0.857657
      pz      :     0.004541  p :     0.022437
      px      :     0.004736
      py      :     0.013161
 11 H s       :     0.822791  s :     0.822791
      pz      :     0.007706  p :     0.022920
      px      :     0.009520
      py      :     0.005694
 12 H s       :     0.824975  s :     0.824975
      pz      :     0.004808  p :     0.022920
      px      :     0.004391
      py      :     0.013721
 13 H s       :     0.859442  s :     0.859442
      pz      :     0.006964  p :     0.022464
      px      :     0.009351
      py      :     0.006149
 14 N s       :     3.266584  s :     3.266584
      pz      :     1.077056  p :     3.051431
      px      :     1.049627
      py      :     0.924747
      dz2     :     0.041859  d :     0.249196
      dxz     :     0.024036
      dyz     :     0.065720
      dx2y2   :     0.056211
      dxy     :     0.061369
      f0      :     0.001472  f :     0.014158
      f+1     :     0.001675
      f-1     :     0.001921
      f+2     :     0.002943
      f-2     :     0.001405
      f+3     :     0.002823
      f-3     :     0.001919
 15 O s       :     3.883991  s :     3.883991
      pz      :     1.671389  p :     4.391308
      px      :     1.572474
      py      :     1.147445
      dz2     :     0.005314  d :     0.041714
      dxz     :     0.001424
      dyz     :     0.009983
      dx2y2   :     0.013847
      dxy     :     0.011147
      f0      :     0.000331  f :     0.003245
      f+1     :     0.000076
      f-1     :     0.000573
      f+2     :     0.000420
      f-2     :     0.000202
      f+3     :     0.000797
      f-3     :     0.000846
 16 O s       :     3.885388  s :     3.885388
      pz      :     1.474750  p :     4.386791
      px      :     1.308954
      py      :     1.603086
      dz2     :     0.007186  d :     0.041824
      dxz     :     0.009411
      dyz     :     0.008256
      dx2y2   :     0.007940
      dxy     :     0.009031
      f0      :     0.000313  f :     0.003249
      f+1     :     0.000404
      f-1     :     0.000394
      f+2     :     0.000434
      f-2     :     0.000826
      f+3     :     0.000395
      f-3     :     0.000483
 17 H s       :     0.000000  s :     0.000000
      pz      :     0.000000  p :     0.000000
      px      :     0.000000
      py      :     0.000000


                     *******************************
                     * LOEWDIN POPULATION ANALYSIS *
                     *******************************

----------------------
LOEWDIN ATOMIC CHARGES
----------------------
   0 C :   -0.143675
   1 C :   -0.098678
   2 C :   -0.088094
   3 C :   -0.162761
   4 C :   -0.088319
   5 C :   -0.101071
   6 C :   -0.242985
   7 H :    0.128719
   8 H :    0.135046
   9 H :    0.131063
  10 H :    0.150529
  11 H :    0.157671
  12 H :    0.157153
  13 H :    0.149599
  14 N :   -0.025691
  15 O :   -0.030902
  16 O :   -0.027605
  17 H :    1.000000

-------------------------------
LOEWDIN REDUCED ORBITAL CHARGES
-------------------------------
  0 C s       :     2.717406  s :     2.717406
      pz      :     0.918643  p :     2.844242
      px      :     0.912035
      py      :     1.013564
      dz2     :     0.102198  d :     0.523994
      dxz     :     0.078977
      dyz     :     0.119375
      dx2y2   :     0.108956
      dxy     :     0.114488
      f0      :     0.007187  f :     0.058032
      f+1     :     0.007306
      f-1     :     0.008374
      f+2     :     0.011540
      f-2     :     0.006054
      f+3     :     0.010659
      f-3     :     0.006912
  1 C s       :     2.756387  s :     2.756387
      pz      :     0.982562  p :     2.922529
      px      :     0.963648
      py      :     0.976319
      dz2     :     0.085533  d :     0.376871
      dxz     :     0.076977
      dyz     :     0.067324
      dx2y2   :     0.088187
      dxy     :     0.058851
      f0      :     0.004969  f :     0.042891
      f+1     :     0.006901
      f-1     :     0.006066
      f+2     :     0.008569
      f-2     :     0.006192
      f+3     :     0.005744
      f-3     :     0.004449
  2 C s       :     2.759729  s :     2.759729
      pz      :     0.964968  p :     2.903337
      px      :     0.929684
      py      :     1.008685
      dz2     :     0.064272  d :     0.380362
      dxz     :     0.058477
      dyz     :     0.098671
      dx2y2   :     0.073603
      dxy     :     0.085339
      f0      :     0.007066  f :     0.044666
      f+1     :     0.004806
      f-1     :     0.005762
      f+2     :     0.008248
      f-2     :     0.005146
      f+3     :     0.006562
      f-3     :     0.007076
  3 C s       :     2.719028  s :     2.719028
      pz      :     0.877766  p :     2.840593
      px      :     0.950969
      py      :     1.011858
      dz2     :     0.092281  d :     0.536365
      dxz     :     0.085476
      dyz     :     0.133521
      dx2y2   :     0.105865
      dxy     :     0.119221
      f0      :     0.007455  f :     0.066775
      f+1     :     0.009678
      f-1     :     0.010846
      f+2     :     0.011714
      f-2     :     0.009220
      f+3     :     0.011082
      f-3     :     0.006779
  4 C s       :     2.759796  s :     2.759796
      pz      :     0.971475  p :     2.903673
      px      :     0.945287
      py      :     0.986911
      dz2     :     0.089844  d :     0.380218
      dxz     :     0.071087
      dyz     :     0.072883
      dx2y2   :     0.088695
      dxy     :     0.057709
      f0      :     0.005044  f :     0.044633
      f+1     :     0.006794
      f-1     :     0.006762
      f+2     :     0.008551
      f-2     :     0.006533
      f+3     :     0.005953
      f-3     :     0.004996
  5 C s       :     2.756542  s :     2.756542
      pz      :     0.968989  p :     2.924247
      px      :     0.942204
      py      :     1.013054
      dz2     :     0.058582  d :     0.377413
      dxz     :     0.055002
      dyz     :     0.106849
      dx2y2   :     0.070978
      dxy     :     0.086001
      f0      :     0.006331  f :     0.042868
      f+1     :     0.004680
      f-1     :     0.005817
      f+2     :     0.008447
      f-2     :     0.005049
      f+3     :     0.006441
      f-3     :     0.006103
  6 C s       :     2.818308  s :     2.818308
      pz      :     1.038973  p :     3.152314
      px      :     1.057189
      py      :     1.056151
      dz2     :     0.063373  d :     0.247082
      dxz     :     0.062046
      dyz     :     0.033966
      dx2y2   :     0.053375
      dxy     :     0.034322
      f0      :     0.003572  f :     0.025281
      f+1     :     0.004776
      f-1     :     0.003860
      f+2     :     0.004587
      f-2     :     0.003321
      f+3     :     0.001416
      f-3     :     0.003748
  7 H s       :     0.810723  s :     0.810723
      pz      :     0.013718  p :     0.060558
      px      :     0.029519
      py      :     0.017321
  8 H s       :     0.804112  s :     0.804112
      pz      :     0.026928  p :     0.060842
      px      :     0.020659
      py      :     0.013255
  9 H s       :     0.808208  s :     0.808208
      pz      :     0.013775  p :     0.060729
      px      :     0.013800
      py      :     0.033154
 10 H s       :     0.790763  s :     0.790763
      pz      :     0.012901  p :     0.058708
      px      :     0.013334
      py      :     0.032474
 11 H s       :     0.780665  s :     0.780665
      pz      :     0.020539  p :     0.061664
      px      :     0.024995
      py      :     0.016130
 12 H s       :     0.781224  s :     0.781224
      pz      :     0.013710  p :     0.061623
      px      :     0.012829
      py      :     0.035083
 13 H s       :     0.791652  s :     0.791652
      pz      :     0.018423  p :     0.058749
      px      :     0.023840
      py      :     0.016486
 14 N s       :     2.927227  s :     2.927227
      pz      :     1.097775  p :     3.271797
      px      :     1.068872
      py      :     1.105150
      dz2     :     0.121988  d :     0.755296
      dxz     :     0.084228
      dyz     :     0.188015
      dx2y2   :     0.172408
      dxy     :     0.188657
      f0      :     0.007875  f :     0.071372
      f+1     :     0.007719
      f-1     :     0.010473
      f+2     :     0.014976
      f-2     :     0.006184
      f+3     :     0.015823
      f-3     :     0.008320
 15 O s       :     3.499055  s :     3.499055
      pz      :     1.594961  p :     4.421814
      px      :     1.520622
      py      :     1.306231
      dz2     :     0.013018  d :     0.098999
      dxz     :     0.002452
      dyz     :     0.023334
      dx2y2   :     0.035479
      dxy     :     0.024717
      f0      :     0.001081  f :     0.011033
      f+1     :     0.000234
      f-1     :     0.001959
      f+2     :     0.001554
      f-2     :     0.000563
      f+3     :     0.002728
      f-3     :     0.002914
 16 O s       :     3.498672  s :     3.498672
      pz      :     1.471717  p :     4.418669
      px      :     1.355208
      py      :     1.591744
      dz2     :     0.014294  d :     0.099204
      dxz     :     0.025030
      dyz     :     0.019351
      dx2y2   :     0.016914
      dxy     :     0.023615
      f0      :     0.001109  f :     0.011059
      f+1     :     0.001471
      f-1     :     0.001076
      f+2     :     0.001451
      f-2     :     0.003035
      f+3     :     0.001357
      f-3     :     0.001558
 17 H s       :     0.000000  s :     0.000000
      pz      :     0.000000  p :     0.000000
      px      :     0.000000
      py      :     0.000000


                      *****************************
                      * MAYER POPULATION ANALYSIS *
                      *****************************

  NA   - Mulliken gross atomic population
  ZA   - Total nuclear charge
  QA   - Mulliken gross atomic charge
  VA   - Mayer's total valence
  BVA  - Mayer's bonded valence
  FA   - Mayer's free valence

  ATOM       NA         ZA         QA         VA         BVA        FA
  0 C      5.8484     6.0000     0.1516     3.7059     3.7059     0.0000
  1 C      6.1388     6.0000    -0.1388     3.8655     3.8655     0.0000
  2 C      6.1526     6.0000    -0.1526     3.9972     3.9972     0.0000
  3 C      5.9210     6.0000     0.0790     3.8641     3.8641     0.0000
  4 C      6.1557     6.0000    -0.1557     4.0016     4.0016    -0.0000
  5 C      6.1378     6.0000    -0.1378     3.8824     3.8824     0.0000
  6 C      6.3520     6.0000    -0.3520     3.8547     3.8547     0.0000
  7 H      0.8783     1.0000     0.1217     0.9715     0.9715     0.0000
  8 H      0.8674     1.0000     0.1326     0.9581     0.9581    -0.0000
  9 H      0.8735     1.0000     0.1265     0.9657     0.9657     0.0000
 10 H      0.8801     1.0000     0.1199     0.9725     0.9725    -0.0000
 11 H      0.8457     1.0000     0.1543     0.9958     0.9958     0.0000
 12 H      0.8479     1.0000     0.1521     0.9971     0.9971    -0.0000
 13 H      0.8819     1.0000     0.1181     0.9730     0.9730     0.0000
 14 N      6.5814     7.0000     0.4186     4.2108     4.2108    -0.0000
 15 O      8.3203     8.0000    -0.3203     1.9233     1.9233    -0.0000
 16 O      8.3173     8.0000    -0.3173     1.9256     1.9256     0.0000
 17 H      0.0000     1.0000     1.0000     0.0000     0.0000     0.0000

  Mayer bond orders larger than 0.100000
B(  0-C ,  1-C ) :   1.3466 B(  0-C ,  5-C ) :   1.3688 B(  0-C ,  6-C ) :   0.9200 
B(  1-C ,  2-C ) :   1.4278 B(  1-C , 10-H ) :   0.9764 B(  2-C ,  3-C ) :   1.3964 
B(  2-C , 11-H ) :   0.9347 B(  3-C ,  4-C ) :   1.4062 B(  3-C , 14-N ) :   0.9812 
B(  4-C ,  5-C ) :   1.4204 B(  4-C , 12-H ) :   0.9351 B(  5-C , 13-H ) :   0.9703 
B(  6-C ,  7-H ) :   0.9876 B(  6-C ,  8-H ) :   0.9505 B(  6-C ,  9-H ) :   0.9785 
B( 14-N , 15-O ) :   1.6049 B( 14-N , 16-O ) :   1.6065 B( 15-O , 16-O ) :   0.1989 


-------
TIMINGS
-------

Total SCF time: 0 days 0 hours 18 min 53 sec 

Total time                  ....    1133.037 sec
Sum of individual times     ....    1129.473 sec  ( 99.7%)

Fock matrix formation       ....    1099.549 sec  ( 97.0%)
  Split-RI-J                ....      80.725 sec  (  7.3% of F)
  Chain of spheres X        ....     886.654 sec  ( 80.6% of F)
  XC integration            ....     131.546 sec  ( 12.0% of F)
    Basis function eval.    ....      37.106 sec  ( 28.2% of XC)
    Density eval.           ....      43.838 sec  ( 33.3% of XC)
    XC-Functional eval.     ....       3.802 sec  (  2.9% of XC)
    XC-Potential eval.      ....      42.835 sec  ( 32.6% of XC)
Diagonalization             ....       0.700 sec  (  0.1%)
Density matrix formation    ....       0.124 sec  (  0.0%)
Population analysis         ....       0.098 sec  (  0.0%)
Initial guess               ....       7.699 sec  (  0.7%)
Orbital Transformation      ....       0.000 sec  (  0.0%)
Orbital Orthonormalization  ....       0.000 sec  (  0.0%)
DIIS solution               ....       0.567 sec  (  0.1%)
SOSCF solution              ....       0.871 sec  (  0.1%)
Grid generation             ....      19.865 sec  (  1.8%)

Maximum memory used throughout the entire SCF-calculation: 203.2 MB


-------------------------------------------------------------------------------
                          DFT DISPERSION CORRECTION                            
                                                                               
                                 DFTD4 V2.5                                    
-------------------------------------------------------------------------------
Gaussians B3LYP functional is recognized, using regular B3LYP params
Active option DFTDOPT                   ...         5   

Starting D4
-------------------------   ----------------
Dispersion correction           -0.026582717
-------------------------   ----------------


-------------------------   --------------------
FINAL SINGLE POINT ENERGY      -476.288716882424
-------------------------   --------------------

------------------------------------------------------------------------------
                         ORCA SCF GRADIENT CALCULATION
------------------------------------------------------------------------------

 ... reading COSX grid (gridx3)
Gradient of the Kohn-Sham DFT energy:
Kohn-Sham wavefunction type      ... RKS
Hartree-Fock exchange scaling    ...    0.200
Number of operators              ...    1
Number of atoms                  ...   18
Basis set dimensions             ...  358
Integral neglect threshold       ... 2.5e-11
Integral primitive cutoff        ... 2.5e-12
SHARK Integral package           ... ON

Nuc. rep. gradient       (SHARK) ... done (  0.0 sec)
HCore & Overlap gradient (SHARK) ... done (  4.2 sec)
RI-J gradient            (SHARK) ... done ( 19.8 sec)
COSX-gradient                    ... done (156.9 sec)
Exchange-correlation gradient    ... done
Dispersion correction            ... Starting D4


------------------- 
Dispersion Gradient 
------------------- 
   1  :    0.000184494    0.000185289    0.000300708
   2  :   -0.000136338    0.000467928    0.000085905
   3  :   -0.000290687    0.000369383   -0.000133430
   4  :   -0.000158676   -0.000159988   -0.000258296
   5  :    0.000230498   -0.000429059    0.000041447
   6  :    0.000344192   -0.000264724    0.000242572
   7  :    0.000288708    0.000295887    0.000482483
   8  :    0.000099877    0.000054416    0.000114957
   9  :    0.000037739    0.000066252    0.000160252
  10  :    0.000081601    0.000105313    0.000098449
  11  :   -0.000080064    0.000197774    0.000009768
  12  :   -0.000142618    0.000136016   -0.000089808
  13  :    0.000077630   -0.000201706   -0.000016126
  14  :    0.000140795   -0.000137986    0.000083145
  15  :   -0.000269443   -0.000272457   -0.000445203
  16  :   -0.000103292   -0.000378639   -0.000294272
  17  :   -0.000304735   -0.000034139   -0.000383010
  18  :    0.000000319    0.000000440    0.000000460

  |G| =    0.001564171

done

------------------
CARTESIAN GRADIENT
------------------

   1   C   :    0.000074222    0.000064513    0.000103604
   2   C   :   -0.000067784    0.000015149    0.000125196
   3   C   :    0.000009313   -0.000002133   -0.000016625
   4   C   :   -0.000164403   -0.000101637    0.000074518
   5   C   :   -0.000110717   -0.000043500    0.000076333
   6   C   :    0.000049412    0.000003191    0.000070102
   7   C   :   -0.000003845   -0.000014446    0.000048256
   8   H   :   -0.000142639    0.000113245   -0.000102327
   9   H   :    0.000119442    0.000031100   -0.000115102
  10   H   :    0.000011597   -0.000209498    0.000025927
  11   H   :    0.000019547    0.000150903    0.000051032
  12   H   :   -0.000104138   -0.000061086   -0.000006503
  13   H   :    0.000016917   -0.000024470   -0.000111354
  14   H   :    0.000161935   -0.000020053    0.000088520
  15   N   :    0.000148735    0.000087493   -0.000017981
  16   O   :   -0.000111377    0.000087685   -0.000154996
  17   O   :    0.000065333   -0.000038278    0.000060537
  18   H   :   -0.000071524   -0.000119797   -0.000088770

Difference to translation invariance:
           :   -0.0000999730   -0.0000816190    0.0001103681

Difference to rotation invariance:
           :    0.0003285422    0.0024742939    0.0011211315

Norm of the cartesian gradient     ...    0.0006557300
RMS gradient                       ...    0.0000892335
MAX gradient                       ...    0.0002094979

-------
TIMINGS
-------

Total SCF gradient time            ...      218.784 sec

One electron gradient       ....       4.150 sec  (  1.9%)
RI-J Coulomb gradient       ....      19.778 sec  (  9.0%)
COSX gradient               ....     156.892 sec  ( 71.7%)
XC gradient                 ....      30.346 sec  ( 13.9%)

Maximum memory used throughout the entire SCFGRAD-calculation: 170.1 MB
------------------------------------------------------------------------------
                         ORCA GEOMETRY RELAXATION STEP
------------------------------------------------------------------------------

Reading the OPT-File                    ....done
Number of atoms                         ....  18
Number of degrees of freedom            ....  54
Current Energy                          ....  -476.288716882 Eh
Current gradient norm                   ....     0.000655730 Eh/bohr
# of structures/gradients available     ....   1
# of structures/gradients to be used    ....   1
First structure used                    ....   0
Maximum allowed component of the step   ....  0.300
Transforming the gradients              ....done
Building the approximate hessian        ....(skipped:first point)done
Eigenvalues of the approximate hessian:
  1.000000  1.000000  1.000000  1.000000  1.000000  1.000000
[...]
     11       0.008940  -0.105894  -0.026702   0.102665  -0.075197  -0.000100
     12      -0.001168   0.113815   0.105459  -0.168579   0.156259   0.000017
     13       0.032234  -0.034152  -0.045153  -0.061723  -0.156274   0.000132
     14       0.015442   0.109747   0.094751  -0.219613   0.094252   0.000147
     15      -0.020718  -0.022087  -0.054849   0.097217  -0.050328  -0.000489
     16      -0.020756   0.109235   0.122234   0.202750   0.211136  -0.000195
     17      -0.031049   0.031588   0.002167   0.211941   0.053108  -0.000621
     18       0.042184   0.014549  -0.007588   0.019834  -0.010366  -0.002011
     19      -0.011904   0.014402   0.015649   0.014550   0.020758   0.019311
     20       0.011744   0.023151  -0.000724   0.023172  -0.001537   0.051335
     21      -0.055927   0.012334  -0.015924  -0.009633  -0.026133  -0.353749
     22      -0.347843   0.018702  -0.118225  -0.033746  -0.103717   0.183858
     23      -0.341768   0.039246  -0.229531   0.033788  -0.173501  -0.082667
     24      -0.138687   0.025360  -0.057243   0.027122  -0.024658   0.467802
     25       0.557441   0.016642   0.190617   0.038179   0.119264   0.017754
     26      -0.096126   0.029331  -0.032614   0.022173  -0.010703  -0.639078
     27      -0.473542   0.013207  -0.037130  -0.051038  -0.002880  -0.085650
     28       0.171489   0.016053   0.073925   0.026379   0.058281  -0.428042
     29       0.340437   0.031187   0.220526   0.026133   0.172444   0.113716
     30      -0.073979  -0.292931   0.037514  -0.311141   0.134418  -0.001319
     31       0.021509  -0.061239   0.094918   0.077264   0.117480   0.008323
     32      -0.066249  -0.360797   0.091522  -0.310050   0.210324   0.002726
     33      -0.017649  -0.089695   0.042533  -0.035910   0.148827   0.000786
     34       0.043167  -0.365844   0.099336   0.286662   0.100194  -0.000113
     35       0.000494  -0.289164   0.101289   0.106274   0.219106   0.000620
     36      -0.034886  -0.300694  -0.110945   0.224125  -0.086263   0.000137
     37       0.038720  -0.032150  -0.033557  -0.079436  -0.174886   0.000739
     38      -0.022807  -0.353388  -0.140406   0.208674  -0.187680   0.000323
     39       0.005563  -0.104960  -0.088053   0.008525  -0.122685   0.005986
     40       0.128791  -0.336115  -0.037409  -0.361578  -0.198148  -0.003149
     41       0.065950  -0.290526  -0.119254  -0.178948  -0.238939   0.004781
     42       0.009369  -0.003237  -0.319373   0.011467   0.132510   0.000017
     43      -0.020438  -0.008201   0.537337   0.032285  -0.216037   0.000002
     44       0.002990  -0.007645  -0.138636   0.028509   0.056128   0.000001
     45      -0.002719  -0.002280   0.071724   0.005270  -0.030989   0.000012
     46       0.016408   0.018518  -0.284019  -0.028841   0.086589  -0.000006
     47       0.004069   0.005776  -0.043652  -0.006976   0.003251   0.000014
     48      -0.009204   0.010619   0.195199  -0.013337  -0.059315  -0.000003
     49       0.006508  -0.005592  -0.165332   0.006675   0.062222   0.000019
     50      -0.008339   0.010225   0.160462  -0.012907  -0.042272   0.000008
     51       0.000009   0.000057  -0.000746   0.000053   0.000290  -0.000001
     52       0.000001   0.000072   0.000440   0.000128  -0.000140  -0.000003
     53       0.000007   0.000067  -0.000576   0.000076   0.000225  -0.000004
                 48         49         50         51         52         53    
      0      -0.000041  -0.000515   0.001979  -0.000654   0.000543  -0.000435
      1       0.000219   0.001278  -0.001103  -0.002397  -0.000822  -0.000471
      2       0.001176   0.000130   0.001602  -0.001893   0.000175  -0.000723
      3      -0.000054   0.000205  -0.019566   0.005598  -0.000264   0.000865
      4       0.001050  -0.001706   0.078632  -0.020652   0.007473  -0.008968
      5       0.000162  -0.000294   0.018005  -0.004191   0.003496  -0.003575
      6       0.000055  -0.000009   0.005745  -0.002284  -0.043062   0.042111
      7       0.000081   0.000283  -0.006073   0.002328   0.028969  -0.029089
      8      -0.000020   0.000208   0.003387  -0.001389  -0.033629   0.032496
      9      -0.000067   0.000069   0.000370   0.000176   0.001829   0.001270
     10      -0.000013  -0.000180  -0.000536  -0.000351  -0.002825   0.001210
     11      -0.000057  -0.000016   0.000136   0.000027   0.000617   0.002057
     12       0.000115  -0.000118   0.000626   0.003886  -0.013742  -0.014640
     13       0.000000   0.000085  -0.001328  -0.009109   0.057122   0.058506
     14       0.000085  -0.000181  -0.000007  -0.000440   0.014305   0.014019
     15       0.000579   0.002197  -0.015300  -0.058148  -0.005833  -0.007214
     16      -0.000447  -0.001277   0.009988   0.040357   0.001921   0.003099
     17       0.000547   0.001421  -0.011728  -0.043252  -0.005445  -0.006363
     18      -0.066775  -0.053667  -0.000796  -0.002129  -0.000069  -0.000097
     19      -0.039986   0.072781   0.002264   0.001100   0.000089   0.000005
     20       0.042307  -0.019739  -0.000568  -0.000422  -0.000027   0.000027
     21       0.346322   0.708967   0.011871   0.026372   0.000379   0.001258
     22      -0.195765  -0.360778  -0.006972  -0.011245  -0.000253  -0.000187
     23       0.106495   0.185479   0.002775   0.008690   0.000049   0.000615
     24       0.337393   0.044482   0.000494   0.001422  -0.000052   0.000285
     25       0.000511   0.019838   0.000526   0.000917   0.000123   0.000172
     26      -0.475969  -0.082688  -0.002965  -0.000466  -0.000032   0.000304
     27       0.112093  -0.113705  -0.005327   0.001103  -0.000051   0.000483
     28       0.668505  -0.533214  -0.021958  -0.000276  -0.000204   0.000789
     29      -0.149892   0.128574   0.003720   0.001550   0.000109   0.000217
     30       0.001123  -0.002399   0.225372  -0.059151   0.017430  -0.021303
     31      -0.011226   0.016841  -0.905509   0.235801  -0.075896   0.091195
     32      -0.001875   0.004581  -0.206793   0.053131  -0.018910   0.022306
     33      -0.000755   0.001414  -0.083132   0.031368   0.491999  -0.479727
     34       0.000283  -0.001017   0.059032  -0.022112  -0.333965   0.325989
     35      -0.000581   0.001019  -0.063335   0.023994   0.383362  -0.373675
     36       0.000046   0.000632  -0.005218  -0.031920   0.159073   0.162214
     37      -0.000739  -0.002960   0.019686   0.123035  -0.653775  -0.665858
     38      -0.000299  -0.000718   0.004365   0.028136  -0.161904  -0.164636
     39      -0.007503  -0.022049   0.176842   0.669849   0.056592   0.071135
     40       0.004180   0.012350  -0.120842  -0.459947  -0.036952  -0.046898
     41      -0.005048  -0.016485   0.132631   0.500443   0.043317   0.054137
     42       0.000006   0.000024   0.000050   0.000082  -0.000832   0.000264
     43       0.000025   0.000019  -0.000142  -0.000029   0.001337   0.000287
     44       0.000089   0.000041  -0.000017   0.000100  -0.000316   0.000454
     45       0.000006   0.000002  -0.000026  -0.000091   0.000427   0.000273
     46      -0.000023  -0.000030   0.000057   0.000009  -0.000234  -0.000311
     47      -0.000020  -0.000011   0.000000  -0.000101   0.000370   0.000155
     48      -0.000015  -0.000002  -0.000009  -0.000039   0.000093  -0.000179
     49       0.000007  -0.000001   0.000119  -0.000017  -0.000587   0.000396
     50      -0.000026  -0.000005   0.000052  -0.000057  -0.000196  -0.000007
     51       0.000003   0.000000  -0.000001   0.000001   0.000007   0.000008
     52       0.000003   0.000004  -0.000003   0.000005  -0.000001   0.000005
     53       0.000005   0.000000  -0.000003   0.000003   0.000003   0.000006


-----------
IR SPECTRUM
-----------

 Mode   freq       eps      Int      T**2         TX        TY        TZ
       cm**-1   L/(mol*cm) km/mol    a.u.
----------------------------------------------------------------------------
  8:     14.00   0.140106  708.04  3.122170  (-1.308915  1.117050 -0.401387)
  9:     14.75   0.135836  686.46  2.874411  ( 0.816711  0.559842 -1.376216)
 10:     55.58   0.000057    0.29  0.000320  ( 0.003320 -0.011872  0.012956)
 11:    107.37   0.000165    0.83  0.000480  ( 0.014600  0.005744 -0.015294)
 12:    222.02   0.000169    0.86  0.000238  ( 0.008461 -0.012456  0.003383)
 13:    282.80   0.000739    3.73  0.000815  ( 0.021268  0.008293 -0.017147)
 14:    359.93   0.000043    0.22  0.000037  ( 0.004752 -0.002458  0.002910)
 15:    363.73   0.000175    0.89  0.000150  (-0.003829 -0.006977 -0.009323)
 16:    420.61   0.000001    0.01  0.000001  ( 0.000558 -0.000482 -0.000750)
 17:    482.35   0.001843    9.31  0.001192  (-0.022342 -0.011519  0.023674)
 18:    535.64   0.000365    1.84  0.000212  ( 0.009440 -0.011090 -0.000538)
 19:    627.75   0.000713    3.60  0.000354  ( 0.009451  0.009442  0.013258)
 20:    650.11   0.000103    0.52  0.000049  (-0.004140  0.005605 -0.000939)
 21:    706.69   0.000939    4.74  0.000414  (-0.013561 -0.005791  0.014036)
 22:    762.42   0.006976   35.26  0.002855  ( 0.038462  0.017171 -0.032882)
 23:    803.71   0.001462    7.39  0.000568  (-0.012263 -0.011221 -0.017066)
 24:    852.59   0.000028    0.14  0.000010  ( 0.001704  0.002708  0.000367)
 25:    863.39   0.004417   22.32  0.001597  (-0.030227 -0.015644  0.020933)
 26:    879.04   0.006604   33.37  0.002344  (-0.020478 -0.021455 -0.038271)
 27:    984.50   0.000013    0.07  0.000004  ( 0.001751  0.000911  0.000452)
 28:    992.12   0.000445    2.25  0.000140  (-0.006505 -0.001929  0.009693)
 29:   1012.27   0.000327    1.65  0.000101  (-0.006243  0.000717 -0.007833)
 30:   1038.65   0.000531    2.68  0.000159  ( 0.007533  0.006009  0.008164)
 31:   1064.88   0.002696   13.62  0.000790  (-0.000598  0.005846  0.027487)
 32:   1127.36   0.009273   46.86  0.002567  ( 0.023170  0.024401  0.037875)
 33:   1138.11   0.001434    7.25  0.000393  ( 0.010602 -0.016253  0.004085)
 34:   1207.36   0.001132    5.72  0.000293  (-0.007578 -0.008286 -0.012907)
 35:   1236.62   0.000829    4.19  0.000209  (-0.005092 -0.005959 -0.012152)
 36:   1334.52   0.000323    1.63  0.000075  ( 0.002365 -0.008221 -0.001497)
 37:   1355.40   0.002334   11.80  0.000537  ( 0.008646 -0.021501 -0.000655)
 38:   1375.18   0.075122  379.63  0.017047  (-0.059458 -0.060322 -0.099363)
 39:   1417.71   0.000819    4.14  0.000180  ( 0.003936  0.005752  0.011473)
 40:   1442.30   0.000009    0.04  0.000002  ( 0.000384  0.001020 -0.000825)
 41:   1488.44   0.001313    6.63  0.000275  ( 0.008877  0.008023 -0.011490)
 42:   1493.97   0.000685    3.46  0.000143  (-0.009574  0.006300  0.003423)
 43:   1533.33   0.002576   13.02  0.000524  (-0.008963 -0.011873 -0.017406)
 44:   1576.63   0.046466  234.82  0.009197  (-0.047543  0.080517 -0.021302)
 45:   1644.76   0.007672   38.77  0.001456  (-0.018631 -0.015232 -0.029605)
 46:   1646.69   0.008043   40.65  0.001524  ( 0.017732 -0.034153  0.006588)
 47:   3034.15   0.002371   11.98  0.000244  ( 0.004038  0.006532  0.013596)
 48:   3088.26   0.002299   11.62  0.000232  (-0.012537 -0.008438  0.001969)
 49:   3118.11   0.002209   11.16  0.000221  (-0.009765  0.009989 -0.005088)
 50:   3177.38   0.001643    8.30  0.000161  (-0.004083  0.011935  0.001509)
 51:   3179.24   0.001304    6.59  0.000128  (-0.007924  0.001706 -0.007894)
 52:   3228.74   0.000080    0.40  0.000008  ( 0.001455 -0.002257  0.000711)
 53:   3228.81   0.000586    2.96  0.000057  (-0.003556 -0.003285 -0.005759)

* The epsilon (eps) is given for a Dirac delta lineshape.
** The dipole moment derivative (T) already includes vibrational overlap.

The first frequency considered to be a vibration is 8
The total number of vibrations considered is 46


--------------------------
THERMOCHEMISTRY AT 298.15K
--------------------------

Temperature         ... 298.15 K
Pressure            ... 1.00 atm
Total Mass          ... 138.15 AMU

Throughout the following assumptions are being made:
  (1) The electronic state is orbitally nondegenerate
  (2) There are no thermally accessible electronically excited states
  (3) Hindered rotations indicated by low frequency modes are not
      treated as such but are treated as vibrations and this may
      cause some error
  (4) All equations used are the standard statistical mechanics
      equations for an ideal gas
  (5) All vibrations are strictly harmonic

freq.      14.00  E(vib)   ...       0.57 
freq.      14.75  E(vib)   ...       0.57 
freq.      55.58  E(vib)   ...       0.52 
freq.     107.37  E(vib)   ...       0.45 
freq.     222.02  E(vib)   ...       0.33 
freq.     282.80  E(vib)   ...       0.28 
freq.     359.93  E(vib)   ...       0.22 
freq.     363.73  E(vib)   ...       0.22 
freq.     420.61  E(vib)   ...       0.18 
freq.     482.35  E(vib)   ...       0.15 
freq.     535.64  E(vib)   ...       0.12 
freq.     627.75  E(vib)   ...       0.09 
freq.     650.11  E(vib)   ...       0.08 
freq.     706.69  E(vib)   ...       0.07 
freq.     762.42  E(vib)   ...       0.06 
freq.     803.71  E(vib)   ...       0.05 
freq.     852.59  E(vib)   ...       0.04 
freq.     863.39  E(vib)   ...       0.04 
freq.     879.04  E(vib)   ...       0.04 
freq.     984.50  E(vib)   ...       0.02 
freq.     992.12  E(vib)   ...       0.02 
freq.    1012.27  E(vib)   ...       0.02 
freq.    1038.65  E(vib)   ...       0.02 
freq.    1064.88  E(vib)   ...       0.02 
freq.    1127.36  E(vib)   ...       0.01 
freq.    1138.11  E(vib)   ...       0.01 
freq.    1207.36  E(vib)   ...       0.01 
freq.    1236.62  E(vib)   ...       0.01 
freq.    1334.52  E(vib)   ...       0.01 
freq.    1355.40  E(vib)   ...       0.01 
freq.    1375.18  E(vib)   ...       0.01 
freq.    1417.71  E(vib)   ...       0.00 
freq.    1442.30  E(vib)   ...       0.00 
freq.    1488.44  E(vib)   ...       0.00 
freq.    1493.97  E(vib)   ...       0.00 
freq.    1533.33  E(vib)   ...       0.00 
freq.    1576.63  E(vib)   ...       0.00 
freq.    1644.76  E(vib)   ...       0.00 
freq.    1646.69  E(vib)   ...       0.00 
freq.    3034.15  E(vib)   ...       0.00 
freq.    3088.26  E(vib)   ...       0.00 
freq.    3118.11  E(vib)   ...       0.00 
freq.    3177.38  E(vib)   ...       0.00 
freq.    3179.24  E(vib)   ...       0.00 
freq.    3228.74  E(vib)   ...       0.00 
freq.    3228.81  E(vib)   ...       0.00 

------------
INNER ENERGY
------------

The inner energy is: U= E(el) + E(ZPE) + E(vib) + E(rot) + E(trans)
    E(el)   - is the total energy from the electronic structure calculation
              = E(kin-el) + E(nuc-el) + E(el-el) + E(nuc-nuc)
    E(ZPE)  - the the zero temperature vibrational energy from the frequency calculation
    E(vib)  - the the finite temperature correction to E(ZPE) due to population
              of excited vibrational states
    E(rot)  - is the rotational thermal energy
    E(trans)- is the translational thermal energy

Summary of contributions to the inner energy U:
Electronic energy                ...   -476.28871722 Eh
Zero point energy                ...      0.13024276 Eh      81.73 kcal/mol
Thermal vibrational correction   ...      0.00681258 Eh       4.27 kcal/mol
Thermal rotational correction    ...      0.00141627 Eh       0.89 kcal/mol
Thermal translational correction ...      0.00141627 Eh       0.89 kcal/mol
-----------------------------------------------------------------------
Total thermal energy                   -476.14882934 Eh


Summary of corrections to the electronic energy:
(perhaps to be used in another calculation)
Total thermal correction                  0.00964512 Eh       6.05 kcal/mol
Non-thermal (ZPE) correction              0.13024276 Eh      81.73 kcal/mol
-----------------------------------------------------------------------
Total correction                          0.13988788 Eh      87.78 kcal/mol


--------
ENTHALPY
--------

The enthalpy is H = U + kB*T
                kB is Boltzmann's constant
Total free energy                 ...   -476.14882934 Eh 
Thermal Enthalpy correction       ...      0.00094421 Eh       0.59 kcal/mol
-----------------------------------------------------------------------
Total Enthalpy                    ...   -476.14788513 Eh


Note: Only C1 symmetry has been detected, increase convergence thresholds 
      if your molecule has a higher symmetry. Symmetry factor of 1.0 is   
      used for the rotational entropy correction. 
 

Note: Rotational entropy computed according to Herzberg 
Infrared and Raman Spectra, Chapter V,1, Van Nostrand Reinhold, 1945 
Point Group:  C1, Symmetry Number:   1  
Rotational constants in cm-1:     0.122773     0.018964     0.016572 

Vibrational entropy computed according to the QRRHO of S. Grimme
Chem.Eur.J. 2012 18 9955


-------
ENTROPY
-------

The entropy contributions are T*S = T*(S(el)+S(vib)+S(rot)+S(trans))
     S(el)   - electronic entropy
     S(vib)  - vibrational entropy
     S(rot)  - rotational entropy
     S(trans)- translational entropy
The entropies will be listed as multiplied by the temperature to get
units of energy

Electronic entropy                ...      0.00000000 Eh      0.00 kcal/mol
Vibrational entropy               ...      0.01275610 Eh      8.00 kcal/mol
Rotational entropy                ...      0.01430850 Eh      8.98 kcal/mol
Translational entropy             ...      0.01932890 Eh     12.13 kcal/mol
-----------------------------------------------------------------------
Final entropy term                ...      0.04639349 Eh     29.11 kcal/mol

In case the symmetry of your molecule has not been determined correctly
or in case you have a reason to use a different symmetry number we print 
out the resulting rotational entropy values for sn=1,12 :
 --------------------------------------------------------
|  sn= 1 | S(rot)=       0.01430850 Eh      8.98 kcal/mol|
|  sn= 2 | S(rot)=       0.01365404 Eh      8.57 kcal/mol|
|  sn= 3 | S(rot)=       0.01327121 Eh      8.33 kcal/mol|
|  sn= 4 | S(rot)=       0.01299958 Eh      8.16 kcal/mol|
|  sn= 5 | S(rot)=       0.01278890 Eh      8.03 kcal/mol|
|  sn= 6 | S(rot)=       0.01261675 Eh      7.92 kcal/mol|
|  sn= 7 | S(rot)=       0.01247120 Eh      7.83 kcal/mol|
|  sn= 8 | S(rot)=       0.01234513 Eh      7.75 kcal/mol|
|  sn= 9 | S(rot)=       0.01223392 Eh      7.68 kcal/mol|
|  sn=10 | S(rot)=       0.01213444 Eh      7.61 kcal/mol|
|  sn=11 | S(rot)=       0.01204445 Eh      7.56 kcal/mol|
|  sn=12 | S(rot)=       0.01196229 Eh      7.51 kcal/mol|
 --------------------------------------------------------


-------------------
GIBBS FREE ENERGY
-------------------

The Gibbs free energy is G = H - T*S

Total enthalpy                    ...   -476.14788513 Eh 
Total entropy correction          ...     -0.04639349 Eh    -29.11 kcal/mol
-----------------------------------------------------------------------
Final Gibbs free energy         ...   -476.19427862 Eh

For completeness - the Gibbs free energy minus the electronic energy
G-E(el)                           ...      0.09443860 Eh     59.26 kcal/mol


Timings for individual modules:

Sum of individual times         ...     9260.498 sec (= 154.342 min)
GTO integral calculation        ...        4.718 sec (=   0.079 min)   0.1 %
SCF iterations                  ...     1558.605 sec (=  25.977 min)  16.8 %
SCF Gradient evaluation         ...      218.957 sec (=   3.649 min)   2.4 %
Geometry relaxation             ...        0.448 sec (=   0.007 min)   0.0 %
Analytical frequency calculation...     7477.770 sec (= 124.629 min)  80.7 %
                             ****ORCA TERMINATED NORMALLY****
TOTAL RUN TIME: 0 days 2 hours 34 minutes 22 seconds 683 msec
