
                                 *****************
                                 * O   R   C   A *
                                 *****************

                                            #,                                       
                                            ###                                      
                                            ####                                     
                                            #####                                    
                                            ######                                   
                                           ########,                                 
                                     ,,################,,,,,                         
                               ,,#################################,,                 
                          ,,##########################################,,             
                       ,#########################################, ''#####,          
                    ,#############################################,,   '####,        
                  ,##################################################,,,,####,       
                ,###########''''           ''''###############################       
              ,#####''   ,,,,##########,,,,          '''####'''          '####       
            ,##' ,,,,###########################,,,                        '##       
           ' ,,###''''                  '''############,,,                           
         ,,##''                                '''############,,,,        ,,,,,,###''
      ,#''                                            '''#######################'''  
     '                                                          ''''####''''         
             ,#######,   #######,   ,#######,      ##                                
            ,#'     '#,  ##    ##  ,#'     '#,    #''#        ######   ,####,        
            ##       ##  ##   ,#'  ##            #'  '#       #        #'  '#        
            ##       ##  #######   ##           ,######,      #####,   #    #        
            '#,     ,#'  ##    ##  '#,     ,#' ,#      #,         ##   #,  ,#        
             '#######'   ##     ##  '#######'  #'      '#     #####' # '####'        



                  #######################################################
                  #                        -***-                        #
                  #          Department of theory and spectroscopy      #
                  #    Directorship and core code : Frank Neese         #
                  #        Max Planck Institute fuer Kohlenforschung    #
                  #                Kaiser Wilhelm Platz 1               #
                  #                 D-45470 Muelheim/Ruhr               #
                  #                      Germany                        #
                  #                                                     #
                  #                  All rights reserved                #
                  #                        -***-                        #
                  #######################################################



                         Program Version 5.0.4 -  RELEASE  -

 With contributions from (in alphabetic order):
   Daniel Aravena         : Magnetic Suceptibility
   Michael Atanasov       : Ab Initio Ligand Field Theory (pilot matlab implementation)
   Alexander A. Auer      : GIAO ZORA, VPT2 properties, NMR spectrum
   Ute Becker             : Parallelization
   Giovanni Bistoni       : ED, misc. LED, open-shell LED, HFLD
   Martin Brehm           : Molecular dynamics
   Dmytro Bykov           : SCF Hessian
   Vijay G. Chilkuri      : MRCI spin determinant printing, contributions to CSF-ICE
   Dipayan Datta          : RHF DLPNO-CCSD density
   Achintya Kumar Dutta   : EOM-CC, STEOM-CC
   Dmitry Ganyushin       : Spin-Orbit,Spin-Spin,Magnetic field MRCI
   Miquel Garcia          : C-PCM and meta-GGA Hessian, CC/C-PCM, Gaussian charge scheme
   Yang Guo               : DLPNO-NEVPT2, F12-NEVPT2, CIM, IAO-localization
   Andreas Hansen         : Spin unrestricted coupled pair/coupled cluster methods
   Benjamin Helmich-Paris : MC-RPA, TRAH-SCF, COSX integrals
   Lee Huntington         : MR-EOM, pCC
   Robert Izsak           : Overlap fitted RIJCOSX, COSX-SCS-MP3, EOM
   Marcus Kettner         : VPT2
   Christian Kollmar      : KDIIS, OOCD, Brueckner-CCSD(T), CCSD density, CASPT2, CASPT2-K
   Simone Kossmann        : Meta GGA functionals, TD-DFT gradient, OOMP2, MP2 Hessian
   Martin Krupicka        : Initial AUTO-CI
   Lucas Lang             : DCDCAS
   Marvin Lechner         : AUTO-CI (C++ implementation), FIC-MRCC
   Dagmar Lenk            : GEPOL surface, SMD
   Dimitrios Liakos       : Extrapolation schemes; Compound Job, initial MDCI parallelization
   Dimitrios Manganas     : Further ROCIS development; embedding schemes
   Dimitrios Pantazis     : SARC Basis sets
   Anastasios Papadopoulos: AUTO-CI, single reference methods and gradients
   Taras Petrenko         : DFT Hessian,TD-DFT gradient, ASA, ECA, R-Raman, ABS, FL, XAS/XES, NRVS
   Peter Pinski           : DLPNO-MP2, DLPNO-MP2 Gradient
   Christoph Reimann      : Effective Core Potentials
   Marius Retegan         : Local ZFS, SOC
   Christoph Riplinger    : Optimizer, TS searches, QM/MM, DLPNO-CCSD(T), (RO)-DLPNO pert. Triples
   Tobias Risthaus        : Range-separated hybrids, TD-DFT gradient, RPA, STAB
   Michael Roemelt        : Original ROCIS implementation
   Masaaki Saitow         : Open-shell DLPNO-CCSD energy and density
   Barbara Sandhoefer     : DKH picture change effects
   Avijit Sen             : IP-ROCIS
   Kantharuban Sivalingam : CASSCF convergence, NEVPT2, FIC-MRCI
   Bernardo de Souza      : ESD, SOC TD-DFT
   Georgi Stoychev        : AutoAux, RI-MP2 NMR, DLPNO-MP2 response
   Willem Van den Heuvel  : Paramagnetic NMR
   Boris Wezisla          : Elementary symmetry handling
   Frank Wennmohs         : Technical directorship


 We gratefully acknowledge several colleagues who have allowed us to
 interface, adapt or use parts of their codes:
   Stefan Grimme, W. Hujo, H. Kruse, P. Pracht,  : VdW corrections, initial TS optimization,
                  C. Bannwarth, S. Ehlert          DFT functionals, gCP, sTDA/sTD-DF
   Ed Valeev, F. Pavosevic, A. Kumar             : LibInt (2-el integral package), F12 methods
   Garnet Chan, S. Sharma, J. Yang, R. Olivares  : DMRG
   Ulf Ekstrom                                   : XCFun DFT Library
   Mihaly Kallay                                 : mrcc  (arbitrary order and MRCC methods)
   Jiri Pittner, Ondrej Demel                    : Mk-CCSD
   Frank Weinhold                                : gennbo (NPA and NBO analysis)
   Christopher J. Cramer and Donald G. Truhlar   : smd solvation model
   Lars Goerigk                                  : TD-DFT with DH, B97 family of functionals
   V. Asgeirsson, H. Jonsson                     : NEB implementation
   FAccTs GmbH                                   : IRC, NEB, NEB-TS, DLPNO-Multilevel, CI-OPT
                                                   MM, QMMM, 2- and 3-layer-ONIOM, Crystal-QMMM,
                                                   LR-CPCM, SF, NACMEs, symmetry and pop. for TD-DFT,
                                                   nearIR, NL-DFT gradient (VV10), updates on ESD,
                                                   ML-optimized integration grids
   S Lehtola, MJT Oliveira, MAL Marques          : LibXC Library
   Liviu Ungur et al                             : ANISO software


 Your calculation uses the libint2 library for the computation of 2-el integrals
 For citations please refer to: http://libint.valeyev.net

 Your ORCA version has been built with support for libXC version: 5.1.0
 For citations please refer to: https://tddft.org/programs/libxc/

 This ORCA versions uses:
   CBLAS   interface :  Fast vector & matrix operations
   LAPACKE interface :  Fast linear algebra routines
   Shared memory     :  Shared parallel matrices


================================================================================

----- Orbital basis set information -----
Your calculation utilizes the basis: 6-31G
   H-He, Li-Ne : W. J. Hehre, R. Ditchfield and J.A. Pople, J. Chem. Phys. 56, 2257 (1972).
                 Note: He and Ne are unpublished basis sets taken from the Gaussian program.
                 Note: Li and B from J. D. Dill and J. A. Pople, J. Chem. Phys. 62, 2921 (1975).
   Na - Ar     : M. M. Francl, W. J. Pietro, W. J. Hehre, J. S. Binkley, M. S. Gordon, 
                 D. J. DeFrees and J. A. Pople, J. Chem. Phys. 77, 3654 (1982).
   K - Zn      : V. A. Rassolov, J. A. Pople, M. A. Ratner, and T. L. Windus, J. Chem. Phys. 109, 1223 (1998).

================================================================================
                                        WARNINGS
                       Please study these warnings very carefully!
================================================================================


WARNING: Gradients are needed
  ===> : At least TightSCF should be used for SCF convergence

WARNING: The frozen-core approximation for MP2-gradient calculations is turned on by default.

WARNING: Geometry Optimization
  ===> : Switching off AutoStart
         For restart on a previous wavefunction, please use MOREAD

WARNING: Post HF methods need fully converged wavefunctions
  ===> : Setting SCFConvForced true
         You can overwrite this default with %scf ConvForced false 


INFO   : the flag for use of the SHARK integral package has been found!

================================================================================
                                       INPUT FILE
================================================================================
NAME = produtcs_opt.inp
|  1> !MP2 6-31G COPT NUMFREQ SOSCF TIGHTSCF
|  2> 
|  3> %scf
|  4> maxIter 500
|  5> convergence loose
|  6> end
|  7> 
|  8> %geom
|  9> maxIter 2000
| 10> convergence loose
| 11> end
| 12> 
| 13> * xyz 1 1
| 14>   C   -3.20102000000000      2.61416000000000     -0.88321000000000
| 15>   C   -4.33831000000000      1.81781000000000     -1.20132000000000
| 16>   C   -4.16481000000000      0.67999000000000     -1.94570000000000
| 17>   C   -2.90791000000000      0.27299000000000     -2.41562000000000
| 18>   C   -1.78185000000000      1.05882000000000     -2.10948000000000
| 19>   C   -1.92736000000000      2.19974000000000     -1.34732000000000
| 20>   C   -3.37707000000000      3.85078000000000     -0.08242000000000
| 21>   H   -2.82053000000000     -0.63567000000000     -2.99403000000000
| 22>   H   -5.32258000000000      2.10248000000000     -0.85213000000000
| 23>   H   -2.41818000000000      4.29649000000000      0.18650000000000
| 24>   H   -3.92782000000000      3.65638000000000      0.84469000000000
| 25>   H   -3.94495000000000      4.60609000000000     -0.63560000000000
| 26>   H   -1.06267000000000      2.80352000000000     -1.09742000000000
| 27>   H   -0.80714000000000      0.75105000000000     -2.46862000000000
| 28>   N   -5.33525000000000     -0.18868000000000     -2.22017000000000
| 29>   O   -5.08988000000000     -1.30597000000000     -2.64712000000000
| 30>   O   -6.43793000000000      0.26548000000000     -1.98332000000000
| 31>   H   -14.91699000000000     -0.92146000000000      7.41375000000000
| 32> *
| 33> 
| 34>                          ****END OF INPUT****
================================================================================

                       *****************************
                       * Geometry Optimization Run *
                       *****************************

Geometry optimization settings:
Update method            Update   .... BFGS
Choice of coordinates    CoordSys .... Cartesian
Initial Hessian          InHess   .... Unit Matrix

Convergence Tolerances:
Energy Change            TolE     ....  3.0000e-05 Eh
Max. Gradient            TolMAXG  ....  2.0000e-03 Eh/bohr
RMS Gradient             TolRMSG  ....  5.0000e-04 Eh/bohr
Max. Displacement        TolMAXD  ....  1.0000e-02 bohr
RMS Displacement         TolRMSD  ....  7.0000e-03 bohr
Strict Convergence                ....  False
------------------------------------------------------------------------------
                        ORCA OPTIMIZATION COORDINATE SETUP
------------------------------------------------------------------------------

The optimization will be done in cartesian displacement coordinates
Initial hessian                         ....done
Number of atoms                         .... 18
Number of degrees of freedom            .... 54

         *************************************************************
         *                GEOMETRY OPTIMIZATION CYCLE   1            *
         *************************************************************
---------------------------------
CARTESIAN COORDINATES (ANGSTROEM)
---------------------------------
  C     -3.201020    2.614160   -0.883210
  C     -4.338310    1.817810   -1.201320
  C     -4.164810    0.679990   -1.945700
  C     -2.907910    0.272990   -2.415620
  C     -1.781850    1.058820   -2.109480
  C     -1.927360    2.199740   -1.347320
  C     -3.377070    3.850780   -0.082420
  H     -2.820530   -0.635670   -2.994030
  H     -5.322580    2.102480   -0.852130
  H     -2.418180    4.296490    0.186500
  H     -3.927820    3.656380    0.844690
  H     -3.944950    4.606090   -0.635600
  H     -1.062670    2.803520   -1.097420
  H     -0.807140    0.751050   -2.468620
  N     -5.335250   -0.188680   -2.220170
  O     -5.089880   -1.305970   -2.647120
  O     -6.437930    0.265480   -1.983320
  H    -14.916990   -0.921460    7.413750

----------------------------
CARTESIAN COORDINATES (A.U.)
----------------------------
  NO LB      ZA    FRAG     MASS         X           Y           Z
   0 C     6.0000    0    12.011   -6.049051    4.940046   -1.669025
   1 C     6.0000    0    12.011   -8.198218    3.435163   -2.270166
   2 C     6.0000    0    12.011   -7.870350    1.284995   -3.676840
   3 C     6.0000    0    12.011   -5.495154    0.515876   -4.564860
   4 C     6.0000    0    12.011   -3.367209    2.000880   -3.986339
   5 C     6.0000    0    12.011   -3.642183    4.156906   -2.546066
   6 C     6.0000    0    12.011   -6.381737    7.276920   -0.155751
   7 H     1.0000    0     1.008   -5.330029   -1.201242   -5.657897
   8 H     1.0000    0     1.008  -10.058219    3.973111   -1.610292
   9 H     1.0000    0     1.008   -4.569698    8.119189    0.352434
  10 H     1.0000    0     1.008   -7.422504    6.909557    1.596233
  11 H     1.0000    0     1.008   -7.454875    8.704249   -1.201110
  12 H     1.0000    0     1.008   -2.008155    5.297885   -2.073823
  13 H     1.0000    0     1.008   -1.525274    1.419279   -4.665016
  14 N     7.0000    0    14.007  -10.082161   -0.356554   -4.195513
  15 O     8.0000    0    15.999   -9.618479   -2.467926   -5.002332
  16 O     8.0000    0    15.999  -12.165925    0.501684   -3.747932
  17 H     1.0000    0     1.008  -28.189026   -1.741307   14.009957

--------------------------------
INTERNAL COORDINATES (ANGSTROEM)
--------------------------------
 C      0   0   0     0.000000000000     0.00000000     0.00000000
 C      1   0   0     1.424358044419     0.00000000     0.00000000
 C      2   1   0     1.370707184923   118.96800557     0.00000000
 C      3   2   1     1.402238002766   122.43792347   359.55040118
 C      4   3   2     1.406862328766   118.84204487     0.17115454
 C      5   4   3     1.379767905157   119.84579613     0.65811651
 C      1   2   3     1.483740964926   119.45716111   179.76910362
 H      4   3   2     1.080674043410   119.72871640   179.62508024
 H      2   1   3     1.082477758617   120.46040631   179.41765353
 H      7   1   2     1.091075342311   111.66711728   173.25008995
 H      7   1   2     1.095741700676   111.61839525    52.50390995
 H      7   1   2     1.094983562845   111.33261746   293.25005308
 H      6   5   4     1.083830749933   120.25648646   179.25783938
 H      5   4   3     1.083403662815   119.29410720   179.98409995
 N      3   2   1     1.483189517021   119.12902940   176.88998971
 O     15   3   2     1.220995365880   116.23518329   194.15812282
 O     15   3   2     1.215838151441   117.44333435    13.11631800
 H     17  15   3    12.712521765256   135.56383515   259.31892508

---------------------------
INTERNAL COORDINATES (A.U.)
---------------------------
 C      0   0   0     0.000000000000     0.00000000     0.00000000
 C      1   0   0     2.691646620599     0.00000000     0.00000000
 C      2   1   0     2.590261189303   118.96800557     0.00000000
 C      3   2   1     2.649845799804   122.43792347   359.55040118
 C      4   3   2     2.658584509498   118.84204487     0.17115454
 C      5   4   3     2.607383469120   119.84579613     0.65811651
 C      1   2   3     2.803864077390   119.45716111   179.76910362
 H      4   3   2     2.042177982082   119.72871640   179.62508024
 H      2   1   3     2.045586509847   120.46040631   179.41765353
 H      7   1   2     2.061833588443   111.66711728   173.25008995
 H      7   1   2     2.070651727794   111.61839525    52.50390995
 H      7   1   2     2.069219054922   111.33261746   293.25005308
 H      6   5   4     2.048143292896   120.25648646   179.25783938
 H      5   4   3     2.047336215207   119.29410720   179.98409995
 N      3   2   1     2.802821991872   119.12902940   176.88998971
 O     15   3   2     2.307346852300   116.23518329   194.15812282
 O     15   3   2     2.297601129397   117.44333435    13.11631800
 H     17  15   3    24.023184607846   135.56383515   259.31892508

---------------------
BASIS SET INFORMATION
---------------------
There are 4 groups of distinct atoms

 Group   1 Type C   : 10s4p contracted to 3s2p pattern {631/31}
 Group   2 Type H   : 4s contracted to 2s pattern {31}
 Group   3 Type N   : 10s4p contracted to 3s2p pattern {631/31}
 Group   4 Type O   : 10s4p contracted to 3s2p pattern {631/31}

Atom   0C    basis set group =>   1
Atom   1C    basis set group =>   1
Atom   2C    basis set group =>   1
Atom   3C    basis set group =>   1
Atom   4C    basis set group =>   1
Atom   5C    basis set group =>   1
Atom   6C    basis set group =>   1
Atom   7H    basis set group =>   2
Atom   8H    basis set group =>   2
Atom   9H    basis set group =>   2
Atom  10H    basis set group =>   2
Atom  11H    basis set group =>   2
Atom  12H    basis set group =>   2
Atom  13H    basis set group =>   2
Atom  14N    basis set group =>   3
Atom  15O    basis set group =>   4
Atom  16O    basis set group =>   4
Atom  17H    basis set group =>   2
------------------------------------------------------------------------------
                           ORCA GTO INTEGRAL CALCULATION
------------------------------------------------------------------------------
------------------------------------------------------------------------------
                   ___                                                        
                  /   \      - P O W E R E D   B Y -                         
                 /     \                                                     
                 |  |  |   _    _      __       _____    __    __             
                 |  |  |  | |  | |    /  \     |  _  \  |  |  /  |          
                  \  \/   | |  | |   /    \    | | | |  |  | /  /          
                 / \  \   | |__| |  /  /\  \   | |_| |  |  |/  /          
                |  |  |   |  __  | /  /__\  \  |    /   |      \           
                |  |  |   | |  | | |   __   |  |    \   |  |\   \          
                \     /   | |  | | |  |  |  |  | |\  \  |  | \   \       
                 \___/    |_|  |_| |__|  |__|  |_| \__\ |__|  \__/        
                                                                              
                      - O R C A' S   B I G   F R I E N D -                    
                                      &                                       
                       - I N T E G R A L  F E E D E R -                       
                                                                              
 v1 FN, 2020, v2 2021                                                         
------------------------------------------------------------------------------


Reading SHARK input file produtcs_opt.SHARKINP.tmp ... ok
----------------------
SHARK INTEGRAL PACKAGE
----------------------

Number of atoms                             ...     18
Number of basis functions                   ...    106
Number of shells                            ...     66
Maximum angular momentum                    ...      1
Integral batch strategy                     ... SHARK/LIBINT Hybrid
RI-J (if used) integral strategy            ... SPLIT-RIJ (Revised 2003 algorithm where possible)
Printlevel                                  ...      1
Contraction scheme used                     ... SEGMENTED contraction
Coulomb Range Separation                    ... NOT USED
Exchange Range Separation                   ... NOT USED
Finite Nucleus Model                        ... NOT USED
Auxiliary Coulomb fitting basis             ... NOT available
Auxiliary J/K fitting basis                 ... NOT available
Auxiliary Correlation fitting basis         ... NOT available
Auxiliary 'external' fitting basis          ... NOT available
Integral threshold                          ...     1.000000e-09
Primitive cut-off                           ...     1.000000e-10
Primitive pair pre-selection threshold      ...     1.000000e-10

Calculating pre-screening integrals         ... done (  0.1 sec) Dimension = 66
Organizing shell pair data                  ... done (  0.1 sec)
Shell pair information
Total number of shell pairs                 ...      2211
Shell pairs after pre-screening             ...      1851
Total number of primitive shell pairs       ...     15112
Primitive shell pairs kept                  ...      7736
          la=0 lb=0:    835 shell pairs
          la=1 lb=0:    813 shell pairs
          la=1 lb=1:    203 shell pairs

Calculating one electron integrals          ... done (  0.0 sec)
Calculating Nuclear repulsion               ... done (  0.0 sec) ENN=    497.287510118499 Eh

SHARK setup successfully completed in   0.3 seconds

Maximum memory used throughout the entire GTOINT-calculation: 8.7 MB
-------------------------------------------------------------------------------
                                 ORCA SCF
-------------------------------------------------------------------------------

------------
SCF SETTINGS
------------
Hamiltonian:
 Ab initio Hamiltonian  Method          .... Hartree-Fock(GTOs)


General Settings:
 Integral files         IntName         .... produtcs_opt
 Hartree-Fock type      HFTyp           .... RHF
 Total Charge           Charge          ....    1
 Multiplicity           Mult            ....    1
 Number of Electrons    NEL             ....   72
 Basis Dimension        Dim             ....  106
 Nuclear Repulsion      ENuc            ....    497.2875101185 Eh

Convergence Acceleration:
 DIIS                   CNVDIIS         .... on
   Start iteration      DIISMaxIt       ....    12
   Startup error        DIISStart       ....  0.200000
   # of expansion vecs  DIISMaxEq       ....     5
   Bias factor          DIISBfac        ....   1.050
   Max. coefficient     DIISMaxC        ....  10.000
 Trust-Rad. Augm. Hess. CNVTRAH         .... auto
   Auto Start mean grad. ratio tolernc. ....  1.125000
   Auto Start start iteration           ....    20
   Auto Start num. interpolation iter.  ....    10
   Max. Number of Micro iterations      ....    16
   Max. Number of Macro iterations      .... Maxiter - #DIIS iter
   Number of Davidson start vectors     ....     2
   Converg. threshold I  (grad. norm)   ....   1.000e-04
   Converg. threshold II (energy diff.) ....   1.000e-05
   Grad. Scal. Fac. for Micro threshold ....   0.100
   Minimum threshold for Micro iter.    ....   0.010
   NR start threshold (gradient norm)   ....   0.001
   Initial trust radius                 ....   0.400
   Minimum AH scaling param. (alpha)    ....   1.000
   Maximum AH scaling param. (alpha)    .... 1000.000
   Orbital update algorithm             .... Taylor
   White noise on init. David. guess    .... on
   Maximum white noise                  ....   0.010
   Quad. conv. algorithm                .... NR
 SOSCF                  CNVSOSCF        .... on
   Start iteration      SOSCFMaxIt      ....   150
   Startup grad/error   SOSCFStart      ....  0.003300
 Level Shifting         CNVShift        .... on
   Level shift para.    LevelShift      ....    0.2500
   Turn off err/grad.   ShiftErr        ....    0.0010
 Zerner damping         CNVZerner       .... off
 Static damping         CNVDamp         .... on
   Fraction old density DampFac         ....    0.7000
   Max. Damping (<1)    DampMax         ....    0.9800
   Min. Damping (>=0)   DampMin         ....    0.0000
   Turn off err/grad.   DampErr         ....    0.1000
 Fernandez-Rico         CNVRico         .... off

SCF Procedure:
 Maximum # iterations   MaxIter         ....   500
 SCF integral mode      SCFMode         .... Direct
   Integral package                     .... SHARK and LIBINT hybrid scheme
 Reset frequency        DirectResetFreq ....    20
 Integral Threshold     Thresh          ....  1.000e-09 Eh
 Primitive CutOff       TCut            ....  1.000e-10 Eh

Convergence Tolerance:
 Convergence Check Mode ConvCheckMode   .... Total+1el-Energy
 Convergence forced     ConvForced      .... 1
 Energy Change          TolE            ....  1.000e-05 Eh
 1-El. energy change                    ....  1.000e-02 Eh
 Orbital Gradient       TolG            ....  1.000e-04
 Orbital Rotation angle TolX            ....  1.000e-04
 DIIS Error             TolErr          ....  5.000e-04


Diagonalization of the overlap matrix:
Smallest eigenvalue                        ... 6.045e-04
Time for diagonalization                   ...    0.008 sec
Threshold for overlap eigenvalues          ... 1.000e-08
Number of eigenvalues below threshold      ... 0
Time for construction of square roots      ...    0.004 sec
Total time needed                          ...    0.012 sec

Time for model grid setup =    1.141 sec

------------------------------
INITIAL GUESS: MODEL POTENTIAL
------------------------------
Loading Hartree-Fock densities                     ... done
Calculating cut-offs                               ... done
Initializing the effective Hamiltonian             ... done
Setting up the integral package (SHARK)            ... done
Starting the Coulomb interaction                   ... done (   0.7 sec)
Reading the grid                                   ... done
Mapping shells                                     ... done
Starting the XC term evaluation                    ... done (   0.5 sec)
Transforming the Hamiltonian                       ... done (   0.0 sec)
Diagonalizing the Hamiltonian                      ... done (   0.0 sec)
Back transforming the eigenvectors                 ... done (   0.0 sec)
Now organizing SCF variables                       ... done
                      ------------------
                      INITIAL GUESS DONE (   2.4 sec)
                      ------------------
--------------
SCF ITERATIONS
--------------
ITER       Energy         Delta-E        Max-DP      RMS-DP      [F,P]     Damp
               ***  Starting incremental Fock matrix formation  ***
  0   -472.6514556724   0.000000000000 0.07990891  0.00391856  0.1972123 0.7000
  1   -472.7756138714  -0.124158199015 0.05039439  0.00296352  0.1253254 0.7000
                               ***Turning on DIIS***
  2   -472.8476993964  -0.072085524954 0.09103309  0.00657550  0.0753219 0.0000
  3   -472.4228161730   0.424883223361 0.04313003  0.00186324  0.0433456 0.0000
  4   -472.9841520212  -0.561335848177 0.00758920  0.00058476  0.0113008 0.0000
  5   -472.9972240507  -0.013072029552 0.00559604  0.00032810  0.0044904 0.0000
                      *** Initiating the SOSCF procedure ***
                           *** Shutting down DIIS ***
                      *** Re-Reading the Fockian *** 
                      *** Removing any level shift *** 
ITER      Energy       Delta-E        Grad      Rot      Max-DP    RMS-DP
  6   -472.98491930   0.0123047539  0.001736  0.001736  0.003174  0.000171
               *** Restarting incremental Fock matrix formation ***
  7   -472.99525691  -0.0103376090  0.000728  0.001426  0.000788  0.000056
  8   -472.99526880  -0.0000118923  0.000402  0.002270  0.001156  0.000078
                 **** Energy Check signals convergence ****
              ***Rediagonalizing the Fockian in SOSCF/NRSCF***

               *****************************************************
               *                     SUCCESS                       *
               *           SCF CONVERGED AFTER   9 CYCLES          *
               *****************************************************


----------------
TOTAL SCF ENERGY
----------------

Total Energy       :         -472.99527505 Eh          -12870.85578 eV

Components:
Nuclear Repulsion  :          497.28751012 Eh           13531.88110 eV
Electronic Energy  :         -970.28278517 Eh          -26402.73687 eV
One Electron Energy:        -1626.25933404 Eh          -44252.76625 eV
Two Electron Energy:          655.97654887 Eh           17850.02937 eV

Virial components:
Potential Energy   :         -946.17202723 Eh          -25746.64980 eV
Kinetic Energy     :          473.17675218 Eh           12875.79402 eV
Virial Ratio       :            1.99961647


---------------
SCF CONVERGENCE
---------------

  Last Energy change         ...   -6.2527e-06  Tolerance :   1.0000e-05
  Last MAX-Density change    ...    4.1339e-04  Tolerance :   1.0000e-03
  Last RMS-Density change    ...    1.5583e-05  Tolerance :   1.0000e-04
  Last Orbital Gradient      ...    1.4136e-04  Tolerance :   1.0000e-04
  Last Orbital Rotation      ...    3.4722e-04  Tolerance :   1.0000e-04

             **** THE GBW FILE WAS UPDATED (produtcs_opt.gbw) ****
             **** DENSITY produtcs_opt.scfp WAS UPDATED ****
             **** ENERGY FILE WAS UPDATED (produtcs_opt.en.tmp) ****
             **** THE GBW FILE WAS UPDATED (produtcs_opt.gbw) ****
             **** DENSITY produtcs_opt.scfp WAS UPDATED ****
----------------
ORBITAL ENERGIES
----------------

  NO   OCC          E(Eh)            E(eV) 
   0   2.0000     -20.654592      -562.0400 
   1   2.0000     -20.653413      -562.0080 
   2   2.0000     -15.892748      -432.4637 
   3   2.0000     -11.357112      -309.0427 
   4   2.0000     -11.319512      -308.0196 
   5   2.0000     -11.315008      -307.8970 
   6   2.0000     -11.314805      -307.8915 
   7   2.0000     -11.308256      -307.7133 
   8   2.0000     -11.305933      -307.6501 
   9   2.0000     -11.281292      -306.9796 
  10   2.0000      -1.678557       -45.6758 
  11   2.0000      -1.466541       -39.9066 
  12   2.0000      -1.240346       -33.7515 
  13   2.0000      -1.142510       -31.0893 
  14   2.0000      -1.106865       -30.1193 
  15   2.0000      -1.010063       -27.4852 
  16   2.0000      -0.993231       -27.0272 
  17   2.0000      -0.886672       -24.1276 
  18   2.0000      -0.854483       -23.2517 
  19   2.0000      -0.808369       -21.9968 
  20   2.0000      -0.771124       -20.9834 
  21   2.0000      -0.760136       -20.6844 
  22   2.0000      -0.742657       -20.2087 
  23   2.0000      -0.703400       -19.1405 
  24   2.0000      -0.676911       -18.4197 
  25   2.0000      -0.638706       -17.3801 
  26   2.0000      -0.634344       -17.2614 
  27   2.0000      -0.600551       -16.3418 
  28   2.0000      -0.578457       -15.7406 
  29   2.0000      -0.559017       -15.2116 
  30   2.0000      -0.556543       -15.1443 
  31   2.0000      -0.534609       -14.5475 
  32   2.0000      -0.522345       -14.2137 
  33   2.0000      -0.483638       -13.1605 
  34   2.0000      -0.416286       -11.3277 
  35   2.0000      -0.384017       -10.4496 
  36   0.0000      -0.496697       -13.5158 
  37   0.0000       0.008056         0.2192 
  38   0.0000       0.072494         1.9727 
  39   0.0000       0.121015         3.2930 
  40   0.0000       0.183302         4.9879 
  41   0.0000       0.209754         5.7077 
  42   0.0000       0.231758         6.3065 
  43   0.0000       0.254389         6.9223 
  44   0.0000       0.259383         7.0582 
  45   0.0000       0.273739         7.4488 
  46   0.0000       0.294100         8.0029 
  47   0.0000       0.321545         8.7497 
  48   0.0000       0.328525         8.9396 
  49   0.0000       0.354972         9.6593 
  50   0.0000       0.408385        11.1127 
  51   0.0000       0.438894        11.9429 
  52   0.0000       0.440265        11.9802 
  53   0.0000       0.462471        12.5845 
  54   0.0000       0.463566        12.6143 
  55   0.0000       0.480999        13.0887 
  56   0.0000       0.563299        15.3281 
  57   0.0000       0.610115        16.6021 
  58   0.0000       0.671365        18.2688 
  59   0.0000       0.678454        18.4617 
  60   0.0000       0.703659        19.1475 
  61   0.0000       0.721893        19.6437 
  62   0.0000       0.737446        20.0669 
  63   0.0000       0.767873        20.8949 
  64   0.0000       0.785804        21.3828 
  65   0.0000       0.795256        21.6400 
  66   0.0000       0.807275        21.9671 
  67   0.0000       0.819566        22.3015 
  68   0.0000       0.830816        22.6076 
  69   0.0000       0.853103        23.2141 
  70   0.0000       0.855782        23.2870 
  71   0.0000       0.887416        24.1478 
  72   0.0000       0.920562        25.0498 
  73   0.0000       0.941872        25.6297 
  74   0.0000       0.952118        25.9085 
  75   0.0000       0.977717        26.6050 
  76   0.0000       0.985893        26.8275 
  77   0.0000       1.062611        28.9151 
  78   0.0000       1.071340        29.1526 
  79   0.0000       1.080488        29.4016 
  80   0.0000       1.108570        30.1657 
  81   0.0000       1.122208        30.5368 
  82   0.0000       1.128605        30.7109 
  83   0.0000       1.154761        31.4227 
  84   0.0000       1.182392        32.1745 
  85   0.0000       1.187773        32.3210 
  86   0.0000       1.199826        32.6489 
  87   0.0000       1.215396        33.0726 
  88   0.0000       1.223758        33.3001 
  89   0.0000       1.240884        33.7662 
  90   0.0000       1.258618        34.2487 
  91   0.0000       1.300351        35.3844 
  92   0.0000       1.317376        35.8476 
  93   0.0000       1.324792        36.0494 
  94   0.0000       1.361291        37.0426 
  95   0.0000       1.400376        38.1062 
  96   0.0000       1.419410        38.6241 
  97   0.0000       1.476286        40.1718 
  98   0.0000       1.569627        42.7117 
  99   0.0000       1.598269        43.4911 
 100   0.0000       1.656935        45.0875 
 101   0.0000       1.692835        46.0644 
 102   0.0000       1.825086        49.6631 
 103   0.0000       1.919324        52.2274 
 104   0.0000       2.111472        57.4561 
 105   0.0000       2.123282        57.7774 

                    ********************************
                    * MULLIKEN POPULATION ANALYSIS *
                    ********************************

-----------------------
MULLIKEN ATOMIC CHARGES
-----------------------
   0 C :   -0.026128
   1 C :   -0.149404
   2 C :    0.213061
   3 C :   -0.143263
   4 C :   -0.211080
   5 C :   -0.172609
   6 C :   -0.494445
   7 H :    0.275752
   8 H :    0.271502
   9 H :    0.177094
  10 H :    0.177124
  11 H :    0.187859
  12 H :    0.224304
  13 H :    0.229855
  14 N :    0.253079
  15 O :   -0.401845
  16 O :   -0.410855
  17 H :    1.000000
Sum of atomic charges:    1.0000000

--------------------------------
MULLIKEN REDUCED ORBITAL CHARGES
--------------------------------
  0 C s       :     3.162747  s :     3.162747
      pz      :     0.979287  p :     2.863381
      px      :     0.904312
      py      :     0.979782
  1 C s       :     3.146341  s :     3.146341
      pz      :     0.961818  p :     3.003063
      px      :     1.119825
      py      :     0.921420
  2 C s       :     3.105797  s :     3.105797
      pz      :     1.078872  p :     2.681142
      px      :     0.729901
      py      :     0.872369
  3 C s       :     3.159000  s :     3.159000
      pz      :     1.005697  p :     2.984263
      px      :     0.884882
      py      :     1.093685
  4 C s       :     3.189555  s :     3.189555
      pz      :     0.988504  p :     3.021524
      px      :     1.095600
      py      :     0.937420
  5 C s       :     3.174598  s :     3.174598
      pz      :     0.963240  p :     2.998011
      px      :     1.031818
      py      :     1.002954
  6 C s       :     3.378686  s :     3.378686
      pz      :     1.038441  p :     3.115759
      px      :     1.120951
      py      :     0.956368
  7 H s       :     0.724248  s :     0.724248
  8 H s       :     0.728498  s :     0.728498
  9 H s       :     0.822906  s :     0.822906
 10 H s       :     0.822876  s :     0.822876
 11 H s       :     0.812141  s :     0.812141
 12 H s       :     0.775696  s :     0.775696
 13 H s       :     0.770145  s :     0.770145
 14 N s       :     3.478978  s :     3.478978
      pz      :     1.086833  p :     3.267943
      px      :     1.124875
      py      :     1.056235
 15 O s       :     4.031911  s :     4.031911
      pz      :     1.427509  p :     4.369934
      px      :     1.835126
      py      :     1.107299
 16 O s       :     4.031507  s :     4.031507
      pz      :     1.497133  p :     4.379348
      px      :     1.172836
      py      :     1.709379
 17 H s       :     0.000000  s :     0.000000


                     *******************************
                     * LOEWDIN POPULATION ANALYSIS *
                     *******************************

----------------------
LOEWDIN ATOMIC CHARGES
----------------------
   0 C :   -0.020546
   1 C :   -0.094054
   2 C :   -0.016907
   3 C :   -0.089385
   4 C :   -0.112475
   5 C :   -0.096889
   6 C :   -0.300412
   7 H :    0.160648
   8 H :    0.155370
   9 H :    0.120479
  10 H :    0.122368
  11 H :    0.127541
  12 H :    0.133191
  13 H :    0.138737
  14 N :    0.393761
  15 O :   -0.308870
  16 O :   -0.312557
  17 H :    1.000000

-------------------------------
LOEWDIN REDUCED ORBITAL CHARGES
-------------------------------
  0 C s       :     2.911632  s :     2.911632
      pz      :     0.996776  p :     3.108914
      px      :     1.071126
      py      :     1.041012
  1 C s       :     2.937150  s :     2.937150
      pz      :     1.004749  p :     3.156904
      px      :     1.117198
      py      :     1.034957
  2 C s       :     2.909218  s :     2.909218
      pz      :     1.101928  p :     3.107690
      px      :     0.966618
      py      :     1.039143
  3 C s       :     2.941851  s :     2.941851
      pz      :     1.011280  p :     3.147535
      px      :     1.052436
      py      :     1.083819
  4 C s       :     2.937312  s :     2.937312
      pz      :     1.022299  p :     3.175163
      px      :     1.098320
      py      :     1.054543
  5 C s       :     2.942150  s :     2.942150
      pz      :     1.006351  p :     3.154739
      px      :     1.087311
      py      :     1.061077
  6 C s       :     2.972991  s :     2.972991
      pz      :     1.111733  p :     3.327421
      px      :     1.141621
      py      :     1.074067
  7 H s       :     0.839352  s :     0.839352
  8 H s       :     0.844630  s :     0.844630
  9 H s       :     0.879521  s :     0.879521
 10 H s       :     0.877632  s :     0.877632
 11 H s       :     0.872459  s :     0.872459
 12 H s       :     0.866809  s :     0.866809
 13 H s       :     0.861263  s :     0.861263
 14 N s       :     3.125543  s :     3.125543
      pz      :     1.067128  p :     3.480696
      px      :     1.223547
      py      :     1.190021
 15 O s       :     3.680085  s :     3.680085
      pz      :     1.468584  p :     4.628785
      px      :     1.869116
      py      :     1.291085
 16 O s       :     3.675882  s :     3.675882
      pz      :     1.523561  p :     4.636676
      px      :     1.357756
      py      :     1.755359
 17 H s       :     0.000000  s :     0.000000


                      *****************************
                      * MAYER POPULATION ANALYSIS *
                      *****************************

  NA   - Mulliken gross atomic population
  ZA   - Total nuclear charge
  QA   - Mulliken gross atomic charge
  VA   - Mayer's total valence
  BVA  - Mayer's bonded valence
  FA   - Mayer's free valence

  ATOM       NA         ZA         QA         VA         BVA        FA
  0 C      6.0261     6.0000    -0.0261     3.7591     3.7591    -0.0000
  1 C      6.1494     6.0000    -0.1494     3.8306     3.8306    -0.0000
  2 C      5.7869     6.0000     0.2131     3.4213     3.4213    -0.0000
  3 C      6.1433     6.0000    -0.1433     3.8420     3.8420    -0.0000
  4 C      6.2111     6.0000    -0.2111     3.8468     3.8468     0.0000
  5 C      6.1726     6.0000    -0.1726     3.8570     3.8570    -0.0000
  6 C      6.4944     6.0000    -0.4944     3.7627     3.7627    -0.0000
  7 H      0.7242     1.0000     0.2758     0.9080     0.9080     0.0000
  8 H      0.7285     1.0000     0.2715     0.9092     0.9092     0.0000
  9 H      0.8229     1.0000     0.1771     0.9310     0.9310    -0.0000
 10 H      0.8229     1.0000     0.1771     0.9256     0.9256     0.0000
 11 H      0.8121     1.0000     0.1879     0.9207     0.9207     0.0000
 12 H      0.7757     1.0000     0.2243     0.9246     0.9246     0.0000
 13 H      0.7701     1.0000     0.2299     0.9246     0.9246     0.0000
 14 N      6.7469     7.0000     0.2531     3.2556     3.2556    -0.0000
 15 O      8.4018     8.0000    -0.4018     1.5704     1.5704    -0.0000
 16 O      8.4109     8.0000    -0.4109     1.5667     1.5667     0.0000
 17 H      0.0000     1.0000     1.0000     0.0000     0.0000     0.0000

  Mayer bond orders larger than 0.100000
B(  0-C ,  1-C ) :   1.4053 B(  0-C ,  3-C ) :   0.1049 B(  0-C ,  5-C ) :   1.4450 
B(  0-C ,  6-C ) :   0.9195 B(  1-C ,  2-C ) :   1.4373 B(  1-C ,  8-H ) :   0.9068 
B(  2-C ,  3-C ) :   1.4034 B(  2-C , 14-N ) :   0.5573 B(  3-C ,  4-C ) :   1.4441 
B(  3-C ,  7-H ) :   0.9041 B(  4-C ,  5-C ) :   1.4322 B(  4-C , 13-H ) :   0.9293 
B(  5-C , 12-H ) :   0.9335 B(  6-C ,  9-H ) :   0.9601 B(  6-C , 10-H ) :   0.9516 
B(  6-C , 11-H ) :   0.9450 B( 14-N , 15-O ) :   1.3471 B( 14-N , 16-O ) :   1.3421 
B( 15-O , 16-O ) :   0.1817 

-------
TIMINGS
-------

Total SCF time: 0 days 0 hours 0 min 58 sec 

Total time                  ....      58.551 sec
Sum of individual times     ....      57.630 sec  ( 98.4%)

Fock matrix formation       ....      54.831 sec  ( 93.6%)
Diagonalization             ....       0.034 sec  (  0.1%)
Density matrix formation    ....       0.002 sec  (  0.0%)
Population analysis         ....       0.160 sec  (  0.3%)
Initial guess               ....       1.244 sec  (  2.1%)
Orbital Transformation      ....       0.000 sec  (  0.0%)
Orbital Orthonormalization  ....       0.000 sec  (  0.0%)
DIIS solution               ....       0.181 sec  (  0.3%)
SOSCF solution              ....       0.037 sec  (  0.1%)

Maximum memory used throughout the entire SCF-calculation: 232.0 MB

------------------------------------------------------------------------------
                                ORCA  MP2 
------------------------------------------------------------------------------

Freezing NCore=20 chemical core electrons
MP2 will be done in the AO integral direct mode
The Q1-step will be done using symmetric double matrices
Dimension of the basis                    ...  106
Memory devoted for MP2                    ...  256 MB   
Memory needed for all in one shot         ...  120 MB
Number of MOs that can be treated together...   54      
MP2 density construction                  ... relaxed
The MP2 gradient is requested => amplitudes will be stored on disk
Total number of MOs              ...   26
Number of MOs treated per batch  ...   26 
Number of batches necessary      ...    1 
OPERATORS   0/  0 PASS   0
-----------------------------------------------
 MP2 CORRELATION ENERGY   :     -1.000111614 Eh
-----------------------------------------------


---------------------
MP2 DENSITY FORMATION
---------------------

Completing the external part of the density      ... done
Storing the unrelaxed density                    ... done

Calculating G(D)                                 ... done
Completing the Lagrangian                        ... done
Solving the Z-vector equations                   ... 

------------------------------------------------------------------------------
                           ORCA CP-SCF CALCULATION
------------------------------------------------------------------------------

Input orbitals are from        ... produtcs_opt.gbw
Input Perturbation             ... produtcs_opt.pin.tmp
Wavefunction output            ... produtcs_opt.pout.tmp
Perturbation mode              ... Real perturbation (singlet)
Solver                         ... POPLE
Max. number of iterations      ... 128
Convergence tolerance          ... 3.000e-03
Integral handling              ... Direct
Number of perturbations        ... 1
Number of operators            ... 1
Orbital ranges used for CP-SCF:
 Operator 0:  Orbitals   0... 35  to  36...105
Variables per perturbation     ... 2520
Memory available               ... 991.5 MB
Memory needed per perturbation ...   5.2 MB
Perturbations treated per batch... 1
Number of batches              ... 1
     CP-SCF ITERATION   0:   1.3134e-01 (   5.4 sec)
     CP-SCF ITERATION   1:   5.4123e-02 (   5.0 sec)
     CP-SCF ITERATION   2:   2.5240e-02 (   4.7 sec)
     CP-SCF ITERATION   3:   8.1525e-03 (   4.6 sec)
     CP-SCF ITERATION   4:   4.2618e-03 (   5.8 sec)
     CP-SCF ITERATION   5:   1.5702e-03 (   6.5 sec)
                    *** THE CP-SCF HAS CONVERGED ***
                                                 ... done
Finalizing the relaxed density                   ... done
Transforming P to the AO basis                   ... done
Storing the relaxed density                      ... done

------------------------------------
ENERGY WEIGHTED DENSITY FINALIZATION
------------------------------------

Gathering the parts of the W-matrix              ...                                                      done
Forming the Z-density                            ... done
Transforming Z to the AO basis                   ... done
Calculating G(Z)                                 ... done
Finalizing the W-matrix                          ...                                                      done
Transforming W to the AO basis and storing       ... done

                *********************************************
                * UNRELAXED MP2 DENSITY POPULATION ANALYSIS *
                *********************************************

------------------------------------------------------------------------------
                           ORCA POPULATION ANALYSIS
------------------------------------------------------------------------------
Input electron density              ... produtcs_opt.pmp2ur
BaseName (.gbw .S,...)              ... produtcs_opt

                    ********************************
                    * MULLIKEN POPULATION ANALYSIS *
                    ********************************

-----------------------
MULLIKEN ATOMIC CHARGES
-----------------------
   0 C :   -0.027486
   1 C :   -0.152193
   2 C :    0.209246
   3 C :   -0.146554
   4 C :   -0.210298
   5 C :   -0.173614
   6 C :   -0.494224
   7 H :    0.275665
   8 H :    0.271310
   9 H :    0.177537
  10 H :    0.177524
  11 H :    0.188168
  12 H :    0.224760
  13 H :    0.230322
  14 N :    0.218349
  15 O :   -0.379735
  16 O :   -0.388777
  17 H :    1.000000
Sum of atomic charges:    1.0000000

--------------------------------
MULLIKEN REDUCED ORBITAL CHARGES
--------------------------------
  0 C s       :     3.164391  s :     3.164391
      pz      :     0.978351  p :     2.863095
      px      :     0.905394
      py      :     0.979350
  1 C s       :     3.148589  s :     3.148589
      pz      :     0.963852  p :     3.003605
      px      :     1.116277
      py      :     0.923476
  2 C s       :     3.109506  s :     3.109506
      pz      :     1.075110  p :     2.681248
      px      :     0.733644
      py      :     0.872494
  3 C s       :     3.160931  s :     3.160931
      pz      :     1.006820  p :     2.985623
      px      :     0.886928
      py      :     1.091875
  4 C s       :     3.191256  s :     3.191256
      pz      :     0.987688  p :     3.019042
      px      :     1.094140
      py      :     0.937214
  5 C s       :     3.176144  s :     3.176144
      pz      :     0.964340  p :     2.997470
      px      :     1.030663
      py      :     1.002467
  6 C s       :     3.377437  s :     3.377437
      pz      :     1.039112  p :     3.116786
      px      :     1.120141
      py      :     0.957534
  7 H s       :     0.724335  s :     0.724335
  8 H s       :     0.728690  s :     0.728690
  9 H s       :     0.822463  s :     0.822463
 10 H s       :     0.822476  s :     0.822476
 11 H s       :     0.811832  s :     0.811832
 12 H s       :     0.775240  s :     0.775240
 13 H s       :     0.769678  s :     0.769678
 14 N s       :     3.478522  s :     3.478522
      pz      :     1.111391  p :     3.303129
      px      :     1.128348
      py      :     1.063391
 15 O s       :     4.029575  s :     4.029575
      pz      :     1.415917  p :     4.350160
      px      :     1.827773
      py      :     1.106469
 16 O s       :     4.029136  s :     4.029136
      pz      :     1.485134  p :     4.359641
      px      :     1.172296
      py      :     1.702211
 17 H s       :     0.000000  s :     0.000000


                     *******************************
                     * LOEWDIN POPULATION ANALYSIS *
                     *******************************

----------------------
LOEWDIN ATOMIC CHARGES
----------------------
   0 C :   -0.021665
   1 C :   -0.096532
   2 C :   -0.019799
   3 C :   -0.092318
   4 C :   -0.112268
   5 C :   -0.099096
   6 C :   -0.301109
   7 H :    0.161321
   8 H :    0.156057
   9 H :    0.121231
  10 H :    0.123152
  11 H :    0.128310
  12 H :    0.134349
  13 H :    0.139867
  14 N :    0.357471
  15 O :   -0.287515
  16 O :   -0.291456
  17 H :    1.000000

-------------------------------
LOEWDIN REDUCED ORBITAL CHARGES
-------------------------------
  0 C s       :     2.915668  s :     2.915668
      pz      :     0.996034  p :     3.105997
      px      :     1.070231
      py      :     1.039732
  1 C s       :     2.940634  s :     2.940634
      pz      :     1.005944  p :     3.155898
      px      :     1.114975
      py      :     1.034979
  2 C s       :     2.914323  s :     2.914323
      pz      :     1.099142  p :     3.105476
      px      :     0.967849
      py      :     1.038485
  3 C s       :     2.945272  s :     2.945272
      pz      :     1.012392  p :     3.147046
      px      :     1.051694
      py      :     1.082960
  4 C s       :     2.940878  s :     2.940878
      pz      :     1.021203  p :     3.171391
      px      :     1.096808
      py      :     1.053380
  5 C s       :     2.945632  s :     2.945632
      pz      :     1.007085  p :     3.153464
      px      :     1.085875
      py      :     1.060504
  6 C s       :     2.975159  s :     2.975159
      pz      :     1.111408  p :     3.325949
      px      :     1.141019
      py      :     1.073523
  7 H s       :     0.838679  s :     0.838679
  8 H s       :     0.843943  s :     0.843943
  9 H s       :     0.878769  s :     0.878769
 10 H s       :     0.876848  s :     0.876848
 11 H s       :     0.871690  s :     0.871690
 12 H s       :     0.865651  s :     0.865651
 13 H s       :     0.860133  s :     0.860133
 14 N s       :     3.130254  s :     3.130254
      pz      :     1.092478  p :     3.512275
      px      :     1.224876
      py      :     1.194921
 15 O s       :     3.680511  s :     3.680511
      pz      :     1.456324  p :     4.607004
      px      :     1.861745
      py      :     1.288935
 16 O s       :     3.676366  s :     3.676366
      pz      :     1.511050  p :     4.615090
      px      :     1.356003
      py      :     1.748037
 17 H s       :     0.000000  s :     0.000000


                      *****************************
                      * MAYER POPULATION ANALYSIS *
                      *****************************

  NA   - Mulliken gross atomic population
  ZA   - Total nuclear charge
  QA   - Mulliken gross atomic charge
  VA   - Mayer's total valence
  BVA  - Mayer's bonded valence
  FA   - Mayer's free valence

  ATOM       NA         ZA         QA         VA         BVA        FA
  0 C      6.0275     6.0000    -0.0275     3.7834     3.5014     0.2820
  1 C      6.1522     6.0000    -0.1522     3.8625     3.5911     0.2714
  2 C      5.7908     6.0000     0.2092     3.4466     3.1704     0.2763
  3 C      6.1466     6.0000    -0.1466     3.8764     3.6056     0.2708
  4 C      6.2103     6.0000    -0.2103     3.8817     3.6203     0.2613
  5 C      6.1736     6.0000    -0.1736     3.8865     3.6226     0.2638
  6 C      6.4942     6.0000    -0.4942     3.8153     3.6284     0.1869
  7 H      0.7243     1.0000     0.2757     0.9108     0.8789     0.0319
  8 H      0.7287     1.0000     0.2713     0.9125     0.8796     0.0329
  9 H      0.8225     1.0000     0.1775     0.9338     0.8999     0.0339
 10 H      0.8225     1.0000     0.1775     0.9285     0.8937     0.0348
 11 H      0.8118     1.0000     0.1882     0.9236     0.8889     0.0347
 12 H      0.7752     1.0000     0.2248     0.9274     0.8942     0.0332
 13 H      0.7697     1.0000     0.2303     0.9270     0.8946     0.0325
 14 N      6.7817     7.0000     0.2183     3.3026     2.9257     0.3769
 15 O      8.3797     8.0000    -0.3797     1.7484     1.3645     0.3839
 16 O      8.3888     8.0000    -0.3888     1.7447     1.3632     0.3815
 17 H      0.0000     1.0000     1.0000     0.0000     0.0000     0.0000

  Mayer bond orders larger than 0.100000
B(  0-C ,  1-C ) :   1.3099 B(  0-C ,  5-C ) :   1.3494 B(  0-C ,  6-C ) :   0.8765 
B(  1-C ,  2-C ) :   1.3488 B(  1-C ,  8-H ) :   0.8786 B(  2-C ,  3-C ) :   1.3160 
B(  2-C , 14-N ) :   0.5092 B(  3-C ,  4-C ) :   1.3521 B(  3-C ,  7-H ) :   0.8764 
B(  4-C ,  5-C ) :   1.3465 B(  4-C , 13-H ) :   0.9006 B(  5-C , 12-H ) :   0.9042 
B(  6-C ,  9-H ) :   0.9300 B(  6-C , 10-H ) :   0.9213 B(  6-C , 11-H ) :   0.9150 
B( 14-N , 15-O ) :   1.2071 B( 14-N , 16-O ) :   1.2043 B( 15-O , 16-O ) :   0.1263 



                *******************************************
                * RELAXED MP2 DENSITY POPULATION ANALYSIS *
                *******************************************

------------------------------------------------------------------------------
                           ORCA POPULATION ANALYSIS
------------------------------------------------------------------------------
Input electron density              ... produtcs_opt.pmp2re
BaseName (.gbw .S,...)              ... produtcs_opt

                    ********************************
                    * MULLIKEN POPULATION ANALYSIS *
                    ********************************

-----------------------
MULLIKEN ATOMIC CHARGES
-----------------------
   0 C :    0.049438
   1 C :   -0.156863
   2 C :    0.258373
   3 C :   -0.143897
   4 C :   -0.153477
   5 C :   -0.150457
   6 C :   -0.484711
   7 H :    0.207420
   8 H :    0.200428
   9 H :    0.158212
  10 H :    0.159254
  11 H :    0.169937
  12 H :    0.167687
  13 H :    0.177945
  14 N :    0.101908
  15 O :   -0.275868
  16 O :   -0.285328
  17 H :    1.000000
Sum of atomic charges:    1.0000000

--------------------------------
MULLIKEN REDUCED ORBITAL CHARGES
--------------------------------
  0 C s       :     3.168522  s :     3.168522
      pz      :     0.949048  p :     2.782039
      px      :     0.888129
      py      :     0.944863
  1 C s       :     3.160134  s :     3.160134
      pz      :     0.998480  p :     2.996729
      px      :     1.036968
      py      :     0.961282
  2 C s       :     3.120366  s :     3.120366
      pz      :     1.010011  p :     2.621261
      px      :     0.756350
      py      :     0.854900
  3 C s       :     3.166698  s :     3.166698
      pz      :     1.017004  p :     2.977200
      px      :     0.916755
      py      :     1.043440
  4 C s       :     3.195515  s :     3.195515
      pz      :     0.968437  p :     2.957962
      px      :     1.057101
      py      :     0.932424
  5 C s       :     3.176273  s :     3.176273
      pz      :     0.987203  p :     2.974184
      px      :     0.994073
      py      :     0.992908
  6 C s       :     3.351809  s :     3.351809
      pz      :     1.043856  p :     3.132902
      px      :     1.103178
      py      :     0.985868
  7 H s       :     0.792580  s :     0.792580
  8 H s       :     0.799572  s :     0.799572
  9 H s       :     0.841788  s :     0.841788
 10 H s       :     0.840746  s :     0.840746
 11 H s       :     0.830063  s :     0.830063
 12 H s       :     0.832313  s :     0.832313
 13 H s       :     0.822055  s :     0.822055
 14 N s       :     3.455912  s :     3.455912
      pz      :     1.258535  p :     3.442180
      px      :     1.112870
      py      :     1.070775
 15 O s       :     4.004976  s :     4.004976
      pz      :     1.338692  p :     4.270892
      px      :     1.785082
      py      :     1.147118
 16 O s       :     4.003520  s :     4.003520
      pz      :     1.404774  p :     4.281807
      px      :     1.214054
      py      :     1.662979
 17 H s       :     0.000000  s :     0.000000


                     *******************************
                     * LOEWDIN POPULATION ANALYSIS *
                     *******************************

----------------------
LOEWDIN ATOMIC CHARGES
----------------------
   0 C :    0.002361
   1 C :   -0.119931
   2 C :   -0.003383
   3 C :   -0.114987
   4 C :   -0.090491
   5 C :   -0.113126
   6 C :   -0.304468
   7 H :    0.143839
   8 H :    0.138705
   9 H :    0.118614
  10 H :    0.120547
  11 H :    0.125740
  12 H :    0.121924
  13 H :    0.128620
  14 N :    0.300350
  15 O :   -0.224219
  16 O :   -0.230095
  17 H :    1.000000

-------------------------------
LOEWDIN REDUCED ORBITAL CHARGES
-------------------------------
  0 C s       :     2.919147  s :     2.919147
      pz      :     0.981386  p :     3.078492
      px      :     1.069585
      py      :     1.027521
  1 C s       :     2.942315  s :     2.942315
      pz      :     1.031472  p :     3.177617
      px      :     1.100059
      py      :     1.046086
  2 C s       :     2.927428  s :     2.927428
      pz      :     1.057726  p :     3.075955
      px      :     0.985536
      py      :     1.032692
  3 C s       :     2.945978  s :     2.945978
      pz      :     1.034747  p :     3.169009
      px      :     1.052500
      py      :     1.081762
  4 C s       :     2.944420  s :     2.944420
      pz      :     1.007315  p :     3.146070
      px      :     1.089797
      py      :     1.048959
  5 C s       :     2.946021  s :     2.946021
      pz      :     1.027177  p :     3.167105
      px      :     1.076494
      py      :     1.063434
  6 C s       :     2.975303  s :     2.975303
      pz      :     1.111769  p :     3.329164
      px      :     1.137932
      py      :     1.079463
  7 H s       :     0.856161  s :     0.856161
  8 H s       :     0.861295  s :     0.861295
  9 H s       :     0.881386  s :     0.881386
 10 H s       :     0.879453  s :     0.879453
 11 H s       :     0.874260  s :     0.874260
 12 H s       :     0.878076  s :     0.878076
 13 H s       :     0.871380  s :     0.871380
 14 N s       :     3.119451  s :     3.119451
      pz      :     1.218015  p :     3.580199
      px      :     1.185685
      py      :     1.176499
 15 O s       :     3.682136  s :     3.682136
      pz      :     1.386906  p :     4.542083
      px      :     1.835159
      py      :     1.320018
 16 O s       :     3.677955  s :     3.677955
      pz      :     1.440853  p :     4.552139
      px      :     1.389389
      py      :     1.721897
 17 H s       :     0.000000  s :     0.000000


                      *****************************
                      * MAYER POPULATION ANALYSIS *
                      *****************************

  NA   - Mulliken gross atomic population
  ZA   - Total nuclear charge
  QA   - Mulliken gross atomic charge
  VA   - Mayer's total valence
  BVA  - Mayer's bonded valence
  FA   - Mayer's free valence

  ATOM       NA         ZA         QA         VA         BVA        FA
  0 C      5.9506     6.0000     0.0494     3.8446     3.5699     0.2746
  1 C      6.1569     6.0000    -0.1569     3.8977     3.6330     0.2647
  2 C      5.7416     6.0000     0.2584     3.5737     3.3108     0.2629
  3 C      6.1439     6.0000    -0.1439     3.9196     3.6556     0.2640
  4 C      6.1535     6.0000    -0.1535     3.9214     3.6648     0.2566
  5 C      6.1505     6.0000    -0.1505     3.9196     3.6613     0.2583
  6 C      6.4847     6.0000    -0.4847     3.8509     3.6643     0.1866
  7 H      0.7926     1.0000     0.2074     0.9386     0.9077     0.0309
  8 H      0.7996     1.0000     0.2004     0.9403     0.9085     0.0317
  9 H      0.8418     1.0000     0.1582     0.9388     0.9049     0.0339
 10 H      0.8407     1.0000     0.1593     0.9340     0.8991     0.0349
 11 H      0.8301     1.0000     0.1699     0.9297     0.8949     0.0348
 12 H      0.8323     1.0000     0.1677     0.9412     0.9084     0.0328
 13 H      0.8221     1.0000     0.1779     0.9396     0.9072     0.0324
 14 N      6.8981     7.0000     0.1019     3.4378     3.1149     0.3229
 15 O      8.2759     8.0000    -0.2759     1.9232     1.5630     0.3602
 16 O      8.2853     8.0000    -0.2853     1.9176     1.5586     0.3590
 17 H      0.0000     1.0000     1.0000     0.0000     0.0000    -0.0000

  Mayer bond orders larger than 0.100000
B(  0-C ,  1-C ) :   1.2922 B(  0-C ,  5-C ) :   1.3509 B(  0-C ,  6-C ) :   0.8957 
B(  1-C ,  2-C ) :   1.3624 B(  1-C ,  8-H ) :   0.8872 B(  2-C ,  3-C ) :   1.3348 
B(  2-C , 14-N ) :   0.5314 B(  3-C ,  4-C ) :   1.3425 B(  3-C ,  7-H ) :   0.8866 
B(  4-C ,  5-C ) :   1.3531 B(  4-C , 13-H ) :   0.9020 B(  5-C , 12-H ) :   0.9050 
B(  6-C ,  9-H ) :   0.9262 B(  6-C , 10-H ) :   0.9204 B(  6-C , 11-H ) :   0.9156 
B( 14-N , 15-O ) :   1.2820 B( 14-N , 16-O ) :   1.2766 B( 15-O , 16-O ) :   0.2179 



----------------------------------
MP2 DERIVATIVE INTEGRAL GENERATION
----------------------------------


Input Wavefunction Amplitudes       ... produtcs_opt.mp2tsaa.tmp
Input Correlated Electron Density   ... produtcs_opt.pmp2re
Input Energy Weighted Density       ... produtcs_opt.wmp2.tmp
Input SCF Electron Density          ... produtcs_opt.scfp

One-Electron Terms    ...
                        ... One-Electron Terms done
Prescreening matrices              ... done

Batch handling in the gradient evaluation:
Memory available                      ...  256.0 MB
Memory per occupied orbital in Q2     ...    2.2 MB
Memory per occupied orbital in Q3     ...    0.0 MB
Total memory requirement per |i>      ...    2.2 MB
Max. Number of orbitals possible      ...    114
Number of orbitals treated per batch  ...     26
Number of batches to be done          ...      1
Batch   0: i=   10 ...    35

---------------------------------------
MP2 TOTAL ENERGY:     -473.995386665 Eh
---------------------------------------

The final MP2 gradient
  0:   0.00256667   0.01901998   0.01118846
  1:  -0.00704916  -0.02501604  -0.01556180
  2:  -0.01072917   0.01451496   0.01091195
  3:  -0.00320811   0.00397666   0.00296873
  4:   0.00306875   0.02076677   0.01277934
  5:   0.00716657  -0.02323925  -0.01502080
  6:   0.00426617  -0.01625624  -0.01016022
  7:  -0.00113326   0.00437223   0.00292537
  8:   0.00514752  -0.00185811  -0.00176445
  9:  -0.00477156  -0.00143636  -0.00133038
 10:   0.00087993   0.00081139  -0.00284163
 11:   0.00170204  -0.00301101   0.00211257
 12:  -0.00482986  -0.00327738  -0.00123022
 13:  -0.00422794   0.00127353   0.00155968
 14:  -0.06823440  -0.04082185  -0.01164985
 15:  -0.00936094   0.08187150   0.03162189
 16:   0.08877031  -0.03173797  -0.01662025
 17:  -0.00002356   0.00004720   0.00011161

-----------------------------------
NORM OF THE MP2 GRADIENT:  0.165173
-----------------------------------

Maximum memory used throughout the entire MP2-calculation: 168.7 MB

-------------------------   --------------------
FINAL SINGLE POINT ENERGY      -473.995386664872
-------------------------   --------------------

------------------------------------------------------------------------------
                         ORCA GEOMETRY RELAXATION STEP
------------------------------------------------------------------------------

Reading the OPT-File                    ....done
Number of atoms                         ....  18
Number of degrees of freedom            ....  54
Current Energy                          ....  -473.995386665 Eh
Current gradient norm                   ....     0.165172888 Eh/bohr
# of structures/gradients available     ....   1
# of structures/gradients to be used    ....   1
First structure used                    ....   0
Maximum allowed component of the step   ....  0.300
Transforming the gradients              ....done
Building the approximate hessian        ....(skipped:first point)done
Eigenvalues of the approximate hessian:
  1.000000  1.000000  1.000000  1.000000  1.000000  1.000000
  1.000000  1.000000  1.000000  1.000000  1.000000  1.000000
  1.000000  1.000000  1.000000  1.000000  1.000000  1.000000
  1.000000  1.000000  1.000000  1.000000  1.000000  1.000000
  1.000000  1.000000  1.000000  1.000000  1.000000  1.000000
  1.000000  1.000000  1.000000  1.000000  1.000000  1.000000
  1.000000  1.000000  1.000000  1.000000  1.000000  1.000000
  1.000000  1.000000  1.000000  1.000000  1.000000  1.000000
 1000.000000 1000.000000 1000.000000 1000.000000 1000.000000 1000.000000

computing the step                      ....done

The length of the step is               ....     0.165123
Storing new coordinates                 ....done
The predicted energy change is          ....    -0.013632761

                                .--------------------.
          ----------------------|Geometry convergence|-------------------------
          Item                value                   Tolerance       Converged
          ---------------------------------------------------------------------
          RMS gradient        0.0224771831            0.0005000000      NO
          MAX gradient        0.0887703116            0.0020000000      NO
          RMS step            0.0224703600            0.0070000000      NO
          MAX step            0.0875848773            0.0100000000      NO
          -------------------------------------------------------------------------

The optimization has not yet converged - more geometry cycles are needed


         *************************************************************
         *                GEOMETRY OPTIMIZATION CYCLE   2            *
         *************************************************************
---------------------------------
CARTESIAN COORDINATES (ANGSTROEM)
---------------------------------
  C     -3.201818    2.604382   -0.889025
  C     -4.334025    1.831351   -1.192998
  C     -4.158585    0.672621   -1.951402
  C     -2.905666    0.271191   -2.417116
  C     -1.782921    1.048120   -2.116149
  C     -1.930593    2.212318   -1.339263
  C     -3.378760    3.859660   -0.076922
  H     -2.819774   -0.637893   -2.995560
  H     -5.325143    2.103553   -0.851172
  H     -2.415490    4.297327    0.187243
  H     -3.928124    3.656029    0.846227
  H     -3.945683    4.607768   -0.636681
  H     -1.059951    2.805332   -1.096733
  H     -0.804743    0.750458   -2.469417
  N     -5.298558   -0.166724   -2.213949
  O     -5.084313   -1.348912   -2.663810
  O     -6.484278    0.282663   -1.974467
  H    -14.916842   -0.921400    7.413684

----------------------------
CARTESIAN COORDINATES (A.U.)
----------------------------
  NO LB      ZA    FRAG     MASS         X           Y           Z
   0 C     6.0000    0    12.011   -6.050559    4.921569   -1.680014
   1 C     6.0000    0    12.011   -8.190121    3.460753   -2.254440
   2 C     6.0000    0    12.011   -7.858586    1.271070   -3.687616
   3 C     6.0000    0    12.011   -5.490912    0.512477   -4.567687
   4 C     6.0000    0    12.011   -3.369233    1.980660   -3.998941
   5 C     6.0000    0    12.011   -3.648292    4.180675   -2.530840
   6 C     6.0000    0    12.011   -6.384930    7.293701   -0.145361
   7 H     1.0000    0     1.008   -5.328600   -1.205443   -5.660788
   8 H     1.0000    0     1.008  -10.063062    3.975139   -1.608482
   9 H     1.0000    0     1.008   -4.564614    8.120770    0.353838
  10 H     1.0000    0     1.008   -7.423078    6.908894    1.599137
  11 H     1.0000    0     1.008   -7.456260    8.707419   -1.203152
  12 H     1.0000    0     1.008   -2.003017    5.301309   -2.072526
  13 H     1.0000    0     1.008   -1.520743    1.418161   -4.666523
  14 N     7.0000    0    14.007  -10.012824   -0.315062   -4.183757
  15 O     8.0000    0    15.999   -9.607959   -2.549074   -5.033871
  16 O     8.0000    0    15.999  -12.253509    0.534156   -3.731201
  17 H     1.0000    0     1.008  -28.188747   -1.741193   14.009832

--------------------------------
INTERNAL COORDINATES (ANGSTROEM)
--------------------------------
 C      0   0   0     0.000000000000     0.00000000     0.00000000
 C      1   0   0     1.404233099860     0.00000000     0.00000000
 C      2   1   0     1.395926931338   118.24433255     0.00000000
 C      3   2   1     1.395650837152   122.19990603   359.58431293
 C      4   3   2     1.398125608068   119.29095167     0.14341674
 C      1   2   3     1.404436023767   120.44632859   359.90821377
 C      1   2   3     1.505504277552   118.75133221   179.73175428
 H      4   3   2     1.080929649832   119.45935811   179.60454457
 H      2   1   3     1.083168190780   122.08029670   179.47239916
 H      7   1   2     1.090515428795   111.19149107   173.21094061
 H      7   1   2     1.093375615044   111.05149557    52.53840628
 H      7   1   2     1.092884592635   110.82014655   293.23324339
 H      6   1   2     1.080973573293   120.26214536   180.49836556
 H      5   4   3     1.081773710617   120.19407882   179.98078961
 N      3   2   1     1.439781286945   118.91230797   176.87541549
 O     15   3   2     1.282904818541   117.96405577   194.14750720
 O     15   3   2     1.290438471804   119.38403229    13.19857549
 H     17  15   3    12.676564196761   135.69162667   260.93437996

---------------------------
INTERNAL COORDINATES (A.U.)
---------------------------
 C      0   0   0     0.000000000000     0.00000000     0.00000000
 C      1   0   0     2.653615986923     0.00000000     0.00000000
 C      2   1   0     2.637919603195   118.24433255     0.00000000
 C      3   2   1     2.637397860794   122.19990603   359.58431293
 C      4   3   2     2.642074500070   119.29095167     0.14341674
 C      1   2   3     2.653999457532   120.44632859   359.90821377
 C      1   2   3     2.844990778020   118.75133221   179.73175428
 H      4   3   2     2.042661008217   119.45935811   179.60454457
 H      2   1   3     2.046891237549   122.08029670   179.47239916
 H      7   1   2     2.060775505239   111.19149107   173.21094061
 H      7   1   2     2.066180473941   111.05149557    52.53840628
 H      7   1   2     2.065252576062   110.82014655   293.23324339
 H      6   1   2     2.042744011530   120.26214536   180.49836556
 H      5   4   3     2.044256051941   120.19407882   179.98078961
 N      3   2   1     2.720792325070   118.91230797   176.87541549
 O     15   3   2     2.424338762930   117.96405577   194.14750720
 O     15   3   2     2.438575304385   119.38403229    13.19857549
 H     17  15   3    23.955234650950   135.69162667   260.93437996

------------------------------------------------------------------------------
                   ___                                                        
                  /   \      - P O W E R E D   B Y -                         
                 /     \                                                     
                 |  |  |   _    _      __       _____    __    __             
                 |  |  |  | |  | |    /  \     |  _  \  |  |  /  |          
                  \  \/   | |  | |   /    \    | | | |  |  | /  /          
                 / \  \   | |__| |  /  /\  \   | |_| |  |  |/  /          
                |  |  |   |  __  | /  /__\  \  |    /   |      \           
                |  |  |   | |  | | |   __   |  |    \   |  |\   \          
                \     /   | |  | | |  |  |  |  | |\  \  |  | \   \       
                 \___/    |_|  |_| |__|  |__|  |_| \__\ |__|  \__/        
                                                                              
                      - O R C A' S   B I G   F R I E N D -                    
                                      &                                       
                       - I N T E G R A L  F E E D E R -                       
                                                                              
 v1 FN, 2020, v2 2021                                                         
------------------------------------------------------------------------------


Reading SHARK input file produtcs_opt.SHARKINP.tmp ... ok
----------------------
SHARK INTEGRAL PACKAGE
----------------------

Number of atoms                             ...     18
Number of basis functions                   ...    106
Number of shells                            ...     66
Maximum angular momentum                    ...      1
Integral batch strategy                     ... SHARK/LIBINT Hybrid
RI-J (if used) integral strategy            ... SPLIT-RIJ (Revised 2003 algorithm where possible)
Printlevel                                  ...      1
Contraction scheme used                     ... SEGMENTED contraction
Coulomb Range Separation                    ... NOT USED
Exchange Range Separation                   ... NOT USED
Finite Nucleus Model                        ... NOT USED
Auxiliary Coulomb fitting basis             ... NOT available
Auxiliary J/K fitting basis                 ... NOT available
Auxiliary Correlation fitting basis         ... NOT available
Auxiliary 'external' fitting basis          ... NOT available
Integral threshold                          ...     1.000000e-09
Primitive cut-off                           ...     1.000000e-10
Primitive pair pre-selection threshold      ...     1.000000e-10

Calculating pre-screening integrals         ... done (  0.1 sec) Dimension = 66
Organizing shell pair data                  ... done (  0.1 sec)
Shell pair information
Total number of shell pairs                 ...      2211
Shell pairs after pre-screening             ...      1844
Total number of primitive shell pairs       ...     15112
Primitive shell pairs kept                  ...      7704
          la=0 lb=0:    833 shell pairs
          la=1 lb=0:    808 shell pairs
          la=1 lb=1:    203 shell pairs

Calculating one electron integrals          ... done (  0.0 sec)
Calculating Nuclear repulsion               ... done (  0.0 sec) ENN=    493.587989684802 Eh

SHARK setup successfully completed in   0.5 seconds

Maximum memory used throughout the entire GTOINT-calculation: 8.7 MB

Diagonalization of the overlap matrix:
Smallest eigenvalue                        ... 6.222e-04
Time for diagonalization                   ...    0.008 sec
Threshold for overlap eigenvalues          ... 1.000e-08
Number of eigenvalues below threshold      ... 0
Time for construction of square roots      ...    0.005 sec
Total time needed                          ...    0.013 sec

--------------
SCF ITERATIONS
--------------
ITER       Energy         Delta-E        Max-DP      RMS-DP      [F,P]     Damp
               ***  Starting incremental Fock matrix formation  ***
  0   -472.9755750115   0.000000000000 0.01399694  0.00073924  0.0425625 0.7000
  1   -472.9787399009  -0.003164889447 0.01095980  0.00061483  0.0331901 0.7000
                               ***Turning on DIIS***
  2   -472.9812914110  -0.002551510132 0.02714585  0.00157080  0.0256099 0.0000
  3   -473.0024837427  -0.021192331693 0.00785416  0.00045481  0.0076820 0.0000
  4   -472.9883771767   0.014106566013 0.00452812  0.00022591  0.0037366 0.0000
                      *** Initiating the SOSCF procedure ***
                           *** Shutting down DIIS ***
                      *** Re-Reading the Fockian *** 
                      *** Removing any level shift *** 
ITER      Energy       Delta-E        Grad      Rot      Max-DP    RMS-DP
  5   -472.98106101   0.0073161676  0.001959  0.001959  0.003322  0.000151
               *** Restarting incremental Fock matrix formation ***
  6   -472.98939138  -0.0083303732  0.000954  0.002422  0.001243  0.000065
  7   -472.98940748  -0.0000160938  0.000431  0.003507  0.002193  0.000117
  8   -472.98941664  -0.0000091652  0.000225  0.000401  0.000617  0.000021
[...]
      3      -0.019368   0.035150  -0.072782   0.020591   0.091615  -0.000784
      4       0.033562  -0.023347  -0.048376  -0.063558   0.370930  -0.003332
      5       0.027681  -0.019446  -0.018559  -0.042600   0.215655  -0.001656
      6      -0.007451  -0.035399  -0.216006  -0.046056   0.237586  -0.004183
      7      -0.084734   0.078035   0.057233   0.085083  -0.355476   0.003672
      8      -0.051553   0.053330   0.075451   0.066296  -0.258078   0.002872
      9       0.071336  -0.025668   0.352127   0.019897  -0.170605   0.001617
     10       0.026772  -0.036851   0.051294  -0.030246   0.092356  -0.002689
     11       0.005135  -0.019776  -0.030594  -0.022050   0.088555  -0.001905
     12      -0.049212   0.065897  -0.113554  -0.010869  -0.006645   0.001487
     13       0.031303   0.023400  -0.147533   0.064510  -0.204354   0.003606
     14       0.027123   0.003728  -0.074033   0.040947  -0.125249   0.001838
     15       0.030330  -0.070822  -0.235918   0.077047  -0.173280   0.002722
     16      -0.064728   0.067711   0.151507  -0.086144   0.232433  -0.002742
     17      -0.045635   0.055439   0.134660  -0.067920   0.175116  -0.002056
     18      -0.015879   0.014717  -0.039583   0.006002  -0.010690   0.024809
     19      -0.060083  -0.040316   0.019108   0.002913   0.018406  -0.035838
     20      -0.058365  -0.037250   0.019700  -0.001171   0.010514  -0.017039
     21      -0.388288   0.181023  -0.313807   0.131093  -0.013773   0.000592
     22      -0.044887  -0.016630  -0.059572  -0.065075   0.178091  -0.000164
     23       0.039883  -0.032533   0.019922  -0.048867   0.075611   0.000907
     24      -0.089540   0.026414  -0.212446   0.075718  -0.159936  -0.000502
     25      -0.097916  -0.062921  -0.319079   0.068950  -0.204865   0.002393
     26      -0.048798  -0.040834  -0.176385  -0.005470  -0.079271   0.000907
     27      -0.289317  -0.287015   0.138596  -0.016852  -0.005345   0.334755
     28       0.327928   0.440133  -0.271471   0.036147   0.027166   0.131150
     29       0.421556   0.377666  -0.172673   0.015021   0.056008   0.087018
     30       0.342284   0.241178  -0.094531   0.008975   0.050651  -0.286777
     31       0.151509   0.125641   0.120559  -0.041813   0.008029  -0.141308
     32       0.214120   0.137135   0.012161  -0.001826   0.114382   0.512147
     33       0.200235   0.176741  -0.099756   0.015159   0.017411  -0.354616
     34       0.147139   0.134067   0.015353   0.005569   0.090660   0.475926
     35       0.006493   0.039632   0.072591  -0.022849  -0.055791  -0.379541
     36      -0.248742   0.303742  -0.035239  -0.056112   0.193266  -0.003469
     37       0.235482  -0.352900  -0.088897   0.053540  -0.166895  -0.001157
     38       0.195133  -0.274230  -0.058893   0.044193  -0.134169   0.000585
     39      -0.103514  -0.036887  -0.139334  -0.050634   0.159257   0.004002
     40      -0.045427  -0.211144  -0.192734  -0.038677   0.124627  -0.002366
     41      -0.015548  -0.131704  -0.094101  -0.011261   0.046312  -0.002206
     42       0.003919  -0.004036   0.040755   0.482382   0.079519  -0.001146
     43       0.007037  -0.004938  -0.028224  -0.553051  -0.078112   0.001680
     44       0.004169  -0.004355  -0.015667  -0.247409  -0.031388   0.000534
     45       0.000951  -0.002213  -0.005205  -0.065378  -0.003724   0.000397
     46       0.005778  -0.004884   0.019741   0.357424   0.058341  -0.000815
     47       0.001944  -0.001740   0.009099   0.140577   0.023905  -0.000333
     48      -0.003067   0.008782  -0.018223  -0.343824  -0.072652   0.000698
     49       0.000049  -0.000783   0.012563   0.134296   0.026257  -0.000440
     50       0.000228  -0.000431   0.007109   0.074912   0.011997  -0.000108
     51       0.000724   0.000513   0.000710  -0.000669  -0.000497  -0.000009
     52       0.000208  -0.000173   0.001223  -0.002585  -0.000572  -0.000114
     53       0.000915   0.000008   0.000108  -0.001433   0.000402  -0.000004
                 48         49         50         51         52         53    
      0       0.000364   0.000221  -0.002890  -0.002297   0.003506   0.000011
      1      -0.001476  -0.001754   0.001145   0.000165   0.002660  -0.000525
      2       0.001601  -0.000928   0.001161   0.000504   0.001049  -0.000281
      3       0.000094  -0.000828  -0.009007   0.031392  -0.075053   0.006831
      4       0.000103  -0.001085   0.002210  -0.009140   0.019486  -0.001347
      5      -0.000829   0.000264   0.002939  -0.010839   0.024522  -0.001901
      6      -0.000002  -0.001285  -0.000091  -0.001360   0.000872   0.003601
      7       0.000234   0.000733  -0.000287   0.000574  -0.000748  -0.002342
      8      -0.000209   0.000570  -0.000165   0.000527  -0.000548  -0.002233
      9      -0.000193   0.000759   0.000560  -0.003844  -0.002660  -0.008146
     10      -0.000090  -0.000503  -0.002529   0.008357   0.008839   0.073942
     11       0.000127  -0.000413  -0.001678   0.005944   0.006073   0.048004
     12       0.000048   0.000244  -0.013273   0.072448   0.031425  -0.016771
     13       0.000491   0.000744   0.000608  -0.022616  -0.008215   0.000290
     14      -0.000367   0.000381   0.002599  -0.026747  -0.010546   0.002941
     15       0.000381  -0.002862   0.071947   0.011171  -0.001258  -0.000613
     16      -0.001667  -0.002583   0.048138   0.011139  -0.000921  -0.000233
     17       0.002386  -0.001673   0.019600   0.005445  -0.000512  -0.000046
     18      -0.002249   0.086737   0.003459   0.001238  -0.000682  -0.000025
     19      -0.042457   0.021010   0.000863   0.000114  -0.000825   0.000034
     20       0.071962   0.013030   0.000572  -0.000054  -0.000069  -0.000130
     21       0.000673   0.000479  -0.003528   0.015753   0.015513   0.093605
     22      -0.002580  -0.002026   0.018839  -0.107192  -0.114909  -0.817949
     23       0.002187  -0.001175   0.012358  -0.069630  -0.075629  -0.527814
     24      -0.002888   0.009036   0.086265  -0.351615   0.828617  -0.068101
     25       0.001138  -0.002388  -0.025849   0.102625  -0.241715   0.019022
     26       0.001176  -0.002780  -0.030513   0.122079  -0.288091   0.022949
     27      -0.015105  -0.828807  -0.035017  -0.009094   0.009685   0.001621
     28      -0.029426  -0.358790  -0.017182  -0.003857   0.002963   0.000918
     29       0.023407  -0.216232  -0.010319  -0.002418   0.001744   0.000459
     30       0.413561  -0.102268  -0.003103  -0.002976   0.000597  -0.001385
     31       0.121824  -0.053053  -0.002796  -0.000956  -0.001086  -0.000312
     32      -0.617320   0.215626   0.006246   0.005189  -0.002313   0.002425
     33      -0.377417  -0.102978  -0.003196  -0.002262  -0.002241  -0.000513
     34       0.441195   0.193550   0.005472   0.004044   0.000140   0.001380
     35      -0.295390  -0.140144  -0.005507  -0.002435  -0.002350  -0.000369
     36       0.000418   0.033301  -0.786525  -0.142322   0.023073  -0.003693
     37      -0.001308   0.025044  -0.537544  -0.100243   0.013592  -0.003199
     38       0.002202   0.010768  -0.222302  -0.042081   0.005329  -0.001158
     39      -0.000185   0.001062   0.140392  -0.807913  -0.344176   0.157848
     40       0.002108  -0.000851  -0.038441   0.239820   0.101713  -0.043874
     41      -0.003645  -0.000280  -0.048105   0.289476   0.123312  -0.054665
     42      -0.000044  -0.000414  -0.000260   0.000428  -0.000618  -0.001233
     43       0.000053   0.000695   0.000329  -0.000067  -0.000232   0.002446
     44      -0.000046   0.000166   0.000124  -0.000090   0.000123   0.001093
     45       0.000011   0.000183   0.000060   0.000065  -0.000033   0.000707
     46      -0.000006  -0.000340  -0.000140  -0.000030   0.000354  -0.000962
     47       0.000005  -0.000088  -0.000041  -0.000016   0.000086  -0.000425
     48       0.000019   0.000264   0.000204  -0.000146   0.000031   0.000418
     49       0.000033  -0.000187  -0.000146   0.000197  -0.000302  -0.000417
     50      -0.000086  -0.000037  -0.000073   0.000112  -0.000188  -0.000165
     51      -0.000362   0.000015  -0.000059  -0.000044   0.000047  -0.000046
     52       0.000432  -0.000123  -0.000078  -0.000035   0.000121  -0.000033
     53      -0.000453   0.000062   0.000001   0.000050  -0.000038   0.000000


-----------
IR SPECTRUM
-----------

 Mode   freq       eps      Int      T**2         TX        TY        TZ
       cm**-1   L/(mol*cm) km/mol    a.u.
----------------------------------------------------------------------------
 13:     24.40   0.132746  670.85  1.697857  ( 0.301996  0.991920  0.789146)
 14:    111.91   0.036235  183.12  0.101039  ( 0.165268 -0.216699  0.163605)
 15:    179.11   0.001927    9.74  0.003358  (-0.056431 -0.005816 -0.011820)
 16:    274.50   0.001155    5.84  0.001313  ( 0.000040  0.017771  0.031578)
 17:    321.80   0.008468   42.80  0.008212  (-0.068696 -0.051343 -0.029271)
 18:    353.56   0.001511    7.64  0.001334  ( 0.025765  0.025606 -0.003775)
 19:    403.74   0.006039   30.52  0.004667  (-0.061626 -0.028422 -0.007861)
 20:    478.77   0.000343    1.73  0.000223  ( 0.013464 -0.006462 -0.000660)
 21:    501.00   0.014772   74.65  0.009201  (-0.035324 -0.076132 -0.046448)
 22:    608.29   0.001214    6.14  0.000623  (-0.016118 -0.009103 -0.016739)
 23:    648.89   0.007947   40.16  0.003822  ( 0.001252  0.039594 -0.047462)
 24:    696.44   0.003728   18.84  0.001671  ( 0.012672 -0.015274  0.035732)
 25:    738.22   0.004337   21.92  0.001833  (-0.024130  0.031024  0.016987)
 26:    762.08   0.022248  112.43  0.009110  (-0.002620 -0.079395 -0.052913)
 27:    810.12   0.001666    8.42  0.000642  (-0.019667  0.003532 -0.015572)
 28:    858.27   0.013481   68.13  0.004902  ( 0.034923 -0.053841 -0.027985)
 29:    924.04   0.007707   38.95  0.002603  (-0.002419  0.029179 -0.041780)
 30:    945.27   0.001362    6.88  0.000450  (-0.012332 -0.002270 -0.017103)
 31:    979.37   0.006605   33.38  0.002105  (-0.019135 -0.035336 -0.022130)
 32:   1022.29   0.018512   93.55  0.005651  ( 0.012635 -0.063108 -0.038842)
 33:   1066.78   0.133531  674.81  0.039062  ( 0.001875  0.171209  0.098721)
 34:   1147.18   0.004868   24.60  0.001324  ( 0.016718  0.029630  0.012914)
 35:   1158.49   0.063730  322.06  0.017167  (-0.011675 -0.117002 -0.057802)
 36:   1210.14   0.023352  118.01  0.006022  (-0.047574  0.051295  0.033577)
 37:   1263.07   0.015380   77.73  0.003800  (-0.043349  0.033119  0.028705)
 38:   1296.12   0.004604   23.27  0.001109  (-0.032610 -0.006669 -0.000861)
 39:   1356.26   0.016625   84.01  0.003825  (-0.004833 -0.060089  0.013825)
 40:   1370.26   0.007405   37.42  0.001687  (-0.009802  0.030943  0.025159)
 41:   1470.50   0.065127  329.13  0.013821  (-0.059969 -0.088115 -0.049604)
 42:   1474.23   0.004083   20.63  0.000864  (-0.005980  0.019477  0.021192)
 43:   1511.47   0.018743   94.72  0.003870  ( 0.035122 -0.044071 -0.026342)
 44:   1642.69   0.044202  223.38  0.008397  ( 0.083260  0.037832  0.005804)
 45:   1846.47   0.122910  621.14  0.020772  ( 0.057917  0.122835  0.048266)
 46:   1986.22   0.107597  543.75  0.016905  (-0.129183 -0.003655  0.014257)
 47:   3010.70   0.262374  1325.93  0.027196  (-0.005418  0.144188  0.079849)
 48:   3089.13   0.025999  131.39  0.002626  (-0.001406  0.031909 -0.040078)
 49:   3160.08   0.027520  139.07  0.002718  (-0.010657  0.044886  0.024275)
 50:   3206.58   0.004517   22.82  0.000440  (-0.017513 -0.010744 -0.004172)
 51:   3222.86   0.012864   65.01  0.001246  (-0.033603  0.006106  0.008895)
 52:   3228.88   0.005795   29.28  0.000560  ( 0.020255 -0.007686 -0.009523)
 53:   3261.08   0.010121   51.15  0.000968  ( 0.015961 -0.021910 -0.015286)

* The epsilon (eps) is given for a Dirac delta lineshape.
** The dipole moment derivative (T) already includes vibrational overlap.

The first frequency considered to be a vibration is 13
The total number of vibrations considered is 41


--------------------------
THERMOCHEMISTRY AT 298.15K
--------------------------

Temperature         ... 298.15 K
Pressure            ... 1.00 atm
Total Mass          ... 138.15 AMU

Throughout the following assumptions are being made:
  (1) The electronic state is orbitally nondegenerate
  (2) There are no thermally accessible electronically excited states
  (3) Hindered rotations indicated by low frequency modes are not
      treated as such but are treated as vibrations and this may
      cause some error
  (4) All equations used are the standard statistical mechanics
      equations for an ideal gas
  (5) All vibrations are strictly harmonic

freq.      24.40  E(vib)   ...       0.56 
freq.     111.91  E(vib)   ...       0.45 
freq.     179.11  E(vib)   ...       0.37 
freq.     274.50  E(vib)   ...       0.28 
freq.     321.80  E(vib)   ...       0.25 
freq.     353.56  E(vib)   ...       0.22 
freq.     403.74  E(vib)   ...       0.19 
freq.     478.77  E(vib)   ...       0.15 
freq.     501.00  E(vib)   ...       0.14 
freq.     608.29  E(vib)   ...       0.10 
freq.     648.89  E(vib)   ...       0.08 
freq.     696.44  E(vib)   ...       0.07 
freq.     738.22  E(vib)   ...       0.06 
freq.     762.08  E(vib)   ...       0.06 
freq.     810.12  E(vib)   ...       0.05 
freq.     858.27  E(vib)   ...       0.04 
freq.     924.04  E(vib)   ...       0.03 
freq.     945.27  E(vib)   ...       0.03 
freq.     979.37  E(vib)   ...       0.03 
freq.    1022.29  E(vib)   ...       0.02 
freq.    1066.78  E(vib)   ...       0.02 
freq.    1147.18  E(vib)   ...       0.01 
freq.    1158.49  E(vib)   ...       0.01 
freq.    1210.14  E(vib)   ...       0.01 
freq.    1263.07  E(vib)   ...       0.01 
freq.    1296.12  E(vib)   ...       0.01 
freq.    1356.26  E(vib)   ...       0.01 
freq.    1370.26  E(vib)   ...       0.01 
freq.    1470.50  E(vib)   ...       0.00 
freq.    1474.23  E(vib)   ...       0.00 
freq.    1511.47  E(vib)   ...       0.00 
freq.    1642.69  E(vib)   ...       0.00 
freq.    1846.47  E(vib)   ...       0.00 
freq.    1986.22  E(vib)   ...       0.00 
freq.    3010.70  E(vib)   ...       0.00 
freq.    3089.13  E(vib)   ...       0.00 
freq.    3160.08  E(vib)   ...       0.00 
freq.    3206.58  E(vib)   ...       0.00 
freq.    3222.86  E(vib)   ...       0.00 
freq.    3228.88  E(vib)   ...       0.00 
freq.    3261.08  E(vib)   ...       0.00 

------------
INNER ENERGY
------------

The inner energy is: U= E(el) + E(ZPE) + E(vib) + E(rot) + E(trans)
    E(el)   - is the total energy from the electronic structure calculation
              = E(kin-el) + E(nuc-el) + E(el-el) + E(nuc-nuc)
    E(ZPE)  - the the zero temperature vibrational energy from the frequency calculation
    E(vib)  - the the finite temperature correction to E(ZPE) due to population
              of excited vibrational states
    E(rot)  - is the rotational thermal energy
    E(trans)- is the translational thermal energy

Summary of contributions to the inner energy U:
Electronic energy                ...   -474.00998232 Eh
Zero point energy                ...      0.12215814 Eh      76.66 kcal/mol
Thermal vibrational correction   ...      0.00521640 Eh       3.27 kcal/mol
Thermal rotational correction    ...      0.00141627 Eh       0.89 kcal/mol
Thermal translational correction ...      0.00141627 Eh       0.89 kcal/mol
-----------------------------------------------------------------------
Total thermal energy                   -473.87977523 Eh


Summary of corrections to the electronic energy:
(perhaps to be used in another calculation)
Total thermal correction                  0.00804895 Eh       5.05 kcal/mol
Non-thermal (ZPE) correction              0.12215814 Eh      76.66 kcal/mol
-----------------------------------------------------------------------
Total correction                          0.13020709 Eh      81.71 kcal/mol


--------
ENTHALPY
--------

The enthalpy is H = U + kB*T
                kB is Boltzmann's constant
Total free energy                 ...   -473.87977523 Eh 
Thermal Enthalpy correction       ...      0.00094421 Eh       0.59 kcal/mol
-----------------------------------------------------------------------
Total Enthalpy                    ...   -473.87883103 Eh


Note: Only C1 symmetry has been detected, increase convergence thresholds 
      if your molecule has a higher symmetry. Symmetry factor of 1.0 is   
      used for the rotational entropy correction. 
 

Note: Rotational entropy computed according to Herzberg 
Infrared and Raman Spectra, Chapter V,1, Van Nostrand Reinhold, 1945 
Point Group:  C1, Symmetry Number:   1  
Rotational constants in cm-1:     0.046713     0.027909     0.018761 

Vibrational entropy computed according to the QRRHO of S. Grimme
Chem.Eur.J. 2012 18 9955


-------
ENTROPY
-------

The entropy contributions are T*S = T*(S(el)+S(vib)+S(rot)+S(trans))
     S(el)   - electronic entropy
     S(vib)  - vibrational entropy
     S(rot)  - rotational entropy
     S(trans)- translational entropy
The entropies will be listed as multiplied by the temperature to get
units of energy

Electronic entropy                ...      0.00000000 Eh      0.00 kcal/mol
Vibrational entropy               ...      0.00892003 Eh      5.60 kcal/mol
Rotational entropy                ...      0.01452371 Eh      9.11 kcal/mol
Translational entropy             ...      0.01932890 Eh     12.13 kcal/mol
-----------------------------------------------------------------------
Final entropy term                ...      0.04277264 Eh     26.84 kcal/mol

In case the symmetry of your molecule has not been determined correctly
or in case you have a reason to use a different symmetry number we print 
out the resulting rotational entropy values for sn=1,12 :
 --------------------------------------------------------
|  sn= 1 | S(rot)=       0.01452371 Eh      9.11 kcal/mol|
|  sn= 2 | S(rot)=       0.01386926 Eh      8.70 kcal/mol|
|  sn= 3 | S(rot)=       0.01348642 Eh      8.46 kcal/mol|
|  sn= 4 | S(rot)=       0.01321480 Eh      8.29 kcal/mol|
|  sn= 5 | S(rot)=       0.01300411 Eh      8.16 kcal/mol|
|  sn= 6 | S(rot)=       0.01283197 Eh      8.05 kcal/mol|
|  sn= 7 | S(rot)=       0.01268642 Eh      7.96 kcal/mol|
|  sn= 8 | S(rot)=       0.01256034 Eh      7.88 kcal/mol|
|  sn= 9 | S(rot)=       0.01244913 Eh      7.81 kcal/mol|
|  sn=10 | S(rot)=       0.01234965 Eh      7.75 kcal/mol|
|  sn=11 | S(rot)=       0.01225966 Eh      7.69 kcal/mol|
|  sn=12 | S(rot)=       0.01217751 Eh      7.64 kcal/mol|
 --------------------------------------------------------


-------------------
GIBBS FREE ENERGY
-------------------

The Gibbs free energy is G = H - T*S

Total enthalpy                    ...   -473.87883103 Eh 
Total entropy correction          ...     -0.04277264 Eh    -26.84 kcal/mol
-----------------------------------------------------------------------
Final Gibbs free energy         ...   -473.92160366 Eh

For completeness - the Gibbs free energy minus the electronic energy
G-E(el)                           ...      0.08837866 Eh     55.46 kcal/mol



Timings for individual modules:

Sum of individual times         ...    28954.551 sec (= 482.576 min)
GTO integral calculation        ...       16.008 sec (=   0.267 min)   0.1 %
SCF iterations                  ...      406.252 sec (=   6.771 min)   1.4 %
MP2 module                      ...     1610.463 sec (=  26.841 min)   5.6 %
Geometry relaxation             ...        7.938 sec (=   0.132 min)   0.0 %
Numerical frequency calculation ...    26913.890 sec (= 448.565 min)  93.0 %
                             ****ORCA TERMINATED NORMALLY****
TOTAL RUN TIME: 0 days 8 hours 0 minutes 36 seconds 547 msec
