
                                 *****************
                                 * O   R   C   A *
                                 *****************

                                            #,                                       
                                            ###                                      
                                            ####                                     
                                            #####                                    
                                            ######                                   
                                           ########,                                 
                                     ,,################,,,,,                         
                               ,,#################################,,                 
                          ,,##########################################,,             
                       ,#########################################, ''#####,          
                    ,#############################################,,   '####,        
                  ,##################################################,,,,####,       
                ,###########''''           ''''###############################       
              ,#####''   ,,,,##########,,,,          '''####'''          '####       
            ,##' ,,,,###########################,,,                        '##       
           ' ,,###''''                  '''############,,,                           
         ,,##''                                '''############,,,,        ,,,,,,###''
      ,#''                                            '''#######################'''  
     '                                                          ''''####''''         
             ,#######,   #######,   ,#######,      ##                                
            ,#'     '#,  ##    ##  ,#'     '#,    #''#        ######   ,####,        
            ##       ##  ##   ,#'  ##            #'  '#       #        #'  '#        
            ##       ##  #######   ##           ,######,      #####,   #    #        
            '#,     ,#'  ##    ##  '#,     ,#' ,#      #,         ##   #,  ,#        
             '#######'   ##     ##  '#######'  #'      '#     #####' # '####'        



                  #######################################################
                  #                        -***-                        #
                  #          Department of theory and spectroscopy      #
                  #    Directorship and core code : Frank Neese         #
                  #        Max Planck Institute fuer Kohlenforschung    #
                  #                Kaiser Wilhelm Platz 1               #
                  #                 D-45470 Muelheim/Ruhr               #
                  #                      Germany                        #
                  #                                                     #
                  #                  All rights reserved                #
                  #                        -***-                        #
                  #######################################################



                         Program Version 5.0.4 -  RELEASE  -

 With contributions from (in alphabetic order):
   Daniel Aravena         : Magnetic Suceptibility
   Michael Atanasov       : Ab Initio Ligand Field Theory (pilot matlab implementation)
   Alexander A. Auer      : GIAO ZORA, VPT2 properties, NMR spectrum
   Ute Becker             : Parallelization
   Giovanni Bistoni       : ED, misc. LED, open-shell LED, HFLD
   Martin Brehm           : Molecular dynamics
   Dmytro Bykov           : SCF Hessian
   Vijay G. Chilkuri      : MRCI spin determinant printing, contributions to CSF-ICE
   Dipayan Datta          : RHF DLPNO-CCSD density
   Achintya Kumar Dutta   : EOM-CC, STEOM-CC
   Dmitry Ganyushin       : Spin-Orbit,Spin-Spin,Magnetic field MRCI
   Miquel Garcia          : C-PCM and meta-GGA Hessian, CC/C-PCM, Gaussian charge scheme
   Yang Guo               : DLPNO-NEVPT2, F12-NEVPT2, CIM, IAO-localization
   Andreas Hansen         : Spin unrestricted coupled pair/coupled cluster methods
   Benjamin Helmich-Paris : MC-RPA, TRAH-SCF, COSX integrals
   Lee Huntington         : MR-EOM, pCC
   Robert Izsak           : Overlap fitted RIJCOSX, COSX-SCS-MP3, EOM
   Marcus Kettner         : VPT2
   Christian Kollmar      : KDIIS, OOCD, Brueckner-CCSD(T), CCSD density, CASPT2, CASPT2-K
   Simone Kossmann        : Meta GGA functionals, TD-DFT gradient, OOMP2, MP2 Hessian
   Martin Krupicka        : Initial AUTO-CI
   Lucas Lang             : DCDCAS
   Marvin Lechner         : AUTO-CI (C++ implementation), FIC-MRCC
   Dagmar Lenk            : GEPOL surface, SMD
   Dimitrios Liakos       : Extrapolation schemes; Compound Job, initial MDCI parallelization
   Dimitrios Manganas     : Further ROCIS development; embedding schemes
   Dimitrios Pantazis     : SARC Basis sets
   Anastasios Papadopoulos: AUTO-CI, single reference methods and gradients
   Taras Petrenko         : DFT Hessian,TD-DFT gradient, ASA, ECA, R-Raman, ABS, FL, XAS/XES, NRVS
   Peter Pinski           : DLPNO-MP2, DLPNO-MP2 Gradient
   Christoph Reimann      : Effective Core Potentials
   Marius Retegan         : Local ZFS, SOC
   Christoph Riplinger    : Optimizer, TS searches, QM/MM, DLPNO-CCSD(T), (RO)-DLPNO pert. Triples
   Tobias Risthaus        : Range-separated hybrids, TD-DFT gradient, RPA, STAB
   Michael Roemelt        : Original ROCIS implementation
   Masaaki Saitow         : Open-shell DLPNO-CCSD energy and density
   Barbara Sandhoefer     : DKH picture change effects
   Avijit Sen             : IP-ROCIS
   Kantharuban Sivalingam : CASSCF convergence, NEVPT2, FIC-MRCI
   Bernardo de Souza      : ESD, SOC TD-DFT
   Georgi Stoychev        : AutoAux, RI-MP2 NMR, DLPNO-MP2 response
   Willem Van den Heuvel  : Paramagnetic NMR
   Boris Wezisla          : Elementary symmetry handling
   Frank Wennmohs         : Technical directorship


 We gratefully acknowledge several colleagues who have allowed us to
 interface, adapt or use parts of their codes:
   Stefan Grimme, W. Hujo, H. Kruse, P. Pracht,  : VdW corrections, initial TS optimization,
                  C. Bannwarth, S. Ehlert          DFT functionals, gCP, sTDA/sTD-DF
   Ed Valeev, F. Pavosevic, A. Kumar             : LibInt (2-el integral package), F12 methods
   Garnet Chan, S. Sharma, J. Yang, R. Olivares  : DMRG
   Ulf Ekstrom                                   : XCFun DFT Library
   Mihaly Kallay                                 : mrcc  (arbitrary order and MRCC methods)
   Jiri Pittner, Ondrej Demel                    : Mk-CCSD
   Frank Weinhold                                : gennbo (NPA and NBO analysis)
   Christopher J. Cramer and Donald G. Truhlar   : smd solvation model
   Lars Goerigk                                  : TD-DFT with DH, B97 family of functionals
   V. Asgeirsson, H. Jonsson                     : NEB implementation
   FAccTs GmbH                                   : IRC, NEB, NEB-TS, DLPNO-Multilevel, CI-OPT
                                                   MM, QMMM, 2- and 3-layer-ONIOM, Crystal-QMMM,
                                                   LR-CPCM, SF, NACMEs, symmetry and pop. for TD-DFT,
                                                   nearIR, NL-DFT gradient (VV10), updates on ESD,
                                                   ML-optimized integration grids
   S Lehtola, MJT Oliveira, MAL Marques          : LibXC Library
   Liviu Ungur et al                             : ANISO software


 Your calculation uses the libint2 library for the computation of 2-el integrals
 For citations please refer to: http://libint.valeyev.net

 Your ORCA version has been built with support for libXC version: 5.1.0
 For citations please refer to: https://tddft.org/programs/libxc/

 This ORCA versions uses:
   CBLAS   interface :  Fast vector & matrix operations
   LAPACKE interface :  Fast linear algebra routines
   Shared memory     :  Shared parallel matrices


================================================================================

----- Orbital basis set information -----
Your calculation utilizes the basis: def2-QZVPP
   F. Weigend and R. Ahlrichs, Phys. Chem. Chem. Phys. 7, 3297 (2005).

----- AuxJ basis set information -----
Your calculation utilizes the auxiliary basis: def2/J
   F. Weigend, Phys. Chem. Chem. Phys. 8, 1057 (2006).

================================================================================
                                        WARNINGS
                       Please study these warnings very carefully!
================================================================================


INFO   : the flag for use of the SHARK integral package has been found!


WARNING: TRAH does not support fractional occupations!
  ===> : Turning TRAH off
================================================================================
                                       INPUT FILE
================================================================================
NAME = FOD.inp
|  1> !B3LYP DEF2-QZVPP
|  2> 
|  3> %scf
|  4> smearTemp 5000
|  5> convergence tight
|  6> end
|  7> 
|  8> * xyz 0 1
|  9>   C   -5.45725684070453      1.95593336212858     -0.00001817707546
| 10>   C   -6.54811022711722      1.08628615246483     -0.00001324749663
| 11>   C   -6.30396401004928     -0.28759056034773     -0.00000139831282
| 12>   C   -4.98984572580346     -0.76859455452417      0.00000695999258
| 13>   C   -3.91114170937565      0.12282314461918     -0.00000121662840
| 14>   C   -4.13915123157836      1.49943411470939     -0.00001304778994
| 15>   H   -7.55740354307554      1.49667400814645     -0.00001684062526
| 16>   H   -7.14404322624445     -0.98601755880687      0.00000397226961
| 17>   H   -4.80509894481999     -1.84567629943337      0.00002057733944
| 18>   H   -2.88642805442052     -0.25584437271434      0.00000437523983
| 19>   H   -3.32449720747170      2.22296833592123     -0.00001644865895
| 20>   N   -5.70656998714359      3.41332965011033     -0.00000742911383
| 21>   O   -6.86822400877657      3.78641654026404      0.00002696429634
| 22>   O   -4.73500528341910      4.15158803746246      0.00002495656351
| 23> **                         ****END OF INPUT****
================================================================================

                       ****************************
                       * Single Point Calculation *
                       ****************************

---------------------------------
CARTESIAN COORDINATES (ANGSTROEM)
---------------------------------
  C     -5.457257    1.955933   -0.000018
  C     -6.548110    1.086286   -0.000013
  C     -6.303964   -0.287591   -0.000001
  C     -4.989846   -0.768595    0.000007
  C     -3.911142    0.122823   -0.000001
  C     -4.139151    1.499434   -0.000013
  H     -7.557404    1.496674   -0.000017
  H     -7.144043   -0.986018    0.000004
  H     -4.805099   -1.845676    0.000021
  H     -2.886428   -0.255844    0.000004
  H     -3.324497    2.222968   -0.000016
  N     -5.706570    3.413330   -0.000007
  O     -6.868224    3.786417    0.000027
  O     -4.735005    4.151588    0.000025

----------------------------
CARTESIAN COORDINATES (A.U.)
----------------------------
  NO LB      ZA    FRAG     MASS         X           Y           Z
   0 C     6.0000    0    12.011  -10.312721    3.696178   -0.000034
   1 C     6.0000    0    12.011  -12.374135    2.052783   -0.000025
   2 C     6.0000    0    12.011  -11.912766   -0.543467   -0.000003
   3 C     6.0000    0    12.011   -9.429442   -1.452433    0.000013
   4 C     6.0000    0    12.011   -7.390987    0.232102   -0.000002
   5 C     6.0000    0    12.011   -7.821862    2.833520   -0.000025
   6 H     1.0000    0     1.008  -14.281423    2.828304   -0.000032
   7 H     1.0000    0     1.008  -13.500285   -1.863303    0.000008
   8 H     1.0000    0     1.008   -9.080321   -3.487823    0.000039
   9 H     1.0000    0     1.008   -5.454559   -0.483476    0.000008
  10 H     1.0000    0     1.008   -6.282389    4.200801   -0.000031
  11 N     7.0000    0    14.007  -10.783854    6.450258   -0.000014
  12 O     8.0000    0    15.999  -12.979062    7.155290    0.000051
  13 O     8.0000    0    15.999   -8.947863    7.845364    0.000047

--------------------------------
INTERNAL COORDINATES (ANGSTROEM)
--------------------------------
 C      0   0   0     0.000000000000     0.00000000     0.00000000
 C      1   0   0     1.395079703798     0.00000000     0.00000000
 C      2   1   0     1.395401231710   118.48584445     0.00000000
 C      3   2   1     1.399382616539   120.18065164     0.00000000
 C      4   3   2     1.399366953115   120.32637122     0.00000000
 C      1   2   3     1.394917187410   122.33504685     0.00000000
 H      2   1   3     1.089537144728   119.31043403   179.99988667
 H      3   2   1     1.092489524750   119.66292133   179.99991929
 H      4   3   2     1.092811263890   119.83699994   179.99973703
 H      5   4   3     1.092440919852   120.14937450   180.00005869
 H      6   1   2     1.089570074970   119.28765415   180.00004977
 N      1   2   3     1.478567206902   118.85497877   180.00103078
 O     12   1   2     1.220095854744   117.51287202     0.00000000
 O     12   1   2     1.220230888426   117.52246431   179.99804165

---------------------------
INTERNAL COORDINATES (A.U.)
---------------------------
 C      0   0   0     0.000000000000     0.00000000     0.00000000
 C      1   0   0     2.636318575170     0.00000000     0.00000000
 C      2   1   0     2.636926174868   118.48584445     0.00000000
 C      3   2   1     2.644449901830   120.18065164     0.00000000
 C      4   3   2     2.644420302247   120.32637122     0.00000000
 C      1   2   3     2.636011463704   122.33504685     0.00000000
 H      2   1   3     2.058926816270   119.31043403   179.99988667
 H      3   2   1     2.064506005955   119.66292133   179.99991929
 H      4   3   2     2.065114004817   119.83699994   179.99973703
 H      5   4   3     2.064414156009   120.14937450   180.00005869
 H      6   1   2     2.058989045409   119.28765415   180.00004977
 N      1   2   3     2.794087091642   118.85497877   180.00103078
 O     12   1   2     2.305647022599   117.51287202     0.00000000
 O     12   1   2     2.305902199276   117.52246431   179.99804165

---------------------
BASIS SET INFORMATION
---------------------
There are 4 groups of distinct atoms

 Group   1 Type C   : 15s8p3d2f1g contracted to 7s4p3d2f1g pattern {8211111/5111/111/11/1}
 Group   2 Type H   : 7s3p2d1f contracted to 4s3p2d1f pattern {4111/111/11/1}
 Group   3 Type N   : 15s8p3d2f1g contracted to 7s4p3d2f1g pattern {8211111/5111/111/11/1}
 Group   4 Type O   : 15s8p3d2f1g contracted to 7s4p3d2f1g pattern {8211111/5111/111/11/1}

Atom   0C    basis set group =>   1
Atom   1C    basis set group =>   1
Atom   2C    basis set group =>   1
Atom   3C    basis set group =>   1
Atom   4C    basis set group =>   1
Atom   5C    basis set group =>   1
Atom   6H    basis set group =>   2
Atom   7H    basis set group =>   2
Atom   8H    basis set group =>   2
Atom   9H    basis set group =>   2
Atom  10H    basis set group =>   2
Atom  11N    basis set group =>   3
Atom  12O    basis set group =>   4
Atom  13O    basis set group =>   4
---------------------------------
AUXILIARY/J BASIS SET INFORMATION
---------------------------------
There are 4 groups of distinct atoms

 Group   1 Type C   : 12s5p4d2f1g contracted to 6s4p3d1f1g pattern {711111/2111/211/2/1}
 Group   2 Type H   : 5s2p1d contracted to 3s1p1d pattern {311/2/1}
 Group   3 Type N   : 12s5p4d2f1g contracted to 6s4p3d1f1g pattern {711111/2111/211/2/1}
 Group   4 Type O   : 12s5p4d2f1g contracted to 6s4p3d1f1g pattern {711111/2111/211/2/1}

Atom   0C    basis set group =>   1
Atom   1C    basis set group =>   1
Atom   2C    basis set group =>   1
Atom   3C    basis set group =>   1
Atom   4C    basis set group =>   1
Atom   5C    basis set group =>   1
Atom   6H    basis set group =>   2
Atom   7H    basis set group =>   2
Atom   8H    basis set group =>   2
Atom   9H    basis set group =>   2
Atom  10H    basis set group =>   2
Atom  11N    basis set group =>   3
Atom  12O    basis set group =>   4
Atom  13O    basis set group =>   4
------------------------------------------------------------------------------
                           ORCA GTO INTEGRAL CALCULATION
                           -- RI-GTO INTEGRALS CHOSEN --
------------------------------------------------------------------------------
------------------------------------------------------------------------------
                   ___                                                        
                  /   \      - P O W E R E D   B Y -                         
                 /     \                                                     
                 |  |  |   _    _      __       _____    __    __             
                 |  |  |  | |  | |    /  \     |  _  \  |  |  /  |          
                  \  \/   | |  | |   /    \    | | | |  |  | /  /          
                 / \  \   | |__| |  /  /\  \   | |_| |  |  |/  /          
                |  |  |   |  __  | /  /__\  \  |    /   |      \           
                |  |  |   | |  | | |   __   |  |    \   |  |\   \          
                \     /   | |  | | |  |  |  |  | |\  \  |  | \   \       
                 \___/    |_|  |_| |__|  |__|  |_| \__\ |__|  \__/        
                                                                              
                      - O R C A' S   B I G   F R I E N D -                    
                                      &                                       
                       - I N T E G R A L  F E E D E R -                       
                                                                              
 v1 FN, 2020, v2 2021                                                         
------------------------------------------------------------------------------


Reading SHARK input file FOD.SHARKINP.tmp ... ok
----------------------
SHARK INTEGRAL PACKAGE
----------------------

Number of atoms                             ...     14
Number of basis functions                   ...    663
Number of shells                            ...    203
Maximum angular momentum                    ...      4
Integral batch strategy                     ... SHARK/LIBINT Hybrid
RI-J (if used) integral strategy            ... SPLIT-RIJ (Revised 2003 algorithm where possible)
Printlevel                                  ...      1
Contraction scheme used                     ... SEGMENTED contraction
Coulomb Range Separation                    ... NOT USED
Exchange Range Separation                   ... NOT USED
Finite Nucleus Model                        ... NOT USED
Auxiliary Coulomb fitting basis             ... AVAILABLE
   # of basis functions in Aux-J            ...    496
   # of shells in Aux-J                     ...    160
   Maximum angular momentum in Aux-J        ...      4
Auxiliary J/K fitting basis                 ... NOT available
Auxiliary Correlation fitting basis         ... NOT available
Auxiliary 'external' fitting basis          ... NOT available
Integral threshold                          ...     2.500000e-11
Primitive cut-off                           ...     2.500000e-12
Primitive pair pre-selection threshold      ...     2.500000e-12

Calculating pre-screening integrals         ... done (  5.9 sec) Dimension = 203
Organizing shell pair data                  ... done (  3.8 sec)
Shell pair information
Total number of shell pairs                 ...     20706
Shell pairs after pre-screening             ...     17254
Total number of primitive shell pairs       ...     53682
Primitive shell pairs kept                  ...     33711
          la=0 lb=0:   2619 shell pairs
          la=1 lb=0:   3636 shell pairs
          la=1 lb=1:   1222 shell pairs
          la=2 lb=0:   2465 shell pairs
          la=2 lb=1:   1690 shell pairs
          la=2 lb=2:    597 shell pairs
          la=3 lb=0:   1515 shell pairs
          la=3 lb=1:   1031 shell pairs
          la=3 lb=2:    718 shell pairs
          la=3 lb=3:    230 shell pairs
          la=4 lb=0:    618 shell pairs
          la=4 lb=1:    414 shell pairs
          la=4 lb=2:    280 shell pairs
          la=4 lb=3:    180 shell pairs
          la=4 lb=4:     39 shell pairs

Calculating one electron integrals          ... done (  1.1 sec)
Calculating RI/J V-Matrix + Cholesky decomp.... done (  0.1 sec)
Calculating Nuclear repulsion               ... done (  0.0 sec) ENN=    411.906933328615 Eh

SHARK setup successfully completed in  19.3 seconds

Maximum memory used throughout the entire GTOINT-calculation: 621.7 MB
-------------------------------------------------------------------------------
                                 ORCA SCF
-------------------------------------------------------------------------------

------------
SCF SETTINGS
------------
Hamiltonian:
 Density Functional     Method          .... DFT(GTOs)
 Exchange Functional    Exchange        .... B88
   X-Alpha parameter    XAlpha          ....  0.666667
   Becke's b parameter  XBeta           ....  0.004200
 Correlation Functional Correlation     .... LYP
 LDA part of GGA corr.  LDAOpt          .... VWN-5
 Gradients option       PostSCFGGA      .... off
 Hybrid DFT is turned on
   Fraction HF Exchange ScalHFX         ....  0.200000
   Scaling of DF-GGA-X  ScalDFX         ....  0.720000
   Scaling of DF-GGA-C  ScalDFC         ....  0.810000
   Scaling of DF-LDA-C  ScalLDAC        ....  1.000000
   Perturbative correction              ....  0.000000
   Density functional embedding theory  .... OFF
   NL short-range parameter             ....  4.800000
 RI-approximation to the Coulomb term is turned on
   Number of AuxJ basis functions       .... 496
   RIJ-COSX (HFX calculated with COS-X)).... on


General Settings:
 Integral files         IntName         .... FOD
 Hartree-Fock type      HFTyp           .... RHF
 Total Charge           Charge          ....    0
 Multiplicity           Mult            ....    1
 Number of Electrons    NEL             ....   64
 Basis Dimension        Dim             ....  663
 Nuclear Repulsion      ENuc            ....    411.9069333286 Eh

Convergence Acceleration:
 DIIS                   CNVDIIS         .... on
   Start iteration      DIISMaxIt       ....    12
   Startup error        DIISStart       ....  0.200000
   # of expansion vecs  DIISMaxEq       ....     5
   Bias factor          DIISBfac        ....   1.050
   Max. coefficient     DIISMaxC        ....  10.000
 Trust-Rad. Augm. Hess. CNVTRAH         .... off
 SOSCF                  CNVSOSCF        .... on
   Start iteration      SOSCFMaxIt      ....   150
   Startup grad/error   SOSCFStart      ....  0.003300
 Level Shifting         CNVShift        .... on
   Level shift para.    LevelShift      ....    0.2500
   Turn off err/grad.   ShiftErr        ....    0.0010
 Zerner damping         CNVZerner       .... off
 Static damping         CNVDamp         .... on
   Fraction old density DampFac         ....    0.7000
   Max. Damping (<1)    DampMax         ....    0.9800
   Min. Damping (>=0)   DampMin         ....    0.0000
   Turn off err/grad.   DampErr         ....    0.1000
 Fernandez-Rico         CNVRico         .... off

SCF Procedure:
 Maximum # iterations   MaxIter         ....   125
 SCF integral mode      SCFMode         .... Direct
   Integral package                     .... SHARK and LIBINT hybrid scheme
 Reset frequency        DirectResetFreq ....    20
 Integral Threshold     Thresh          ....  2.500e-11 Eh
 Primitive CutOff       TCut            ....  2.500e-12 Eh

Convergence Tolerance:
 Convergence Check Mode ConvCheckMode   .... Total+1el-Energy
 Convergence forced     ConvForced      .... 0
 Energy Change          TolE            ....  1.000e-08 Eh
 1-El. energy change                    ....  1.000e-05 Eh
 Orbital Gradient       TolG            ....  1.000e-05
 Orbital Rotation angle TolX            ....  1.000e-05
 DIIS Error             TolErr          ....  5.000e-07


Diagonalization of the overlap matrix:
Smallest eigenvalue                        ... 6.686e-06
Time for diagonalization                   ...    0.522 sec
Threshold for overlap eigenvalues          ... 1.000e-08
Number of eigenvalues below threshold      ... 0
Time for construction of square roots      ...    0.267 sec
Total time needed                          ...    0.791 sec

Time for model grid setup =    3.198 sec

------------------------------
INITIAL GUESS: MODEL POTENTIAL
------------------------------
Loading Hartree-Fock densities                     ... done
Calculating cut-offs                               ... done
Initializing the effective Hamiltonian             ... done
Setting up the integral package (SHARK)            ... done
Starting the Coulomb interaction                   ... done (   8.1 sec)
Reading the grid                                   ... done
Mapping shells                                     ... done
Starting the XC term evaluation                    ... done (  10.8 sec)
  promolecular density results
     # of electrons  =     63.996915917
     EX              =    -55.276896412
     EC              =     -2.209849109
     EX+EC           =    -57.486745521
Transforming the Hamiltonian                       ... done (   0.2 sec)
Diagonalizing the Hamiltonian                      ... done (   0.5 sec)
Back transforming the eigenvectors                 ... done (   0.1 sec)
Now organizing SCF variables                       ... done
                      ------------------
                      INITIAL GUESS DONE (  23.0 sec)
                      ------------------
-------------------
DFT GRID GENERATION
-------------------

General Integration Accuracy     IntAcc      ... 4.388
Radial Grid Type                 RadialGrid  ... OptM3 with GC (2021)
Angular Grid (max. ang.)         AngularGrid ... 4 (Lebedev-302)
Angular grid pruning method      GridPruning ... 4 (adaptive)
Weight generation scheme         WeightScheme... Becke
Basis function cutoff            BFCut       ... 1.0000e-11
Integration weight cutoff        WCut        ... 1.0000e-14
Angular grids for H and He will be reduced by one unit
Partially contracted basis set               ... off
Rotationally invariant grid construction     ... off

Total number of grid points                  ...    72884
Total number of batches                      ...     1146
Average number of points per batch           ...       63
Average number of grid points per atom       ...     5206
Time for grid setup =    9.470 sec

--------------------
COSX GRID GENERATION
--------------------

GRIDX 1
-------
General Integration Accuracy     IntAcc      ... 3.816
Radial Grid Type                 RadialGrid  ... OptM3 with GC (2021)
Angular Grid (max. ang.)         AngularGrid ... 1 (Lebedev-50)
Angular grid pruning method      GridPruning ... 4 (adaptive)
Weight generation scheme         WeightScheme... Becke
Basis function cutoff            BFCut       ... 1.0000e-11
Integration weight cutoff        WCut        ... 1.0000e-14
Angular grids for H and He will be reduced by one unit
Partially contracted basis set               ... on
Rotationally invariant grid construction     ... off

Total number of grid points                  ...     9298
Total number of batches                      ...      154
Average number of points per batch           ...       60
Average number of grid points per atom       ...      664
UseSFitting                                  ... on

GRIDX 2
-------
General Integration Accuracy     IntAcc      ... 4.020
Radial Grid Type                 RadialGrid  ... OptM3 with GC (2021)
Angular Grid (max. ang.)         AngularGrid ... 2 (Lebedev-110)
Angular grid pruning method      GridPruning ... 4 (adaptive)
Weight generation scheme         WeightScheme... Becke
Basis function cutoff            BFCut       ... 1.0000e-11
Integration weight cutoff        WCut        ... 1.0000e-14
Angular grids for H and He will be reduced by one unit
Partially contracted basis set               ... on
Rotationally invariant grid construction     ... off

Total number of grid points                  ...    23048
Total number of batches                      ...      369
Average number of points per batch           ...       62
Average number of grid points per atom       ...     1646
UseSFitting                                  ... on

GRIDX 3
-------
General Integration Accuracy     IntAcc      ... 4.338
Radial Grid Type                 RadialGrid  ... OptM3 with GC (2021)
Angular Grid (max. ang.)         AngularGrid ... 3 (Lebedev-194)
Angular grid pruning method      GridPruning ... 4 (adaptive)
Weight generation scheme         WeightScheme... Becke
Basis function cutoff            BFCut       ... 1.0000e-11
Integration weight cutoff        WCut        ... 1.0000e-14
Angular grids for H and He will be reduced by one unit
Partially contracted basis set               ... on
Rotationally invariant grid construction     ... off

Total number of grid points                  ...    49698
Total number of batches                      ...      784
Average number of points per batch           ...       63
Average number of grid points per atom       ...     3550
UseSFitting                                  ... on

Time for X-Grid setup             =   19.316 sec


Warning: Fractional occupation numbers cannot be used with CNVRico or SOSCF

--------------
SCF ITERATIONS
--------------
ITER       Energy         Delta-E        Max-DP      RMS-DP      [F,P]     Damp
               ***  Starting incremental Fock matrix formation  ***
  0   -436.4543401686   0.000000000000 0.04260477  0.00034025  0.2331918 0.7000
  1   -436.5804547960  -0.126114627389 0.02497060  0.00023045  0.0909552 0.7000
                               ***Turning on DIIS***
  2   -436.6262438300  -0.045789034016 0.03819124  0.00039247  0.0338989 0.0000
  3   -436.7046021273  -0.078358297311 0.01743585  0.00015110  0.0390411 0.0000
  4   -436.7152249244  -0.010622797136 0.00750290  0.00006643  0.0192839 0.0000
  5   -436.7160920403  -0.000867115836 0.00249291  0.00002943  0.0086326 0.0000
  6   -436.7162948851  -0.000202844806 0.00060539  0.00000958  0.0018322 0.0000
  7   -436.7163067949  -0.000011909842 0.00052753  0.00000682  0.0009940 0.0000
               *** Restarting incremental Fock matrix formation ***
                                   *** Resetting DIIS ***
  8   -436.7163159208  -0.000009125877 0.00055325  0.00000549  0.0001298 0.0000
  9   -436.7163157809   0.000000139900 0.00006887  0.00000061  0.0002429 0.0000
 10   -436.7163160481  -0.000000267199 0.00003174  0.00000027  0.0000585 0.0000
 11   -436.7163160584  -0.000000010270 0.00001990  0.00000021  0.0000746 0.0000
 12   -436.7163160640  -0.000000005612 0.00003800  0.00000030  0.0000234 0.0000
 13   -436.7163160584   0.000000005610 0.00006775  0.00000062  0.0000077 0.0000
                 **** Energy Check signals convergence ****
Fermi smearing:E(HOMO(Eh)) = -0.286798 MUE = -0.187091 gap=   5.078 eV

N_FOD =  0.017011

               *****************************************************
               *                     SUCCESS                       *
               *           SCF CONVERGED AFTER  14 CYCLES          *
               *****************************************************

Fermi smearing:E(HOMO(Eh)) = -0.286798 MUE = -0.187091 gap=   5.078 eV

N_FOD =  0.017011
Old exchange energy                            =    -11.153151243 Eh
New exchange energy                            =    -11.153150029 Eh
Exchange energy change after final integration =      0.000001214 Eh
Total energy after final integration           =   -436.716314851 Eh
Final COS-X integration done in                =   395.872 sec

----------------
TOTAL SCF ENERGY
----------------

Total Energy       :         -436.71631485 Eh          -11883.65508 eV

Components:
Nuclear Repulsion  :          411.90693333 Eh           11208.55749 eV
Electronic Energy  :         -848.62324818 Eh          -23092.21257 eV
One Electron Energy:        -1409.09660910 Eh          -38343.46808 eV
Two Electron Energy:          560.47336092 Eh           15251.25551 eV
Max COSX asymmetry :            0.00000101 Eh               0.00003 eV

Virial components:
Potential Energy   :         -871.50004831 Eh          -23714.72195 eV
Kinetic Energy     :          434.78373346 Eh           11831.06687 eV
Virial Ratio       :            2.00444493


DFT components:
N(Alpha)           :       31.999939169655 electrons
N(Beta)            :       31.999939169655 electrons
N(Total)           :       63.999878339310 electrons
E(X)               :      -44.444697131328 Eh       
E(C)               :       -2.604284181373 Eh       
E(XC)              :      -47.048981312700 Eh       
DFET-embed. en.    :        0.000000000000 Eh       

---------------
SCF CONVERGENCE
---------------

  Last Energy change         ...   -6.2288e-09  Tolerance :   1.0000e-08
  Last MAX-Density change    ...    0.0000e+00  Tolerance :   1.0000e-07
  Last RMS-Density change    ...    0.0000e+00  Tolerance :   5.0000e-09
  Last DIIS Error            ...    1.1505e-06  Tolerance :   5.0000e-07

             **** THE GBW FILE WAS UPDATED (FOD.gbw) ****
             **** DENSITY FOD.scfp WAS UPDATED ****
             **** ENERGY FILE WAS UPDATED (FOD.en.tmp) ****
             **** THE GBW FILE WAS UPDATED (FOD.gbw) ****
             **** DENSITY FOD.scfp WAS UPDATED ****
----------------
ORBITAL ENERGIES
----------------

  NO   OCC          E(Eh)            E(eV) 
   0   2.0000     -19.163769      -521.4727 
   1   2.0000     -19.163738      -521.4718 
   2   2.0000     -14.558903      -396.1679 
   3   2.0000     -10.248265      -278.8695 
   4   2.0000     -10.213511      -277.9238 
   5   2.0000     -10.213455      -277.9222 
   6   2.0000     -10.212538      -277.8973 
   7   2.0000     -10.209926      -277.8262 
   8   2.0000     -10.209863      -277.8245 
   9   2.0000      -1.237972       -33.6869 
  10   2.0000      -1.064727       -28.9727 
  11   2.0000      -0.896147       -24.3854 
  12   2.0000      -0.812409       -22.1068 
  13   2.0000      -0.778868       -21.1941 
  14   2.0000      -0.707622       -19.2554 
  15   2.0000      -0.638337       -17.3700 
  16   2.0000      -0.603662       -16.4265 
  17   2.0000      -0.571105       -15.5405 
  18   2.0000      -0.544703       -14.8221 
  19   2.0000      -0.523234       -14.2379 
  20   2.0000      -0.516940       -14.0666 
  21   2.0000      -0.479918       -13.0592 
  22   2.0000      -0.471392       -12.8272 
  23   2.0000      -0.453888       -12.3509 
  24   2.0000      -0.400011       -10.8849 
  25   2.0000      -0.396159       -10.7800 
  26   2.0000      -0.377747       -10.2790 
  27   1.9996      -0.323991        -8.8162 
  28   1.9995      -0.319348        -8.6899 
  29   1.9988      -0.304103        -8.2751 
  30   1.9972      -0.291386        -7.9290 
  31   1.9963      -0.286798        -7.8042 
  32   0.0082      -0.100184        -2.7261 
  33   0.0002      -0.043115        -1.1732 
  34   0.0000      -0.014940        -0.4065 
  35   0.0000       0.011575         0.3150 
  36   0.0000       0.037083         1.0091 
  37   0.0000       0.047032         1.2798 
  38   0.0000       0.070773         1.9258 
  39   0.0000       0.076545         2.0829 
  40   0.0000       0.089245         2.4285 
  41   0.0000       0.102724         2.7953 
  42   0.0000       0.117024         3.1844 
  43   0.0000       0.120164         3.2698 
  44   0.0000       0.139611         3.7990 
  45   0.0000       0.141092         3.8393 
  46   0.0000       0.146466         3.9855 
  47   0.0000       0.149086         4.0568 
  48   0.0000       0.150975         4.1082 
  49   0.0000       0.181553         4.9403 
  50   0.0000       0.192874         5.2484 
  51   0.0000       0.201181         5.4744 
  52   0.0000       0.214557         5.8384 
  53   0.0000       0.214977         5.8498 
  54   0.0000       0.215782         5.8717 
  55   0.0000       0.238586         6.4923 
  56   0.0000       0.245495         6.6803 
  57   0.0000       0.261218         7.1081 
  58   0.0000       0.261835         7.1249 
  59   0.0000       0.266270         7.2456 
  60   0.0000       0.280275         7.6267 
  61   0.0000       0.281938         7.6719 
  62   0.0000       0.287779         7.8309 
  63   0.0000       0.295119         8.0306 
  64   0.0000       0.299018         8.1367 
  65   0.0000       0.302446         8.2300 
  66   0.0000       0.320210         8.7133 
  67   0.0000       0.347361         9.4522 
  68   0.0000       0.347961         9.4685 
  69   0.0000       0.353621         9.6225 
  70   0.0000       0.357071         9.7164 
  71   0.0000       0.374585        10.1930 
  72   0.0000       0.378434        10.2977 
  73   0.0000       0.397169        10.8075 
  74   0.0000       0.408125        11.1056 
  75   0.0000       0.410220        11.1626 
  76   0.0000       0.435367        11.8469 
  77   0.0000       0.440402        11.9839 
  78   0.0000       0.454878        12.3779 
  79   0.0000       0.458474        12.4757 
  80   0.0000       0.466211        12.6863 
  81   0.0000       0.469766        12.7830 
  82   0.0000       0.486779        13.2459 
  83   0.0000       0.499294        13.5865 
  84   0.0000       0.502086        13.6624 
  85   0.0000       0.502729        13.6800 
  86   0.0000       0.510665        13.8959 
  87   0.0000       0.528717        14.3871 
  88   0.0000       0.537163        14.6169 
  89   0.0000       0.541537        14.7360 
  90   0.0000       0.561152        15.2697 
  91   0.0000       0.583898        15.8887 
  92   0.0000       0.599412        16.3108 
  93   0.0000       0.611791        16.6477 
  94   0.0000       0.637648        17.3513 
  95   0.0000       0.644892        17.5484 
  96   0.0000       0.651567        17.7300 
  97   0.0000       0.680706        18.5230 
  98   0.0000       0.691813        18.8252 
  99   0.0000       0.691889        18.8272 
 100   0.0000       0.697763        18.9871 
 101   0.0000       0.705373        19.1942 
 102   0.0000       0.711589        19.3633 
 103   0.0000       0.722964        19.6728 
 104   0.0000       0.725616        19.7450 
 105   0.0000       0.738548        20.0969 
 106   0.0000       0.739082        20.1114 
 107   0.0000       0.761899        20.7323 
 108   0.0000       0.785130        21.3645 
 109   0.0000       0.790153        21.5012 
 110   0.0000       0.814374        22.1602 
 111   0.0000       0.831228        22.6189 
 112   0.0000       0.834418        22.7057 
 113   0.0000       0.844632        22.9836 
 114   0.0000       0.847632        23.0652 
 115   0.0000       0.854102        23.2413 
 116   0.0000       0.875185        23.8150 
 117   0.0000       0.883059        24.0292 
 118   0.0000       0.883845        24.0506 
 119   0.0000       0.884753        24.0754 
 120   0.0000       0.889264        24.1981 
 121   0.0000       0.928972        25.2786 
 122   0.0000       0.947358        25.7789 
 123   0.0000       0.948712        25.8158 
 124   0.0000       0.957747        26.0616 
 125   0.0000       0.965783        26.2803 
 126   0.0000       0.980353        26.6768 
 127   0.0000       0.983841        26.7717 
 128   0.0000       0.990834        26.9620 
 129   0.0000       1.007992        27.4288 
 130   0.0000       1.017556        27.6891 
 131   0.0000       1.028617        27.9901 
 132   0.0000       1.038087        28.2478 
 133   0.0000       1.074464        29.2377 
 134   0.0000       1.081718        29.4350 
 135   0.0000       1.099324        29.9141 
 136   0.0000       1.100738        29.9526 
 137   0.0000       1.106386        30.1063 
 138   0.0000       1.119885        30.4736 
 139   0.0000       1.122185        30.5362 
 140   0.0000       1.156763        31.4771 
 141   0.0000       1.170964        31.8636 
 142   0.0000       1.176556        32.0157 
 143   0.0000       1.188100        32.3299 
 144   0.0000       1.206043        32.8181 
 145   0.0000       1.222678        33.2707 
 146   0.0000       1.242079        33.7987 
 147   0.0000       1.254441        34.1351 
 148   0.0000       1.254912        34.1479 
 149   0.0000       1.287612        35.0377 
 150   0.0000       1.302972        35.4557 
 151   0.0000       1.326442        36.0943 
 152   0.0000       1.345057        36.6009 
 153   0.0000       1.360963        37.0337 
 154   0.0000       1.400196        38.1013 
 155   0.0000       1.408639        38.3310 
 156   0.0000       1.410638        38.3854 
 157   0.0000       1.419483        38.6261 
 158   0.0000       1.422015        38.6950 
 159   0.0000       1.474694        40.1285 
 160   0.0000       1.489307        40.5261 
 161   0.0000       1.493396        40.6374 
 162   0.0000       1.504255        40.9329 
 163   0.0000       1.518529        41.3213 
 164   0.0000       1.531495        41.6741 
 165   0.0000       1.545292        42.0495 
 166   0.0000       1.548019        42.1237 
 167   0.0000       1.550804        42.1995 
 168   0.0000       1.567113        42.6433 
 169   0.0000       1.583805        43.0975 
 170   0.0000       1.592519        43.3346 
 171   0.0000       1.618684        44.0466 
 172   0.0000       1.641405        44.6649 
 173   0.0000       1.654982        45.0344 
 174   0.0000       1.676744        45.6265 
 175   0.0000       1.698172        46.2096 
 176   0.0000       1.703760        46.3617 
 177   0.0000       1.713965        46.6394 
 178   0.0000       1.722784        46.8793 
 179   0.0000       1.741244        47.3816 
 180   0.0000       1.760754        47.9126 
 181   0.0000       1.766065        48.0571 
 182   0.0000       1.774496        48.2865 
 183   0.0000       1.782888        48.5148 
 184   0.0000       1.802850        49.0580 
 185   0.0000       1.804166        49.0938 
 186   0.0000       1.823666        49.6245 
 187   0.0000       1.830141        49.8007 
 188   0.0000       1.849801        50.3357 
 189   0.0000       1.869273        50.8655 
 190   0.0000       1.900307        51.7100 
 191   0.0000       1.908616        51.9361 
 192   0.0000       1.910562        51.9890 
 193   0.0000       1.928955        52.4895 
 194   0.0000       1.941042        52.8184 
 195   0.0000       1.949987        53.0619 
 196   0.0000       1.956659        53.2434 
 197   0.0000       1.976869        53.7933 
 198   0.0000       1.984988        54.0143 
 199   0.0000       1.990818        54.1729 
 200   0.0000       2.002235        54.4836 
 201   0.0000       2.026011        55.1306 
 202   0.0000       2.029793        55.2335 
 203   0.0000       2.049678        55.7746 
 204   0.0000       2.064159        56.1686 
 205   0.0000       2.071870        56.3784 
 206   0.0000       2.087132        56.7938 
 207   0.0000       2.107423        57.3459 
 208   0.0000       2.124599        57.8133 
 209   0.0000       2.137472        58.1636 
 210   0.0000       2.165886        58.9368 
 211   0.0000       2.172626        59.1202 
 212   0.0000       2.181070        59.3499 
 213   0.0000       2.185172        59.4616 
 214   0.0000       2.202207        59.9251 
 215   0.0000       2.216578        60.3162 
 216   0.0000       2.223850        60.5140 
 217   0.0000       2.229500        60.6678 
 218   0.0000       2.236389        60.8552 
 219   0.0000       2.250303        61.2339 
 220   0.0000       2.265980        61.6605 
 221   0.0000       2.270335        61.7790 
 222   0.0000       2.277063        61.9620 
 223   0.0000       2.292697        62.3874 
 224   0.0000       2.314999        62.9943 
 225   0.0000       2.350742        63.9669 
 226   0.0000       2.377020        64.6820 
 227   0.0000       2.385026        64.8998 
 228   0.0000       2.393766        65.1377 
 229   0.0000       2.394673        65.1624 
 230   0.0000       2.413880        65.6850 
 231   0.0000       2.432149        66.1821 
 232   0.0000       2.433898        66.2297 
 233   0.0000       2.435766        66.2806 
 234   0.0000       2.462075        66.9965 
 235   0.0000       2.463498        67.0352 
 236   0.0000       2.488025        67.7026 
 237   0.0000       2.512673        68.3733 
 238   0.0000       2.526766        68.7568 
 239   0.0000       2.528543        68.8051 
 240   0.0000       2.539650        69.1074 
 241   0.0000       2.569040        69.9071 
 242   0.0000       2.595441        70.6255 
 243   0.0000       2.597513        70.6819 
 244   0.0000       2.597650        70.6857 
 245   0.0000       2.613372        71.1135 
 246   0.0000       2.623282        71.3831 
 247   0.0000       2.626449        71.4693 
 248   0.0000       2.634493        71.6882 
 249   0.0000       2.636404        71.7402 
 250   0.0000       2.660577        72.3980 
 251   0.0000       2.663511        72.4778 
 252   0.0000       2.671973        72.7081 
 253   0.0000       2.695562        73.3500 
 254   0.0000       2.706305        73.6423 
 255   0.0000       2.712191        73.8025 
 256   0.0000       2.716284        73.9138 
 257   0.0000       2.742391        74.6243 
 258   0.0000       2.755416        74.9787 
 259   0.0000       2.773343        75.4665 
 260   0.0000       2.776846        75.5618 
 261   0.0000       2.784428        75.7681 
 262   0.0000       2.819704        76.7281 
 263   0.0000       2.848123        77.5014 
 264   0.0000       2.848606        77.5145 
 265   0.0000       2.873143        78.1822 
 266   0.0000       2.891412        78.6793 
 267   0.0000       2.895031        78.7778 
 268   0.0000       2.898624        78.8756 
 269   0.0000       2.950349        80.2831 
 270   0.0000       2.954545        80.3973 
 271   0.0000       2.957250        80.4709 
 272   0.0000       2.966551        80.7239 
 273   0.0000       2.981859        81.1405 
 274   0.0000       3.051250        83.0287 
 275   0.0000       3.051263        83.0291 
 276   0.0000       3.087763        84.0223 
 277   0.0000       3.088536        84.0433 
 278   0.0000       3.099440        84.3400 
 279   0.0000       3.110983        84.6542 
 280   0.0000       3.115341        84.7727 
 281   0.0000       3.141710        85.4903 
 282   0.0000       3.178222        86.4838 
 283   0.0000       3.217571        87.5546 
 284   0.0000       3.222834        87.6978 
 285   0.0000       3.237500        88.0969 
 286   0.0000       3.267261        88.9067 
 287   0.0000       3.270243        88.9878 
 288   0.0000       3.328069        90.5614 
 289   0.0000       3.330348        90.6234 
 290   0.0000       3.344935        91.0203 
 291   0.0000       3.360948        91.4560 
 292   0.0000       3.361550        91.4724 
 293   0.0000       3.364810        91.5611 
 294   0.0000       3.393196        92.3336 
 295   0.0000       3.408942        92.7620 
 296   0.0000       3.420341        93.0722 
 297   0.0000       3.426596        93.2424 
 298   0.0000       3.451725        93.9262 
 299   0.0000       3.461641        94.1960 
 300   0.0000       3.487866        94.9097 
 301   0.0000       3.488279        94.9209 
 302   0.0000       3.494426        95.0882 
 303   0.0000       3.495911        95.1286 
 304   0.0000       3.541743        96.3757 
 305   0.0000       3.557146        96.7949 
 306   0.0000       3.622944        98.5853 
 307   0.0000       3.631470        98.8173 
 308   0.0000       3.693839       100.5145 
 309   0.0000       3.695031       100.5469 
 310   0.0000       3.702571       100.7521 
 311   0.0000       3.712167       101.0132 
 312   0.0000       3.763955       102.4224 
 313   0.0000       3.779201       102.8373 
 314   0.0000       3.786501       103.0359 
 315   0.0000       3.795745       103.2875 
 316   0.0000       3.818944       103.9188 
 317   0.0000       3.863734       105.1375 
 318   0.0000       3.884662       105.7070 
 319   0.0000       3.919682       106.6600 
 320   0.0000       3.923731       106.7701 
 321   0.0000       3.970358       108.0389 
 322   0.0000       3.995406       108.7205 
 323   0.0000       4.026962       109.5792 
 324   0.0000       4.033710       109.7628 
 325   0.0000       4.033818       109.7658 
 326   0.0000       4.066909       110.6662 
 327   0.0000       4.073353       110.8416 
 328   0.0000       4.098189       111.5174 
 329   0.0000       4.104907       111.7002 
 330   0.0000       4.137180       112.5784 
 331   0.0000       4.210221       114.5659 
 332   0.0000       4.224352       114.9505 
 333   0.0000       4.234906       115.2376 
 334   0.0000       4.255251       115.7913 
 335   0.0000       4.303919       117.1156 
 336   0.0000       4.331849       117.8756 
 337   0.0000       4.351679       118.4152 
 338   0.0000       4.363181       118.7282 
 339   0.0000       4.407665       119.9387 
 340   0.0000       4.428716       120.5115 
 341   0.0000       4.448836       121.0590 
 342   0.0000       4.527679       123.2044 
 343   0.0000       4.533151       123.3533 
 344   0.0000       4.549318       123.7932 
 345   0.0000       4.563322       124.1743 
 346   0.0000       4.608989       125.4170 
 347   0.0000       4.640118       126.2640 
 348   0.0000       4.665407       126.9522 
 349   0.0000       4.695993       127.7845 
 350   0.0000       4.718489       128.3966 
 351   0.0000       4.756911       129.4421 
 352   0.0000       4.780353       130.0800 
 353   0.0000       4.780426       130.0820 
 354   0.0000       4.819588       131.1477 
 355   0.0000       4.850490       131.9885 
 356   0.0000       4.867174       132.4425 
 357   0.0000       4.902003       133.3903 
 358   0.0000       4.910679       133.6264 
 359   0.0000       4.930984       134.1789 
 360   0.0000       4.987863       135.7266 
 361   0.0000       4.990731       135.8047 
 362   0.0000       5.011190       136.3614 
 363   0.0000       5.015630       136.4822 
 364   0.0000       5.026299       136.7725 
 365   0.0000       5.055697       137.5725 
 366   0.0000       5.063732       137.7911 
 367   0.0000       5.080947       138.2596 
 368   0.0000       5.131639       139.6390 
 369   0.0000       5.181850       141.0053 
 370   0.0000       5.188432       141.1844 
 371   0.0000       5.192916       141.3064 
 372   0.0000       5.193301       141.3169 
 373   0.0000       5.209618       141.7609 
 374   0.0000       5.212457       141.8382 
 375   0.0000       5.242568       142.6575 
 376   0.0000       5.247907       142.8028 
 377   0.0000       5.297419       144.1501 
 378   0.0000       5.315410       144.6396 
 379   0.0000       5.322851       144.8421 
 380   0.0000       5.358437       145.8105 
 381   0.0000       5.359088       145.8282 
 382   0.0000       5.362531       145.9219 
 383   0.0000       5.363854       145.9579 
 384   0.0000       5.403340       147.0323 
 385   0.0000       5.421468       147.5256 
 386   0.0000       5.485916       149.2794 
 387   0.0000       5.490565       149.4059 
 388   0.0000       5.508172       149.8850 
 389   0.0000       5.509547       149.9224 
 390   0.0000       5.524042       150.3168 
 391   0.0000       5.588225       152.0633 
 392   0.0000       5.601324       152.4198 
 393   0.0000       5.626566       153.1067 
 394   0.0000       5.636006       153.3635 
 395   0.0000       5.659903       154.0138 
 396   0.0000       5.693135       154.9181 
 397   0.0000       5.738380       156.1492 
 398   0.0000       5.759222       156.7164 
 399   0.0000       5.774944       157.1442 
 400   0.0000       5.775956       157.1718 
 401   0.0000       5.826863       158.5570 
 402   0.0000       5.845249       159.0573 
 403   0.0000       5.855217       159.3286 
 404   0.0000       5.882813       160.0795 
 405   0.0000       5.885032       160.1399 
 406   0.0000       5.887989       160.2203 
 407   0.0000       5.924010       161.2005 
 408   0.0000       5.950824       161.9302 
 409   0.0000       5.971046       162.4804 
 410   0.0000       5.975542       162.6028 
 411   0.0000       5.996262       163.1666 
 412   0.0000       6.000029       163.2691 
 413   0.0000       6.023584       163.9101 
 414   0.0000       6.060322       164.9098 
 415   0.0000       6.061447       164.9403 
 416   0.0000       6.072287       165.2353 
 417   0.0000       6.075757       165.3298 
 418   0.0000       6.084915       165.5789 
 419   0.0000       6.095710       165.8727 
 420   0.0000       6.103049       166.0724 
 421   0.0000       6.121656       166.5787 
 422   0.0000       6.136704       166.9882 
 423   0.0000       6.143233       167.1659 
 424   0.0000       6.182228       168.2270 
 425   0.0000       6.193906       168.5448 
 426   0.0000       6.207041       168.9022 
 427   0.0000       6.237476       169.7303 
 428   0.0000       6.243684       169.8993 
 429   0.0000       6.246662       169.9803 
 430   0.0000       6.266219       170.5125 
 431   0.0000       6.268839       170.5838 
 432   0.0000       6.269552       170.6032 
 433   0.0000       6.282121       170.9452 
 434   0.0000       6.320971       172.0024 
 435   0.0000       6.338394       172.4765 
 436   0.0000       6.340354       172.5298 
 437   0.0000       6.358083       173.0122 
 438   0.0000       6.397284       174.0789 
 439   0.0000       6.398692       174.1173 
 440   0.0000       6.414648       174.5514 
 441   0.0000       6.445999       175.4045 
 442   0.0000       6.468839       176.0261 
 443   0.0000       6.474544       176.1813 
 444   0.0000       6.485497       176.4793 
 445   0.0000       6.525525       177.5686 
 446   0.0000       6.549246       178.2140 
 447   0.0000       6.572455       178.8456 
 448   0.0000       6.580142       179.0548 
 449   0.0000       6.593097       179.4073 
 450   0.0000       6.606143       179.7623 
 451   0.0000       6.613732       179.9688 
 452   0.0000       6.627235       180.3362 
 453   0.0000       6.639735       180.6764 
 454   0.0000       6.663119       181.3127 
 455   0.0000       6.669784       181.4940 
 456   0.0000       6.699769       182.3100 
 457   0.0000       6.712865       182.6663 
 458   0.0000       6.728299       183.0863 
 459   0.0000       6.737640       183.3405 
 460   0.0000       6.738075       183.3523 
 461   0.0000       6.840182       186.1308 
 462   0.0000       6.852993       186.4794 
 463   0.0000       6.873341       187.0331 
 464   0.0000       6.891089       187.5161 
 465   0.0000       6.907769       187.9700 
 466   0.0000       6.918586       188.2643 
 467   0.0000       6.925918       188.4638 
 468   0.0000       6.954722       189.2476 
 469   0.0000       6.978596       189.8972 
 470   0.0000       6.994890       190.3406 
 471   0.0000       7.028432       191.2534 
 472   0.0000       7.103535       193.2970 
 473   0.0000       7.107495       193.4048 
 474   0.0000       7.108812       193.4406 
 475   0.0000       7.119907       193.7425 
 476   0.0000       7.222524       196.5349 
 477   0.0000       7.234627       196.8642 
 478   0.0000       7.247240       197.2074 
 479   0.0000       7.268820       197.7946 
 480   0.0000       7.275029       197.9636 
 481   0.0000       7.336160       199.6271 
 482   0.0000       7.345849       199.8907 
 483   0.0000       7.393849       201.1968 
 484   0.0000       7.414077       201.7473 
 485   0.0000       7.419366       201.8912 
 486   0.0000       7.427722       202.1186 
 487   0.0000       7.436189       202.3490 
 488   0.0000       7.454616       202.8504 
 489   0.0000       7.459371       202.9798 
 490   0.0000       7.476769       203.4532 
 491   0.0000       7.493251       203.9017 
 492   0.0000       7.502327       204.1487 
 493   0.0000       7.503841       204.1899 
 494   0.0000       7.516389       204.5313 
 495   0.0000       7.535255       205.0447 
 496   0.0000       7.578917       206.2328 
 497   0.0000       7.602162       206.8653 
 498   0.0000       7.622989       207.4321 
 499   0.0000       7.665541       208.5900 
 500   0.0000       7.680710       209.0027 
 501   0.0000       7.694432       209.3761 
 502   0.0000       7.765254       211.3033 
 503   0.0000       7.770033       211.4333 
 504   0.0000       7.820292       212.8010 
 505   0.0000       7.839337       213.3192 
 506   0.0000       7.867388       214.0825 
 507   0.0000       7.877183       214.3491 
 508   0.0000       7.899373       214.9529 
 509   0.0000       7.921996       215.5685 
 510   0.0000       7.927474       215.7175 
 511   0.0000       7.952838       216.4077 
 512   0.0000       7.958055       216.5497 
 513   0.0000       7.975467       217.0235 
 514   0.0000       8.074482       219.7178 
 515   0.0000       8.082428       219.9340 
 516   0.0000       8.091420       220.1787 
 517   0.0000       8.108637       220.6472 
 518   0.0000       8.134796       221.3591 
 519   0.0000       8.152322       221.8360 
 520   0.0000       8.163091       222.1290 
 521   0.0000       8.172290       222.3793 
 522   0.0000       8.206321       223.3054 
 523   0.0000       8.220645       223.6951 
 524   0.0000       8.246100       224.3878 
 525   0.0000       8.247291       224.4202 
 526   0.0000       8.268690       225.0025 
 527   0.0000       8.274597       225.1632 
 528   0.0000       8.278367       225.2658 
 529   0.0000       8.296801       225.7674 
 530   0.0000       8.305364       226.0005 
 531   0.0000       8.346983       227.1330 
 532   0.0000       8.348085       227.1629 
 533   0.0000       8.365528       227.6376 
 534   0.0000       8.367255       227.6846 
 535   0.0000       8.389902       228.3008 
 536   0.0000       8.411349       228.8844 
 537   0.0000       8.425872       229.2796 
 538   0.0000       8.439775       229.6580 
 539   0.0000       8.489520       231.0116 
 540   0.0000       8.510647       231.5865 
 541   0.0000       8.515404       231.7159 
 542   0.0000       8.536482       232.2895 
 543   0.0000       8.552334       232.7208 
 544   0.0000       8.559566       232.9176 
 545   0.0000       8.640156       235.1106 
 546   0.0000       8.643797       235.2097 
 547   0.0000       8.651635       235.4230 
 548   0.0000       8.652040       235.4340 
 549   0.0000       8.680579       236.2106 
 550   0.0000       8.731182       237.5876 
 551   0.0000       8.740904       237.8521 
 552   0.0000       8.785210       239.0577 
 553   0.0000       8.840183       240.5536 
 554   0.0000       8.848045       240.7675 
 555   0.0000       8.850603       240.8371 
 556   0.0000       8.850719       240.8403 
 557   0.0000       8.867180       241.2882 
 558   0.0000       8.875918       241.5260 
 559   0.0000       8.889508       241.8958 
 560   0.0000       8.906622       242.3615 
 561   0.0000       8.918958       242.6972 
 562   0.0000       8.968585       244.0476 
 563   0.0000       8.996862       244.8171 
 564   0.0000       9.000959       244.9285 
 565   0.0000       9.014917       245.3084 
 566   0.0000       9.078197       247.0303 
 567   0.0000       9.139810       248.7069 
 568   0.0000       9.142571       248.7820 
 569   0.0000       9.186876       249.9876 
 570   0.0000       9.265623       252.1304 
 571   0.0000       9.339970       254.1535 
 572   0.0000       9.371549       255.0128 
 573   0.0000       9.417769       256.2705 
 574   0.0000       9.450219       257.1535 
 575   0.0000       9.520391       259.0630 
 576   0.0000       9.541923       259.6489 
 577   0.0000       9.580552       260.7001 
 578   0.0000       9.640228       262.3239 
 579   0.0000       9.653888       262.6956 
 580   0.0000       9.696801       263.8634 
 581   0.0000       9.746506       265.2159 
 582   0.0000       9.748052       265.2580 
 583   0.0000       9.785940       266.2890 
 584   0.0000       9.792840       266.4767 
 585   0.0000       9.835743       267.6442 
 586   0.0000       9.924390       270.0564 
 587   0.0000       9.931796       270.2579 
 588   0.0000       9.958331       270.9800 
 589   0.0000       9.976234       271.4671 
 590   0.0000       9.999006       272.0868 
 591   0.0000      10.016917       272.5742 
 592   0.0000      10.093799       274.6662 
 593   0.0000      10.172485       276.8074 
 594   0.0000      10.213420       277.9213 
 595   0.0000      10.215858       277.9876 
 596   0.0000      10.240229       278.6508 
 597   0.0000      10.294302       280.1222 
 598   0.0000      10.352245       281.6989 
 599   0.0000      10.460743       284.6513 
 600   0.0000      10.464034       284.7408 
 601   0.0000      10.603223       288.5284 
 602   0.0000      10.637000       289.4475 
 603   0.0000      10.653375       289.8931 
 604   0.0000      10.726309       291.8777 
 605   0.0000      10.779146       293.3155 
 606   0.0000      10.786064       293.5037 
 607   0.0000      10.789449       293.5958 
 608   0.0000      10.835189       294.8405 
 609   0.0000      10.846088       295.1371 
 610   0.0000      10.957102       298.1579 
 611   0.0000      10.959529       298.2239 
 612   0.0000      11.019472       299.8551 
 613   0.0000      11.043970       300.5217 
 614   0.0000      11.209185       305.0174 
 615   0.0000      11.304087       307.5999 
 616   0.0000      11.326166       308.2007 
 617   0.0000      11.340573       308.5927 
 618   0.0000      11.388937       309.9087 
 619   0.0000      11.452758       311.6454 
 620   0.0000      11.722521       318.9860 
 621   0.0000      11.724443       319.0383 
 622   0.0000      11.750975       319.7603 
 623   0.0000      11.761201       320.0386 
 624   0.0000      11.999540       326.5241 
 625   0.0000      12.030011       327.3532 
 626   0.0000      12.073793       328.5446 
 627   0.0000      12.082802       328.7897 
 628   0.0000      12.150056       330.6198 
 629   0.0000      12.165122       331.0298 
 630   0.0000      12.207535       332.1839 
 631   0.0000      12.307705       334.9097 
 632   0.0000      12.466881       339.2411 
 633   0.0000      12.553157       341.5888 
 634   0.0000      12.680284       345.0481 
 635   0.0000      12.851974       349.7200 
 636   0.0000      13.097575       356.4031 
 637   0.0000      13.202153       359.2488 
 638   0.0000      13.300319       361.9201 
 639   0.0000      13.567808       369.1988 
 640   0.0000      13.684231       372.3668 
 641   0.0000      14.119630       384.2147 
 642   0.0000      14.154342       385.1592 
 643   0.0000      15.062046       409.8591 
 644   0.0000      15.100296       410.8999 
 645   0.0000      27.832141       757.3511 
 646   0.0000      28.334070       771.0092 
 647   0.0000      28.476099       774.8740 
 648   0.0000      28.831952       784.5573 
 649   0.0000      28.945015       787.6339 
 650   0.0000      29.268725       796.4425 
 651   0.0000      37.630166      1023.9689 
 652   0.0000      48.078646      1308.2865 
 653   0.0000      48.146267      1310.1265 
 654   0.0000     146.897662      3997.2886 
 655   0.0000     147.380388      4010.4242 
 656   0.0000     147.524259      4014.3392 
 657   0.0000     147.837256      4022.8562 
 658   0.0000     147.948684      4025.8884 
 659   0.0000     148.298184      4035.3987 
 660   0.0000     196.914402      5358.3133 
 661   0.0000     253.099619      6887.1908 
 662   0.0000     253.171713      6889.1525 

                    ********************************
                    * MULLIKEN POPULATION ANALYSIS *
                    ********************************

------------------------------------------
FOD BASED MULLIKEN REDUCED ORBITAL CHARGES
------------------------------------------
  0 C s       :     0.000006  s :     0.000006
      pz      :     0.001108  p :     0.001158
      px      :     0.000004
      py      :     0.000046
      dz2     :    -0.000000  d :     0.000193
      dxz     :     0.000073
      dyz     :     0.000122
      dx2y2   :     0.000001
      dxy     :    -0.000003
      f0      :     0.000001  f :     0.000022
      f+1     :     0.000000
      f-1     :    -0.000000
      f+2     :     0.000012
      f-2     :     0.000007
      f+3     :     0.000001
      f-3     :     0.000001
      g0      :    -0.000000  g :     0.000001
      g+1     :     0.000000
      g-1     :     0.000001
      g+2     :     0.000000
      g-2     :     0.000000
      g+3     :     0.000000
      g-3     :     0.000000
      g+4     :     0.000000
      g-4     :     0.000000
  1 C s       :     0.000000  s :     0.000000
      pz      :     0.001699  p :     0.001715
      px      :     0.000001
      py      :     0.000015
      dz2     :     0.000000  d :     0.000073
      dxz     :     0.000013
      dyz     :     0.000057
      dx2y2   :     0.000002
      dxy     :     0.000001
      f0      :     0.000001  f :     0.000008
      f+1     :    -0.000000
      f-1     :     0.000000
      f+2     :     0.000003
      f-2     :     0.000004
      f+3     :     0.000000
      f-3     :     0.000000
      g0      :     0.000000  g :     0.000001
      g+1     :     0.000000
      g-1     :     0.000000
      g+2     :     0.000000
      g-2     :     0.000000
      g+3     :     0.000000
      g-3     :     0.000000
      g+4     :     0.000000
      g-4     :     0.000000
  2 C s       :    -0.000001  s :    -0.000001
      pz      :     0.001171  p :     0.001176
      px      :     0.000000
      py      :     0.000006
      dz2     :    -0.000000  d :     0.000126
      dxz     :     0.000056
      dyz     :     0.000069
      dx2y2   :     0.000000
      dxy     :     0.000001
      f0      :     0.000001  f :     0.000010
      f+1     :     0.000000
      f-1     :     0.000000
      f+2     :     0.000008
      f-2     :     0.000001
      f+3     :     0.000000
      f-3     :    -0.000000
      g0      :    -0.000000  g :     0.000001
      g+1     :     0.000000
      g-1     :     0.000000
      g+2     :     0.000000
      g-2     :     0.000000
      g+3     :     0.000000
      g-3     :     0.000000
      g+4     :     0.000000
      g-4     :     0.000000
  3 C s       :    -0.000003  s :    -0.000003
      pz      :     0.001696  p :     0.001699
      px      :     0.000003
      py      :    -0.000001
      dz2     :     0.000000  d :     0.000072
      dxz     :     0.000060
      dyz     :     0.000013
      dx2y2   :     0.000000
      dxy     :    -0.000001
      f0      :     0.000001  f :     0.000008
      f+1     :    -0.000000
      f-1     :     0.000000
      f+2     :     0.000001
      f-2     :     0.000005
      f+3     :     0.000000
      f-3     :     0.000000
      g0      :     0.000000  g :     0.000000
      g+1     :     0.000000
      g-1     :     0.000000
      g+2     :     0.000000
      g-2     :     0.000000
      g+3     :     0.000000
      g-3     :     0.000000
      g+4     :     0.000000
      g-4     :     0.000000
  4 C s       :    -0.000001  s :    -0.000001
      pz      :     0.001171  p :     0.001176
      px      :    -0.000000
      py      :     0.000006
      dz2     :    -0.000000  d :     0.000126
      dxz     :     0.000020
      dyz     :     0.000105
      dx2y2   :     0.000001
      dxy     :     0.000001
      f0      :     0.000001  f :     0.000010
      f+1     :     0.000000
      f-1     :    -0.000000
      f+2     :     0.000004
      f-2     :     0.000005
      f+3     :     0.000000
      f-3     :     0.000000
      g0      :    -0.000000  g :     0.000001
      g+1     :     0.000000
      g-1     :     0.000000
      g+2     :     0.000000
      g-2     :     0.000000
      g+3     :     0.000000
      g-3     :     0.000000
      g+4     :     0.000000
      g-4     :     0.000000
  5 C s       :     0.000000  s :     0.000000
      pz      :     0.001699  p :     0.001715
      px      :     0.000004
      py      :     0.000012
      dz2     :     0.000000  d :     0.000073
      dxz     :     0.000032
      dyz     :     0.000038
      dx2y2   :     0.000003
      dxy     :     0.000000
      f0      :     0.000001  f :     0.000008
      f+1     :    -0.000000
      f-1     :     0.000000
      f+2     :     0.000005
      f-2     :     0.000002
      f+3     :     0.000000
      f-3     :     0.000000
      g0      :     0.000000  g :     0.000001
      g+1     :     0.000000
      g-1     :     0.000000
      g+2     :     0.000000
      g-2     :     0.000000
      g+3     :     0.000000
      g-3     :     0.000000
      g+4     :     0.000000
      g-4     :     0.000000
  6 H s       :     0.000007  s :     0.000007
      pz      :     0.000044  p :     0.000045
      px      :     0.000000
      py      :     0.000002
      dz2     :     0.000000  d :     0.000005
      dxz     :     0.000004
      dyz     :     0.000001
      dx2y2   :     0.000000
      dxy     :     0.000000
      f0      :     0.000000  f :     0.000000
      f+1     :     0.000000
      f-1     :     0.000000
      f+2     :     0.000000
      f-2     :     0.000000
      f+3     :     0.000000
      f-3     :     0.000000
  7 H s       :     0.000009  s :     0.000009
      pz      :     0.000026  p :     0.000026
      px      :     0.000000
      py      :     0.000000
      dz2     :    -0.000000  d :     0.000003
      dxz     :     0.000002
      dyz     :     0.000002
      dx2y2   :     0.000000
      dxy     :     0.000000
      f0      :     0.000000  f :     0.000000
      f+1     :     0.000000
      f-1     :     0.000000
      f+2     :     0.000000
      f-2     :     0.000000
      f+3     :     0.000000
      f-3     :     0.000000
  8 H s       :     0.000006  s :     0.000006
      pz      :     0.000054  p :     0.000054
      px      :     0.000000
      py      :     0.000000
      dz2     :    -0.000000  d :     0.000006
      dxz     :     0.000000
      dyz     :     0.000006
      dx2y2   :     0.000000
      dxy     :     0.000000
      f0      :     0.000000  f :     0.000000
      f+1     :     0.000000
      f-1     :     0.000000
      f+2     :     0.000000
      f-2     :     0.000000
      f+3     :     0.000000
      f-3     :     0.000000
  9 H s       :     0.000009  s :     0.000009
      pz      :     0.000026  p :     0.000026
      px      :     0.000000
      py      :     0.000000
      dz2     :    -0.000000  d :     0.000003
      dxz     :     0.000003
      dyz     :     0.000001
      dx2y2   :     0.000000
      dxy     :     0.000000
      f0      :     0.000000  f :     0.000000
      f+1     :     0.000000
      f-1     :     0.000000
      f+2     :     0.000000
      f-2     :     0.000000
      f+3     :     0.000000
      f-3     :     0.000000
 10 H s       :     0.000007  s :     0.000007
      pz      :     0.000044  p :     0.000045
      px      :    -0.000000
      py      :     0.000002
      dz2     :     0.000000  d :     0.000005
      dxz     :     0.000002
      dyz     :     0.000002
      dx2y2   :     0.000000
      dxy     :     0.000000
      f0      :     0.000000  f :     0.000000
      f+1     :     0.000000
      f-1     :     0.000000
      f+2     :     0.000000
      f-2     :     0.000000
      f+3     :     0.000000
      f-3     :     0.000000
 11 N s       :     0.000001  s :     0.000001
      pz      :     0.001845  p :     0.001861
      px      :     0.000001
      py      :     0.000015
      dz2     :     0.000000  d :     0.000162
      dxz     :     0.000017
      dyz     :     0.000110
      dx2y2   :     0.000014
      dxy     :     0.000021
      f0      :     0.000003  f :     0.000020
      f+1     :    -0.000000
      f-1     :     0.000000
      f+2     :     0.000007
      f-2     :     0.000002
      f+3     :     0.000006
      f-3     :     0.000002
      g0      :     0.000000  g :     0.000000
      g+1     :     0.000000
      g-1     :     0.000000
      g+2     :     0.000000
      g-2     :     0.000000
      g+3     :    -0.000000
      g-3     :    -0.000000
      g+4     :     0.000000
      g-4     :     0.000000
 12 O s       :    -0.000002  s :    -0.000002
      pz      :     0.001897  p :     0.002661
      px      :     0.000139
      py      :     0.000625
      dz2     :    -0.000000  d :     0.000008
      dxz     :     0.000007
      dyz     :     0.000002
      dx2y2   :    -0.000000
      dxy     :    -0.000000
      f0      :     0.000001  f :     0.000002
      f+1     :     0.000000
      f-1     :     0.000000
      f+2     :     0.000000
      f-2     :     0.000001
      f+3     :     0.000000
      f-3     :     0.000000
      g0      :     0.000000  g :     0.000000
      g+1     :     0.000000
      g-1     :     0.000000
      g+2     :     0.000000
      g-2     :    -0.000000
      g+3     :     0.000000
      g-3     :     0.000000
      g+4     :     0.000000
      g-4     :     0.000000
 13 O s       :    -0.000002  s :    -0.000002
      pz      :     0.001897  p :     0.002661
      px      :     0.000349
      py      :     0.000416
      dz2     :    -0.000000  d :     0.000008
      dxz     :     0.000004
      dyz     :     0.000004
      dx2y2   :    -0.000001
      dxy     :     0.000000
      f0      :     0.000001  f :     0.000002
      f+1     :     0.000000
      f-1     :    -0.000000
      f+2     :     0.000000
      f-2     :     0.000001
      f+3     :    -0.000000
      f-3     :     0.000000
      g0      :     0.000000  g :     0.000000
      g+1     :     0.000000
      g-1     :     0.000000
      g+2     :    -0.000000
      g-2     :     0.000000
      g+3     :     0.000000
      g-3     :     0.000000
      g+4     :     0.000000
      g-4     :     0.000000


                     *******************************
                     * LOEWDIN POPULATION ANALYSIS *
                     *******************************

----------------------
LOEWDIN ATOMIC CHARGES
----------------------
   0 C :   -0.187549
   1 C :    0.088492
   2 C :    0.076747
   3 C :    0.081831
   4 C :    0.076813
   5 C :    0.088340
   6 H :   -0.049154
   7 H :   -0.051109
   8 H :   -0.050310
   9 H :   -0.051151
  10 H :   -0.049140
  11 N :   -0.281472
  12 O :    0.153915
  13 O :    0.153749

-------------------------------
LOEWDIN REDUCED ORBITAL CHARGES
-------------------------------
  0 C s       :     2.597756  s :     2.597756
      pz      :     0.834223  p :     2.718939
      px      :     1.043147
      py      :     0.841569
      dz2     :     0.060881  d :     0.675363
      dxz     :     0.105028
      dyz     :     0.069127
      dx2y2   :     0.245547
      dxy     :     0.194781
      f0      :     0.011962  f :     0.177459
      f+1     :     0.009066
      f-1     :     0.014212
      f+2     :     0.017663
      f-2     :     0.021363
      f+3     :     0.062664
      f-3     :     0.040529
      g0      :     0.000628  g :     0.018032
      g+1     :     0.001632
      g-1     :     0.001607
      g+2     :     0.002155
      g-2     :     0.001544
      g+3     :     0.000487
      g-3     :     0.001296
      g+4     :     0.004516
      g-4     :     0.004167
  1 C s       :     2.592898  s :     2.592898
      pz      :     0.742987  p :     2.697523
      px      :     0.958092
      py      :     0.996443
      dz2     :     0.038811  d :     0.495587
      dxz     :     0.033894
      dyz     :     0.089112
      dx2y2   :     0.157484
      dxy     :     0.176286
      f0      :     0.006849  f :     0.113873
      f+1     :     0.006887
      f-1     :     0.007707
      f+2     :     0.011994
      f-2     :     0.016659
      f+3     :     0.039827
      f-3     :     0.023950
      g0      :     0.000382  g :     0.011628
      g+1     :     0.000876
      g-1     :     0.001481
      g+2     :     0.001103
      g-2     :     0.001346
      g+3     :     0.000272
      g-3     :     0.000722
      g+4     :     0.002176
      g-4     :     0.003269
  2 C s       :     2.595283  s :     2.595283
      pz      :     0.766647  p :     2.712809
      px      :     0.970583
      py      :     0.975578
      dz2     :     0.037623  d :     0.493800
      dxz     :     0.048893
      dyz     :     0.061005
      dx2y2   :     0.143171
      dxy     :     0.203107
      f0      :     0.006229  f :     0.110137
      f+1     :     0.007033
      f-1     :     0.007203
      f+2     :     0.019312
      f-2     :     0.005647
      f+3     :     0.040418
      f-3     :     0.024296
      g0      :     0.000361  g :     0.011225
      g+1     :     0.000936
      g-1     :     0.001091
      g+2     :     0.001259
      g-2     :     0.001237
      g+3     :     0.000233
      g-3     :     0.000635
      g+4     :     0.003283
      g-4     :     0.002189
  3 C s       :     2.597387  s :     2.597387
      pz      :     0.747574  p :     2.700836
      px      :     1.001143
      py      :     0.952119
      dz2     :     0.038062  d :     0.498805
      dxz     :     0.092930
      dyz     :     0.022401
      dx2y2   :     0.197621
      dxy     :     0.147790
      f0      :     0.006150  f :     0.110026
      f+1     :     0.007483
      f-1     :     0.006672
      f+2     :     0.006826
      f-2     :     0.018886
      f+3     :     0.039968
      f-3     :     0.024041
      g0      :     0.000354  g :     0.011115
      g+1     :     0.001444
      g-1     :     0.000653
      g+2     :     0.001228
      g-2     :     0.001234
      g+3     :     0.000218
      g-3     :     0.000631
      g+4     :     0.002830
      g-4     :     0.002522
  4 C s       :     2.595257  s :     2.595257
      pz      :     0.766631  p :     2.712781
      px      :     0.955562
      py      :     0.990587
      dz2     :     0.037622  d :     0.493789
      dxz     :     0.028995
      dyz     :     0.080898
      dx2y2   :     0.178030
      dxy     :     0.168243
      f0      :     0.006229  f :     0.110135
      f+1     :     0.006796
      f-1     :     0.007441
      f+2     :     0.011531
      f-2     :     0.013424
      f+3     :     0.040425
      f-3     :     0.024289
      g0      :     0.000361  g :     0.011226
      g+1     :     0.000723
      g-1     :     0.001304
      g+2     :     0.001247
      g-2     :     0.001249
      g+3     :     0.000216
      g-3     :     0.000652
      g+4     :     0.002033
      g-4     :     0.003439
  5 C s       :     2.592863  s :     2.592863
      pz      :     0.742923  p :     2.697534
      px      :     0.964528
      py      :     0.990084
      dz2     :     0.038825  d :     0.495712
      dxz     :     0.056880
      dyz     :     0.066157
      dx2y2   :     0.144085
      dxy     :     0.189764
      f0      :     0.006852  f :     0.113918
      f+1     :     0.007254
      f-1     :     0.007343
      f+2     :     0.022121
      f-2     :     0.006544
      f+3     :     0.038248
      f-3     :     0.025556
      g0      :     0.000382  g :     0.011633
      g+1     :     0.001176
      g-1     :     0.001181
      g+2     :     0.001196
      g-2     :     0.001254
      g+3     :     0.000261
      g-3     :     0.000734
      g+4     :     0.003173
      g-4     :     0.002275
  6 H s       :     0.782714  s :     0.782714
      pz      :     0.048712  p :     0.192646
      px      :     0.086854
      py      :     0.057080
      dz2     :     0.004889  d :     0.064516
      dxz     :     0.016575
      dyz     :     0.003216
      dx2y2   :     0.020619
      dxy     :     0.019217
      f0      :     0.000975  f :     0.009278
      f+1     :     0.000906
      f-1     :     0.000349
      f+2     :     0.000882
      f-2     :     0.000813
      f+3     :     0.003112
      f-3     :     0.002242
  7 H s       :     0.794001  s :     0.794001
      pz      :     0.051730  p :     0.185390
      px      :     0.071552
      py      :     0.062108
      dz2     :     0.004717  d :     0.062570
      dxz     :     0.011672
      dyz     :     0.008204
      dx2y2   :     0.023345
      dxy     :     0.014631
      f0      :     0.000995  f :     0.009148
      f+1     :     0.000668
      f-1     :     0.000536
      f+2     :     0.000087
      f-2     :     0.001600
      f+3     :     0.002981
      f-3     :     0.002283
  8 H s       :     0.794478  s :     0.794478
      pz      :     0.049987  p :     0.184492
      px      :     0.043545
      py      :     0.090961
      dz2     :     0.004717  d :     0.062238
      dxz     :     0.000826
      dyz     :     0.018449
      dx2y2   :     0.015452
      dxy     :     0.022794
      f0      :     0.000962  f :     0.009102
      f+1     :     0.000258
      f-1     :     0.000945
      f+2     :     0.001424
      f-2     :     0.000210
      f+3     :     0.003015
      f-3     :     0.002287
  9 H s       :     0.794026  s :     0.794026
      pz      :     0.051737  p :     0.185401
      px      :     0.086016
      py      :     0.047648
      dz2     :     0.004717  d :     0.062573
      dxz     :     0.017264
      dyz     :     0.002613
      dx2y2   :     0.018317
      dxy     :     0.019663
      f0      :     0.000995  f :     0.009151
      f+1     :     0.000879
      f-1     :     0.000324
      f+2     :     0.000963
      f-2     :     0.000724
      f+3     :     0.002991
      f-3     :     0.002274
 10 H s       :     0.782637  s :     0.782637
      pz      :     0.048697  p :     0.192698
      px      :     0.070586
      py      :     0.073415
      dz2     :     0.004891  d :     0.064528
      dxz     :     0.010779
      dyz     :     0.009011
      dx2y2   :     0.024307
      dxy     :     0.015540
      f0      :     0.000975  f :     0.009277
      f+1     :     0.000678
      f-1     :     0.000577
      f+2     :     0.000067
      f-2     :     0.001627
      f+3     :     0.002963
      f-3     :     0.002390
 11 N s       :     2.780146  s :     2.780146
      pz      :     0.955942  p :     3.229676
      px      :     1.141815
      py      :     1.131919
      dz2     :     0.069656  d :     1.030733
      dxz     :     0.214604
      dyz     :     0.075469
      dx2y2   :     0.358697
      dxy     :     0.312307
      f0      :     0.006274  f :     0.221308
      f+1     :     0.015685
      f-1     :     0.007416
      f+2     :     0.016693
      f-2     :     0.035599
      f+3     :     0.089016
      f-3     :     0.050624
      g0      :     0.000572  g :     0.019609
      g+1     :     0.004278
      g-1     :     0.000880
      g+2     :     0.002177
      g-2     :     0.002191
      g+3     :     0.000281
      g-3     :     0.000731
      g+4     :     0.004509
      g-4     :     0.003991
 12 O s       :     3.352748  s :     3.352748
      pz      :     1.320390  p :     4.307732
      px      :     1.362591
      py      :     1.624751
      dz2     :     0.017900  d :     0.146957
      dxz     :     0.032402
      dyz     :     0.003459
      dx2y2   :     0.046558
      dxy     :     0.046638
      f0      :     0.003791  f :     0.036204
      f+1     :     0.004175
      f-1     :     0.001201
      f+2     :     0.004776
      f-2     :     0.002002
      f+3     :     0.010456
      f-3     :     0.009804
      g0      :     0.000125  g :     0.002444
      g+1     :     0.000343
      g-1     :     0.000031
      g+2     :     0.000216
      g-2     :     0.000164
      g+3     :     0.000134
      g-3     :     0.000172
      g+4     :     0.000703
      g-4     :     0.000557
 13 O s       :     3.352855  s :     3.352855
      pz      :     1.320595  p :     4.307855
      px      :     1.452742
      py      :     1.534517
      dz2     :     0.017899  d :     0.146910
      dxz     :     0.023371
      dyz     :     0.012475
      dx2y2   :     0.040300
      dxy     :     0.052865
      f0      :     0.003789  f :     0.036189
      f+1     :     0.003166
      f-1     :     0.002209
      f+2     :     0.000871
      f-2     :     0.005903
      f+3     :     0.011377
      f-3     :     0.008874
      g0      :     0.000125  g :     0.002442
      g+1     :     0.000246
      g-1     :     0.000127
      g+2     :     0.000114
      g-2     :     0.000265
      g+3     :     0.000035
      g-3     :     0.000270
      g+4     :     0.000578
      g-4     :     0.000681


                      *****************************
                      * MAYER POPULATION ANALYSIS *
                      *****************************

  NA   - Mulliken gross atomic population
  ZA   - Total nuclear charge
  QA   - Mulliken gross atomic charge
  VA   - Mayer's total valence
  BVA  - Mayer's bonded valence
  FA   - Mayer's free valence

  ATOM       NA         ZA         QA         VA         BVA        FA
  0 C      5.9436     6.0000     0.0564     3.5457     3.5430     0.0028
  1 C      6.0048     6.0000    -0.0048     3.7120     3.7084     0.0036
  2 C      6.0616     6.0000    -0.0616     3.7805     3.7778     0.0026
  3 C      6.0631     6.0000    -0.0631     3.8179     3.8144     0.0035
  4 C      6.0588     6.0000    -0.0588     3.7784     3.7757     0.0026
  5 C      6.0057     6.0000    -0.0057     3.7127     3.7091     0.0036
  6 H      0.9019     1.0000     0.0981     1.0075     1.0074     0.0001
  7 H      0.9280     1.0000     0.0720     0.9976     0.9976     0.0001
  8 H      0.9316     1.0000     0.0684     0.9978     0.9977     0.0001
  9 H      0.9291     1.0000     0.0709     0.9979     0.9978     0.0001
 10 H      0.9021     1.0000     0.0979     1.0073     1.0071     0.0001
 11 N      6.7005     7.0000     0.2995     4.1266     4.1225     0.0041
 12 O      8.2846     8.0000    -0.2846     1.9791     1.9737     0.0053
 13 O      8.2847     8.0000    -0.2847     1.9792     1.9739     0.0053

  Mayer bond orders larger than 0.100000
B(  0-C ,  1-C ) :   1.2399 B(  0-C ,  5-C ) :   1.2411 B(  0-C , 11-N ) :   0.8843 
B(  1-C ,  2-C ) :   1.3267 B(  1-C ,  6-H ) :   0.9487 B(  2-C ,  3-C ) :   1.3227 
B(  2-C ,  7-H ) :   0.9673 B(  3-C ,  4-C ) :   1.3216 B(  3-C ,  8-H ) :   0.9658 
B(  4-C ,  5-C ) :   1.3258 B(  4-C ,  9-H ) :   0.9675 B(  5-C , 10-H ) :   0.9489 
B( 11-N , 12-O ) :   1.6135 B( 11-N , 13-O ) :   1.6136 B( 12-O , 13-O ) :   0.2380 


-------
TIMINGS
-------

Total SCF time: 0 days 0 hours 50 min 25 sec 

Total time                  ....    3025.631 sec
Sum of individual times     ....    3007.168 sec  ( 99.4%)

Fock matrix formation       ....    2867.069 sec  ( 94.8%)
  Split-RI-J                ....     185.179 sec  (  6.5% of F)
  Chain of spheres X        ....    2279.494 sec  ( 79.5% of F)
  XC integration            ....     356.839 sec  ( 12.4% of F)
    Basis function eval.    ....      57.136 sec  ( 16.0% of XC)
    Density eval.           ....     107.315 sec  ( 30.1% of XC)
    XC-Functional eval.     ....       3.731 sec  (  1.0% of XC)
    XC-Potential eval.      ....     113.497 sec  ( 31.8% of XC)
Diagonalization             ....       7.362 sec  (  0.2%)
Density matrix formation    ....      46.230 sec  (  1.5%)
Population analysis         ....       0.976 sec  (  0.0%)
Initial guess               ....      19.754 sec  (  0.7%)
Orbital Transformation      ....       0.000 sec  (  0.0%)
Orbital Orthonormalization  ....       0.000 sec  (  0.0%)
DIIS solution               ....      33.793 sec  (  1.1%)
Grid generation             ....      31.984 sec  (  1.1%)

Maximum memory used throughout the entire SCF-calculation: 733.3 MB

-------------------------   --------------------
FINAL SINGLE POINT ENERGY      -436.716314850964
-------------------------   --------------------


                            ***************************************
                            *     ORCA property calculations      *
                            ***************************************

                                    ---------------------
                                    Active property flags
                                    ---------------------
   (+) Dipole Moment


------------------------------------------------------------------------------
                       ORCA ELECTRIC PROPERTIES CALCULATION
------------------------------------------------------------------------------

Dipole Moment Calculation                       ... on
Quadrupole Moment Calculation                   ... off
Polarizability Calculation                      ... off
GBWName                                         ... FOD.gbw
Electron density                                ... FOD.scfp
The origin for moment calculation is the CENTER OF MASS  = (-10.254167,  3.358331  0.000004)

-------------
DIPOLE MOMENT
-------------
                                X             Y             Z
Electronic contribution:     -1.00335       5.85478      -0.00001
Nuclear contribution   :      1.31383      -7.66954      -0.00001
                        -----------------------------------------
Total Dipole Moment    :      0.31047      -1.81476      -0.00003
                        -----------------------------------------
Magnitude (a.u.)       :      1.84113
Magnitude (Debye)      :      4.67978



--------------------
Rotational spectrum 
--------------------
 
Rotational constants in cm-1:     0.132276     0.042761     0.032315 
Rotational constants in MHz :  3965.541854  1281.952840   968.774232 

 Dipole components along the rotational axes: 
x,y,z [a.u.] :    -1.841131    -0.000362    -0.000020 
x,y,z [Debye]:    -4.679782    -0.000921    -0.000050 

 

Timings for individual modules:

Sum of individual times         ...     3097.695 sec (=  51.628 min)
GTO integral calculation        ...       69.642 sec (=   1.161 min)   2.2 %
SCF iterations                  ...     3028.053 sec (=  50.468 min)  97.8 %
                             ****ORCA TERMINATED NORMALLY****
TOTAL RUN TIME: 0 days 0 hours 51 minutes 42 seconds 438 msec
