
                                 *****************
                                 * O   R   C   A *
                                 *****************

                                            #,                                       
                                            ###                                      
                                            ####                                     
                                            #####                                    
                                            ######                                   
                                           ########,                                 
                                     ,,################,,,,,                         
                               ,,#################################,,                 
                          ,,##########################################,,             
                       ,#########################################, ''#####,          
                    ,#############################################,,   '####,        
                  ,##################################################,,,,####,       
                ,###########''''           ''''###############################       
              ,#####''   ,,,,##########,,,,          '''####'''          '####       
            ,##' ,,,,###########################,,,                        '##       
           ' ,,###''''                  '''############,,,                           
         ,,##''                                '''############,,,,        ,,,,,,###''
      ,#''                                            '''#######################'''  
     '                                                          ''''####''''         
             ,#######,   #######,   ,#######,      ##                                
            ,#'     '#,  ##    ##  ,#'     '#,    #''#        ######   ,####,        
            ##       ##  ##   ,#'  ##            #'  '#       #        #'  '#        
            ##       ##  #######   ##           ,######,      #####,   #    #        
            '#,     ,#'  ##    ##  '#,     ,#' ,#      #,         ##   #,  ,#        
             '#######'   ##     ##  '#######'  #'      '#     #####' # '####'        



                  #######################################################
                  #                        -***-                        #
                  #          Department of theory and spectroscopy      #
                  #    Directorship and core code : Frank Neese         #
                  #        Max Planck Institute fuer Kohlenforschung    #
                  #                Kaiser Wilhelm Platz 1               #
                  #                 D-45470 Muelheim/Ruhr               #
                  #                      Germany                        #
                  #                                                     #
                  #                  All rights reserved                #
                  #                        -***-                        #
                  #######################################################



                         Program Version 5.0.4 -  RELEASE  -

 With contributions from (in alphabetic order):
   Daniel Aravena         : Magnetic Suceptibility
   Michael Atanasov       : Ab Initio Ligand Field Theory (pilot matlab implementation)
   Alexander A. Auer      : GIAO ZORA, VPT2 properties, NMR spectrum
   Ute Becker             : Parallelization
   Giovanni Bistoni       : ED, misc. LED, open-shell LED, HFLD
   Martin Brehm           : Molecular dynamics
   Dmytro Bykov           : SCF Hessian
   Vijay G. Chilkuri      : MRCI spin determinant printing, contributions to CSF-ICE
   Dipayan Datta          : RHF DLPNO-CCSD density
   Achintya Kumar Dutta   : EOM-CC, STEOM-CC
   Dmitry Ganyushin       : Spin-Orbit,Spin-Spin,Magnetic field MRCI
   Miquel Garcia          : C-PCM and meta-GGA Hessian, CC/C-PCM, Gaussian charge scheme
   Yang Guo               : DLPNO-NEVPT2, F12-NEVPT2, CIM, IAO-localization
   Andreas Hansen         : Spin unrestricted coupled pair/coupled cluster methods
   Benjamin Helmich-Paris : MC-RPA, TRAH-SCF, COSX integrals
   Lee Huntington         : MR-EOM, pCC
   Robert Izsak           : Overlap fitted RIJCOSX, COSX-SCS-MP3, EOM
   Marcus Kettner         : VPT2
   Christian Kollmar      : KDIIS, OOCD, Brueckner-CCSD(T), CCSD density, CASPT2, CASPT2-K
   Simone Kossmann        : Meta GGA functionals, TD-DFT gradient, OOMP2, MP2 Hessian
   Martin Krupicka        : Initial AUTO-CI
   Lucas Lang             : DCDCAS
   Marvin Lechner         : AUTO-CI (C++ implementation), FIC-MRCC
   Dagmar Lenk            : GEPOL surface, SMD
   Dimitrios Liakos       : Extrapolation schemes; Compound Job, initial MDCI parallelization
   Dimitrios Manganas     : Further ROCIS development; embedding schemes
   Dimitrios Pantazis     : SARC Basis sets
   Anastasios Papadopoulos: AUTO-CI, single reference methods and gradients
   Taras Petrenko         : DFT Hessian,TD-DFT gradient, ASA, ECA, R-Raman, ABS, FL, XAS/XES, NRVS
   Peter Pinski           : DLPNO-MP2, DLPNO-MP2 Gradient
   Christoph Reimann      : Effective Core Potentials
   Marius Retegan         : Local ZFS, SOC
   Christoph Riplinger    : Optimizer, TS searches, QM/MM, DLPNO-CCSD(T), (RO)-DLPNO pert. Triples
   Tobias Risthaus        : Range-separated hybrids, TD-DFT gradient, RPA, STAB
   Michael Roemelt        : Original ROCIS implementation
   Masaaki Saitow         : Open-shell DLPNO-CCSD energy and density
   Barbara Sandhoefer     : DKH picture change effects
   Avijit Sen             : IP-ROCIS
   Kantharuban Sivalingam : CASSCF convergence, NEVPT2, FIC-MRCI
   Bernardo de Souza      : ESD, SOC TD-DFT
   Georgi Stoychev        : AutoAux, RI-MP2 NMR, DLPNO-MP2 response
   Willem Van den Heuvel  : Paramagnetic NMR
   Boris Wezisla          : Elementary symmetry handling
   Frank Wennmohs         : Technical directorship


 We gratefully acknowledge several colleagues who have allowed us to
 interface, adapt or use parts of their codes:
   Stefan Grimme, W. Hujo, H. Kruse, P. Pracht,  : VdW corrections, initial TS optimization,
                  C. Bannwarth, S. Ehlert          DFT functionals, gCP, sTDA/sTD-DF
   Ed Valeev, F. Pavosevic, A. Kumar             : LibInt (2-el integral package), F12 methods
   Garnet Chan, S. Sharma, J. Yang, R. Olivares  : DMRG
   Ulf Ekstrom                                   : XCFun DFT Library
   Mihaly Kallay                                 : mrcc  (arbitrary order and MRCC methods)
   Jiri Pittner, Ondrej Demel                    : Mk-CCSD
   Frank Weinhold                                : gennbo (NPA and NBO analysis)
   Christopher J. Cramer and Donald G. Truhlar   : smd solvation model
   Lars Goerigk                                  : TD-DFT with DH, B97 family of functionals
   V. Asgeirsson, H. Jonsson                     : NEB implementation
   FAccTs GmbH                                   : IRC, NEB, NEB-TS, DLPNO-Multilevel, CI-OPT
                                                   MM, QMMM, 2- and 3-layer-ONIOM, Crystal-QMMM,
                                                   LR-CPCM, SF, NACMEs, symmetry and pop. for TD-DFT,
                                                   nearIR, NL-DFT gradient (VV10), updates on ESD,
                                                   ML-optimized integration grids
   S Lehtola, MJT Oliveira, MAL Marques          : LibXC Library
   Liviu Ungur et al                             : ANISO software


 Your calculation uses the libint2 library for the computation of 2-el integrals
 For citations please refer to: http://libint.valeyev.net

 Your ORCA version has been built with support for libXC version: 5.1.0
 For citations please refer to: https://tddft.org/programs/libxc/

 This ORCA versions uses:
   CBLAS   interface :  Fast vector & matrix operations
   LAPACKE interface :  Fast linear algebra routines
   Shared memory     :  Shared parallel matrices


leaving
================================================================================

----- Orbital basis set information -----
================================================================================
                                        WARNINGS
                       Please study these warnings very carefully!
================================================================================

WARNING: Gradients needed for Numerical Frequencies
  ===> : Setting RunTyp to EnGrad

WARNING: Direct SCF is incompatible with Method<>HF and Method<>DFT
  ===> : conventional SCF is chosen

WARNING: The NDO methods need Guess=HUECKEL or Guess=HCORE or Guess=MOREAD
  ===> : Guess is set to Hueckel

WARNING: The NDO methods need %rel::SOCType==1
  ===> : %rel::SOCType is set to 1

WARNING: The NDO methods cannot have frozencore=1
  ===> : %method FrozenCore=0 end

WARNING: The NDO methods cannot be used with Shark
  ===> : Turning Shark off
Your calculation utilizes the atom-pairwise dispersion correction
based on tight binding partial charges (D4)
Cite in your paper:
E.Caldeweyher, C.Bannwarth, S.Grimme, J.Chem.Phys., (2017), 147, 034112.
E.Caldeweyher, S.Ehlert, A.Hansen, H.Neugebauer, S.Grimme, J.Chem.Phys., (2018), in progress.
   

================================================================================

----- Orbital basis set information -----
Your calculation utilizes the basis: def2-TZVP
   F. Weigend and R. Ahlrichs, Phys. Chem. Chem. Phys. 7, 3297 (2005).

================================================================================
                                        WARNINGS
                       Please study these warnings very carefully!
================================================================================


WARNING: Geometry Optimization
  ===> : Switching off AutoStart
         For restart on a previous wavefunction, please use MOREAD
================================================================================
                                       INPUT FILE
================================================================================
NAME = meta_products_optfreq_6.inp
|  1> !RHF AM1 NumFREQ
|  2> %base "firstjob"
|  3> 
|  4> * xyz 1 1
|  5>    C       -3.20102        2.61416       -0.88321
|  6>    C       -4.33831        1.81781       -1.20132
|  7>    C       -4.16481        0.67999       -1.94570
|  8>    C       -2.90791        0.27299       -2.41562
|  9>    C       -1.78185        1.05882       -2.10948
| 10>    C       -1.92736        2.19974       -1.34732
| 11>    C       -3.37707        3.85078       -0.08242
| 12>    H       -2.82053       -0.63567       -2.99403
| 13>    H       -5.32258        2.10248       -0.85213
| 14>    H       -2.41818        4.29649        0.18650
| 15>    H       -3.92782        3.65638        0.84469
| 16>    H       -3.94495        4.60609       -0.63560
| 17>    H       -1.06267        2.80352       -1.09742
| 18>    H       -0.80714        0.75105       -2.46862
| 19>    N       -5.33525       -0.18868       -2.22017
| 20>    O       -5.08988       -1.30597       -2.64712
| 21>    O       -6.43793        0.26548       -1.98332
| 22>    H      -14.91699       -0.92146        7.41375
| 23> *
| 24> $new_job
| 25> 
| 26> !B3LYP/G DEF2-TZVP COPT FREQ D4 SOSCF
| 27> %base "secondjob"
| 28> %geom
| 29> GDIISMaxEq 20
| 30> UseGDIIS false
| 31> InHess Read
| 32> InHessName "firstjob.hess"
| 33> end
| 34> 
| 35> * xyz 1 1
| 36>    C       -3.20102        2.61416       -0.88321
| 37>    C       -4.33831        1.81781       -1.20132
| 38>    C       -4.16481        0.67999       -1.94570
| 39>    C       -2.90791        0.27299       -2.41562
| 40>    C       -1.78185        1.05882       -2.10948
| 41>    C       -1.92736        2.19974       -1.34732
| 42>    C       -3.37707        3.85078       -0.08242
| 43>    H       -2.82053       -0.63567       -2.99403
| 44>    H       -5.32258        2.10248       -0.85213
| 45>    H       -2.41818        4.29649        0.18650
| 46>    H       -3.92782        3.65638        0.84469
| 47>    H       -3.94495        4.60609       -0.63560
| 48>    H       -1.06267        2.80352       -1.09742
| 49>    H       -0.80714        0.75105       -2.46862
| 50>    N       -5.33525       -0.18868       -2.22017
| 51>    O       -5.08988       -1.30597       -2.64712
| 52>    O       -6.43793        0.26548       -1.98332
| 53>    H      -14.91699       -0.92146        7.41375
| 54> **                         ****END OF INPUT****
================================================================================


                 $$$$$$$$$$$$$$$$$$$$$$$$$$$$$$$$$$$$$$$$$$$$$$ 
                 $ THERE ARE  2 JOBS TO BE PROCESSED THIS RUN $
                 $$$$$$$$$$$$$$$$$$$$$$$$$$$$$$$$$$$$$$$$$$$$$$ 




                 $$$$$$$$$$$$$$$$  JOB NUMBER  1 $$$$$$$$$$$$$$


                     *******************************
                     * Energy+Gradient Calculation *
                     *******************************

---------------------------------
CARTESIAN COORDINATES (ANGSTROEM)
---------------------------------
  C     -3.201020    2.614160   -0.883210
  C     -4.338310    1.817810   -1.201320
  C     -4.164810    0.679990   -1.945700
  C     -2.907910    0.272990   -2.415620
  C     -1.781850    1.058820   -2.109480
  C     -1.927360    2.199740   -1.347320
  C     -3.377070    3.850780   -0.082420
  H     -2.820530   -0.635670   -2.994030
  H     -5.322580    2.102480   -0.852130
  H     -2.418180    4.296490    0.186500
  H     -3.927820    3.656380    0.844690
  H     -3.944950    4.606090   -0.635600
  H     -1.062670    2.803520   -1.097420
  H     -0.807140    0.751050   -2.468620
  N     -5.335250   -0.188680   -2.220170
  O     -5.089880   -1.305970   -2.647120
  O     -6.437930    0.265480   -1.983320
  H    -14.916990   -0.921460    7.413750

----------------------------
CARTESIAN COORDINATES (A.U.)
----------------------------
  NO LB      ZA    FRAG     MASS         X           Y           Z
   0 C     4.0000    0    12.011   -6.049051    4.940046   -1.669025
   1 C     4.0000    0    12.011   -8.198218    3.435163   -2.270166
   2 C     4.0000    0    12.011   -7.870350    1.284995   -3.676840
   3 C     4.0000    0    12.011   -5.495154    0.515876   -4.564860
   4 C     4.0000    0    12.011   -3.367209    2.000880   -3.986339
   5 C     4.0000    0    12.011   -3.642183    4.156906   -2.546066
   6 C     4.0000    0    12.011   -6.381737    7.276920   -0.155751
   7 H     1.0000    0     1.008   -5.330029   -1.201242   -5.657897
   8 H     1.0000    0     1.008  -10.058219    3.973111   -1.610292
   9 H     1.0000    0     1.008   -4.569698    8.119189    0.352434
  10 H     1.0000    0     1.008   -7.422504    6.909557    1.596233
  11 H     1.0000    0     1.008   -7.454875    8.704249   -1.201110
  12 H     1.0000    0     1.008   -2.008155    5.297885   -2.073823
  13 H     1.0000    0     1.008   -1.525274    1.419279   -4.665016
  14 N     5.0000    0    14.007  -10.082161   -0.356554   -4.195513
  15 O     6.0000    0    15.999   -9.618479   -2.467926   -5.002332
  16 O     6.0000    0    15.999  -12.165925    0.501684   -3.747932
  17 H     1.0000    0     1.008  -28.189026   -1.741307   14.009957

--------------------------------
INTERNAL COORDINATES (ANGSTROEM)
--------------------------------
 C      0   0   0     0.000000000000     0.00000000     0.00000000
 C      1   0   0     1.424358044419     0.00000000     0.00000000
 C      2   1   0     1.370707184923   118.96800557     0.00000000
 C      3   2   1     1.402238002766   122.43792347   359.55040118
 C      4   3   2     1.406862328766   118.84204487     0.17115454
 C      5   4   3     1.379767905157   119.84579613     0.65811651
 C      1   2   3     1.483740964926   119.45716111   179.76910362
 H      4   3   2     1.080674043410   119.72871640   179.62508024
 H      2   1   3     1.082477758617   120.46040631   179.41765353
 H      7   1   2     1.091075342311   111.66711728   173.25008995
 H      7   1   2     1.095741700676   111.61839525    52.50390995
 H      7   1   2     1.094983562845   111.33261746   293.25005308
 H      6   5   4     1.083830749933   120.25648646   179.25783938
 H      5   4   3     1.083403662815   119.29410720   179.98409995
 N      3   2   1     1.483189517021   119.12902940   176.88998971
 O     15   3   2     1.220995365880   116.23518329   194.15812282
 O     15   3   2     1.215838151441   117.44333435    13.11631800
 H     17  15   3    12.712521765256   135.56383515   259.31892508

---------------------------
INTERNAL COORDINATES (A.U.)
---------------------------
 C      0   0   0     0.000000000000     0.00000000     0.00000000
 C      1   0   0     2.691646620599     0.00000000     0.00000000
 C      2   1   0     2.590261189303   118.96800557     0.00000000
 C      3   2   1     2.649845799804   122.43792347   359.55040118
 C      4   3   2     2.658584509498   118.84204487     0.17115454
 C      5   4   3     2.607383469120   119.84579613     0.65811651
 C      1   2   3     2.803864077390   119.45716111   179.76910362
 H      4   3   2     2.042177982082   119.72871640   179.62508024
 H      2   1   3     2.045586509847   120.46040631   179.41765353
 H      7   1   2     2.061833588443   111.66711728   173.25008995
 H      7   1   2     2.070651727794   111.61839525    52.50390995
 H      7   1   2     2.069219054922   111.33261746   293.25005308
 H      6   5   4     2.048143292896   120.25648646   179.25783938
 H      5   4   3     2.047336215207   119.29410720   179.98409995
 N      3   2   1     2.802821991872   119.12902940   176.88998971
 O     15   3   2     2.307346852300   116.23518329   194.15812282
 O     15   3   2     2.297601129397   117.44333435    13.11631800
 H     17  15   3    24.023184607846   135.56383515   259.31892508

----------------------------
SLATER BASIS SET DIM=  48
----------------------------
  0 C     2 shells
 l=0 nsto= 1
    2       1.808665000000        1.000000000000
 l=1 nsto= 1
    2       1.685116000000        1.000000000000
  1 C     2 shells
 l=0 nsto= 1
    2       1.808665000000        1.000000000000
 l=1 nsto= 1
    2       1.685116000000        1.000000000000
  2 C     2 shells
 l=0 nsto= 1
    2       1.808665000000        1.000000000000
 l=1 nsto= 1
    2       1.685116000000        1.000000000000
  3 C     2 shells
 l=0 nsto= 1
    2       1.808665000000        1.000000000000
 l=1 nsto= 1
    2       1.685116000000        1.000000000000
  4 C     2 shells
 l=0 nsto= 1
    2       1.808665000000        1.000000000000
 l=1 nsto= 1
    2       1.685116000000        1.000000000000
  5 C     2 shells
 l=0 nsto= 1
    2       1.808665000000        1.000000000000
 l=1 nsto= 1
    2       1.685116000000        1.000000000000
  6 C     2 shells
 l=0 nsto= 1
    2       1.808665000000        1.000000000000
 l=1 nsto= 1
    2       1.685116000000        1.000000000000
  7 H     1 shells
 l=0 nsto= 1
    1       1.188078000000        1.000000000000
  8 H     1 shells
 l=0 nsto= 1
    1       1.188078000000        1.000000000000
  9 H     1 shells
 l=0 nsto= 1
    1       1.188078000000        1.000000000000
 10 H     1 shells
 l=0 nsto= 1
    1       1.188078000000        1.000000000000
 11 H     1 shells
 l=0 nsto= 1
    1       1.188078000000        1.000000000000
 12 H     1 shells
 l=0 nsto= 1
    1       1.188078000000        1.000000000000
 13 H     1 shells
 l=0 nsto= 1
    1       1.188078000000        1.000000000000
 14 N     2 shells
 l=0 nsto= 1
    2       2.315410000000        1.000000000000
 l=1 nsto= 1
    2       2.157940000000        1.000000000000
 15 O     2 shells
 l=0 nsto= 1
    2       3.108032000000        1.000000000000
 l=1 nsto= 1
    2       2.524039000000        1.000000000000
 16 O     2 shells
 l=0 nsto= 1
    2       3.108032000000        1.000000000000
 l=1 nsto= 1
    2       2.524039000000        1.000000000000
 17 H     1 shells
 l=0 nsto= 1
    1       1.188078000000        1.000000000000
------------------------------------------------------------------------------
                           ORCA NDO INTEGRAL CALCULATION
------------------------------------------------------------------------------

--------------
NDO PARAMETERS
--------------

Gamma integral treatment              ... MOPAC
Nuclear repulsuion treatment          ... AM1-style
Interaction factors:
s-s (sigma) =    1.0000
s-p (sigma) =    1.0000
s-d (sigma) =    1.0000
p-p (sigma) =    1.0000  p-p(pi) =    1.0000
p-d (sigma) =    1.0000  p-d(pi) =    1.0000
d-d (sigma) =    1.0000  d-d(pi) =    1.0000 d-d (delta) =    1.0000

--------------------------
Parameters for Element H :
--------------------------
 One-electron parameters (in eV)
  U(s)  =   -11.396427 Beta(s) =     6.173787 Neff(s) =     1.000000
 One-center electron repulsion parameters (in eV)
  G(s,s)=    12.848000
--------------------------
Parameters for Element C :
--------------------------
 One-electron parameters (in eV)
  U(s)  =   -52.028658 Beta(s) =    15.715783 Neff(s) =     2.000000
  U(p)  =   -39.614239 Beta(p) =     7.719283 Neff(p) =     2.000000 
 One-center electron repulsion parameters (in eV)
  G(s,s)=    12.230000
  G(s,p)=    11.470000 G(p,p)  =    10.253300
 Slater-Condon parameters (in eV)
 F2(p,p)=     5.1667 G1(s,p)=    7.2900
--------------------------
Parameters for Element N :
--------------------------
 One-electron parameters (in eV)
  U(s)  =   -71.860000 Beta(s) =    20.299110 Neff(s) =     2.000000
  U(p)  =   -57.167581 Beta(p) =    18.238666 Neff(p) =     3.000000 
 One-center electron repulsion parameters (in eV)
  G(s,s)=    13.590000
  G(s,p)=    12.660000 G(p,p)  =    12.053330
 Slater-Condon parameters (in eV)
 F2(p,p)=     5.7917 G1(s,p)=    9.4200
--------------------------
Parameters for Element O :
--------------------------
 One-electron parameters (in eV)
  U(s)  =   -97.830000 Beta(s) =    29.272773 Neff(s) =     2.000000
  U(p)  =   -78.262380 Beta(p) =    29.272773 Neff(p) =     4.000000 
 One-center electron repulsion parameters (in eV)
  G(s,s)=    15.420000
  G(s,p)=    14.480000 G(p,p)  =    13.493330
 Slater-Condon parameters (in eV)
 F2(p,p)=     6.4167 G1(s,p)=   11.8200

 Number of atoms                    ....   18
 Number of basis functions          ....   48

 Overlap integrals                  .... done
 One electron matrix                .... done
 Nuclear repulsion                  .... done
 Integral list                      .... done
 Electron-electron repulsion        .... done
-------------------------------------------------------------------------------
                                 ORCA SCF
-------------------------------------------------------------------------------

------------
SCF SETTINGS
------------
Hamiltonian:
 ZDO-Hamiltonian        Method          .... NDDO


General Settings:
 Integral files         IntName         .... firstjob
 Hartree-Fock type      HFTyp           .... RHF
 Total Charge           Charge          ....    1
 Multiplicity           Mult            ....    1
 Number of Electrons    NEL             ....   52
 Basis Dimension        Dim             ....   48
 Nuclear Repulsion      ENuc            ....    228.7514927726 Eh

Convergence Acceleration:
 DIIS                   CNVDIIS         .... on
   Start iteration      DIISMaxIt       ....    12
   Startup error        DIISStart       ....  0.200000
   # of expansion vecs  DIISMaxEq       ....     5
   Bias factor          DIISBfac        ....   1.050
   Max. coefficient     DIISMaxC        ....  10.000
 Trust-Rad. Augm. Hess. CNVTRAH         .... off
 SOSCF                  CNVSOSCF        .... on
   Start iteration      SOSCFMaxIt      ....   150
   Startup grad/error   SOSCFStart      ....  0.003300
 Level Shifting         CNVShift        .... on
   Level shift para.    LevelShift      ....    0.2500
   Turn off err/grad.   ShiftErr        ....    0.0010
 Zerner damping         CNVZerner       .... off
 Static damping         CNVDamp         .... on
   Fraction old density DampFac         ....    0.7000
   Max. Damping (<1)    DampMax         ....    0.9800
   Min. Damping (>=0)   DampMin         ....    0.0000
   Turn off err/grad.   DampErr         ....    0.1000
 Fernandez-Rico         CNVRico         .... off

SCF Procedure:
 Maximum # iterations   MaxIter         ....   125
 SCF integral mode      SCFMode         .... Conventional
 Integral Buffer length BufferLength    .... 1048576
 Integral index format  IndFormat       ....     0
 Integral value format  ValFormat       ....     0
 Integral Storage       Thresh          ....  2.500e-11 Eh

Convergence Tolerance:
 Convergence Check Mode ConvCheckMode   .... Total+1el-Energy
 Convergence forced     ConvForced      .... 0
 Energy Change          TolE            ....  1.000e-08 Eh
 1-El. energy change                    ....  1.000e-05 Eh
 Orbital Gradient       TolG            ....  1.000e-05
 Orbital Rotation angle TolX            ....  1.000e-05
 DIIS Error             TolErr          ....  5.000e-07


Diagonalization of the overlap matrix:
Smallest eigenvalue                        ... 2.142e-01
Time for diagonalization                   ...    0.005 sec
Threshold for overlap eigenvalues          ... 1.000e-08
Number of eigenvalues below threshold      ... 0
Time for construction of square roots      ...    0.003 sec
Total time needed                          ...    0.008 sec

-------------------------------
INITIAL GUESS: EXTENDED HUECKEL
-------------------------------
EHT matrix was read from disk
EHT matrix was diagonalized
Initial density was built
                      ------------------
                      INITIAL GUESS DONE
                      ------------------

 InCore treatment chosen:
   Memory dedicated               ...    1024 MB
   Memory needed                  ...      0 MB
   Number of tiny    integrals    ...       0
   Number of small   integrals    ...       2
   Number of regular integrals    ...    5494

--------------
SCF ITERATIONS
--------------
ITER       Energy         Delta-E        Max-DP      RMS-DP      [F,P]     Damp
  0    -66.4923180936   0.000000000000 0.60000000  0.01664987  0.1730508 0.7000
  1    -66.9336836714  -0.441365577726 0.42000000  0.01220520  0.1413150 0.7000
                               ***Turning on DIIS***
  2    -67.1723850370  -0.238701365654 0.29400000  0.00865909  0.1091099 0.7000
  3    -65.4599007736   1.712484263424 0.68600000  0.02020891  0.0825502 0.0000
  4    -67.5280274921  -2.068126718491 0.01713902  0.00174490  0.0116035 0.0000
  5    -67.4746158039   0.053411688142 0.01073597  0.00113297  0.0061418 0.0000
  6    -67.4963361422  -0.021720338281 0.00492233  0.00051036  0.0031558 0.0000
                      *** Initiating the SOSCF procedure ***
                           *** Shutting down DIIS ***
                      *** Re-Reading the Fockian *** 
                      *** Removing any level shift *** 
ITER      Energy       Delta-E        Grad      Rot      Max-DP    RMS-DP
  7    -67.50247151  -0.0061353640  0.001931  0.001931  0.002892  0.000260
  8    -67.50422021  -0.0017487044  0.000483  0.001234  0.001299  0.000113
  9    -67.50423002  -0.0000098087  0.000244  0.001398  0.001689  0.000133
 10    -67.50423427  -0.0000042489  0.000086  0.000319  0.000317  0.000025
 11    -67.50423456  -0.0000002943  0.000053  0.000444  0.000441  0.000033
 12    -67.50423474  -0.0000001803  0.000011  0.000030  0.000041  0.000003
 13    -67.50423475  -0.0000000052  0.000005  0.000018  0.000037  0.000002
                 **** Energy Check signals convergence ****
              ***Rediagonalizing the Fockian in SOSCF/NRSCF***

               *****************************************************
               *                     SUCCESS                       *
               *           SCF CONVERGED AFTER  14 CYCLES          *
               *****************************************************


----------------
TOTAL SCF ENERGY
----------------

Total Energy       :          -67.50423475 Eh           -1836.88361 eV

Components:
Nuclear Repulsion  :          228.75149277 Eh            6224.64457 eV
Electronic Energy  :         -296.25572752 Eh           -8061.52819 eV
One Electron Energy:         -551.14054831 Eh          -14997.29677 eV
Two Electron Energy:          254.88482079 Eh            6935.76858 eV


---------------
SCF CONVERGENCE
---------------

  Last Energy change         ...   -1.4552e-09  Tolerance :   1.0000e-08
  Last MAX-Density change    ...    7.9342e-06  Tolerance :   1.0000e-07
  Last RMS-Density change    ...    5.7826e-07  Tolerance :   5.0000e-09
  Last Orbital Gradient      ...    2.3010e-06  Tolerance :   1.0000e-05
  Last Orbital Rotation      ...    7.5225e-06  Tolerance :   1.0000e-05

             **** THE GBW FILE WAS UPDATED (firstjob.gbw) ****
             **** DENSITY firstjob.scfp WAS UPDATED ****
             **** ENERGY FILE WAS UPDATED (firstjob.en.tmp) ****
             **** THE GBW FILE WAS UPDATED (firstjob.gbw) ****
             **** DENSITY firstjob.scfp WAS UPDATED ****
----------------
ORBITAL ENERGIES
----------------

  NO   OCC          E(Eh)            E(eV) 
   0   2.0000      -1.610530       -43.8247 
   1   2.0000      -1.505213       -40.9589 
   2   2.0000      -1.419502       -38.6266 
   3   2.0000      -1.291711       -35.1492 
   4   2.0000      -1.242558       -33.8117 
   5   2.0000      -1.082387       -29.4533 
   6   2.0000      -1.038105       -28.2483 
   7   2.0000      -0.905745       -24.6466 
   8   2.0000      -0.873268       -23.7628 
   9   2.0000      -0.762396       -20.7459 
  10   2.0000      -0.750924       -20.4337 
  11   2.0000      -0.708901       -19.2902 
  12   2.0000      -0.686789       -18.6885 
  13   2.0000      -0.645435       -17.5632 
  14   2.0000      -0.618817       -16.8389 
  15   2.0000      -0.591281       -16.0896 
  16   2.0000      -0.578528       -15.7425 
  17   2.0000      -0.540993       -14.7212 
  18   2.0000      -0.531858       -14.4726 
  19   2.0000      -0.523844       -14.2545 
  20   2.0000      -0.506826       -13.7914 
  21   2.0000      -0.492947       -13.4138 
  22   2.0000      -0.472772       -12.8648 
  23   2.0000      -0.469179       -12.7670 
  24   2.0000      -0.430102       -11.7037 
  25   2.0000      -0.404843       -11.0163 
  26   0.0000      -0.417404       -11.3581 
  27   0.0000      -0.073715        -2.0059 
  28   0.0000      -0.049411        -1.3445 
  29   0.0000      -0.020664        -0.5623 
  30   0.0000      -0.012594        -0.3427 
  31   0.0000       0.039608         1.0778 
  32   0.0000       0.081532         2.2186 
  33   0.0000       0.086324         2.3490 
  34   0.0000       0.089984         2.4486 
  35   0.0000       0.093983         2.5574 
  36   0.0000       0.098755         2.6873 
  37   0.0000       0.108650         2.9565 
  38   0.0000       0.113707         3.0941 
  39   0.0000       0.119516         3.2522 
  40   0.0000       0.124041         3.3753 
  41   0.0000       0.132085         3.5942 
  42   0.0000       0.134379         3.6566 
  43   0.0000       0.137416         3.7393 
  44   0.0000       0.145078         3.9478 
  45   0.0000       0.149196         4.0598 
  46   0.0000       0.160656         4.3717 
  47   0.0000       0.225377         6.1328 

                    ********************************
                    * MULLIKEN POPULATION ANALYSIS *
                    ********************************

-----------------------
MULLIKEN ATOMIC CHARGES
-----------------------
   0 C :   -0.094266
   1 C :   -0.135855
   2 C :   -0.120547
   3 C :   -0.136364
   4 C :   -0.191713
   5 C :   -0.153543
   6 C :   -0.316388
   7 H :    0.246937
   8 H :    0.238715
   9 H :    0.138783
  10 H :    0.137823
  11 H :    0.145141
  12 H :    0.211658
  13 H :    0.220778
  14 N :    0.506430
  15 O :   -0.345830
  16 O :   -0.351761
  17 H :    1.000000
Sum of atomic charges:    1.0000000

--------------------------------
MULLIKEN REDUCED ORBITAL CHARGES
--------------------------------
  0 C s       :     1.368838  s :     1.368838
      pz      :     0.966847  p :     2.725428
      px      :     0.839346
      py      :     0.919235
  1 C s       :     1.411059  s :     1.411059
      pz      :     0.921311  p :     2.724795
      px      :     0.956468
      py      :     0.847016
  2 C s       :     1.352912  s :     1.352912
      pz      :     1.054764  p :     2.767635
      px      :     0.811761
      py      :     0.901111
  3 C s       :     1.416564  s :     1.416564
      pz      :     0.952530  p :     2.719799
      px      :     0.802403
      py      :     0.964866
  4 C s       :     1.414250  s :     1.414250
      pz      :     0.959206  p :     2.777463
      px      :     0.935811
      py      :     0.882446
  5 C s       :     1.415529  s :     1.415529
      pz      :     0.922555  p :     2.738014
      px      :     0.909457
      py      :     0.906001
  6 C s       :     1.468011  s :     1.468011
      pz      :     0.953322  p :     2.848377
      px      :     1.004247
      py      :     0.890808
  7 H s       :     0.753063  s :     0.753063
  8 H s       :     0.761285  s :     0.761285
  9 H s       :     0.861217  s :     0.861217
 10 H s       :     0.862177  s :     0.862177
 11 H s       :     0.854859  s :     0.854859
 12 H s       :     0.788342  s :     0.788342
 13 H s       :     0.779222  s :     0.779222
 14 N s       :     1.512193  s :     1.512193
      pz      :     0.977562  p :     2.981377
      px      :     1.005382
      py      :     0.998433
 15 O s       :     1.972957  s :     1.972957
      pz      :     1.454599  p :     4.372873
      px      :     1.889744
      py      :     1.028531
 16 O s       :     1.972337  s :     1.972337
      pz      :     1.542184  p :     4.379423
      px      :     1.100346
      py      :     1.736894
 17 H s       :     0.000000  s :     0.000000


                     *******************************
                     * LOEWDIN POPULATION ANALYSIS *
                     *******************************

----------------------
LOEWDIN ATOMIC CHARGES
----------------------
   0 C :   -0.071319
   1 C :   -0.080055
   2 C :   -0.119769
   3 C :   -0.074881
   4 C :   -0.125386
   5 C :   -0.090763
   6 C :   -0.177714
   7 H :    0.170254
   8 H :    0.164235
   9 H :    0.087552
  10 H :    0.087517
  11 H :    0.093229
  12 H :    0.143401
  13 H :    0.151019
  14 N :    0.554863
  15 O :   -0.353409
  16 O :   -0.358775
  17 H :    1.000000

-------------------------------
LOEWDIN REDUCED ORBITAL CHARGES
-------------------------------
  0 C s       :     1.209225  s :     1.209225
      pz      :     0.983766  p :     2.862094
      px      :     0.916387
      py      :     0.961941
  1 C s       :     1.215987  s :     1.215987
      pz      :     0.949396  p :     2.864068
      px      :     0.997894
      py      :     0.916779
  2 C s       :     1.217174  s :     1.217174
      pz      :     1.073289  p :     2.902595
      px      :     0.874741
      py      :     0.954566
  3 C s       :     1.221452  s :     1.221452
      pz      :     0.966924  p :     2.853429
      px      :     0.893252
      py      :     0.993252
  4 C s       :     1.215527  s :     1.215527
      pz      :     0.982385  p :     2.909858
      px      :     0.982441
      py      :     0.945032
  5 C s       :     1.219835  s :     1.219835
      pz      :     0.948963  p :     2.870928
      px      :     0.965096
      py      :     0.956869
  6 C s       :     1.202832  s :     1.202832
      pz      :     0.994321  p :     2.974882
      px      :     1.035535
      py      :     0.945026
  7 H s       :     0.829746  s :     0.829746
  8 H s       :     0.835765  s :     0.835765
  9 H s       :     0.912448  s :     0.912448
 10 H s       :     0.912483  s :     0.912483
 11 H s       :     0.906771  s :     0.906771
 12 H s       :     0.856599  s :     0.856599
 13 H s       :     0.848981  s :     0.848981
 14 N s       :     1.433718  s :     1.433718
      pz      :     0.978829  p :     3.011419
      px      :     1.020597
      py      :     1.011993
 15 O s       :     1.946825  s :     1.946825
      pz      :     1.458759  p :     4.406584
      px      :     1.891685
      py      :     1.056140
 16 O s       :     1.945429  s :     1.945429
      pz      :     1.543558  p :     4.413346
      px      :     1.128064
      py      :     1.741724
 17 H s       :     0.000000  s :     0.000000


                      *****************************
                      * MAYER POPULATION ANALYSIS *
                      *****************************

  NA   - Mulliken gross atomic population
  ZA   - Total nuclear charge
  QA   - Mulliken gross atomic charge
  VA   - Mayer's total valence
  BVA  - Mayer's bonded valence
  FA   - Mayer's free valence

  ATOM       NA         ZA         QA         VA         BVA        FA
  0 C      6.3563     4.0000    -2.3563     2.3628    11.0746    -8.7118
  1 C      6.4081     4.0000    -2.4081     2.2069    10.7756    -8.5687
  2 C      6.2916     4.0000    -2.2916     2.4470    10.3909    -7.9439
  3 C      6.3888     4.0000    -2.3888     2.2155    10.7074    -8.4918
  4 C      6.4691     4.0000    -2.4691     2.1694    10.8734    -8.7040
  5 C      6.4179     4.0000    -2.4179     2.2026    10.8460    -8.6434
  6 C      6.7564     4.0000    -2.7564     1.8140    11.3320    -9.5179
  7 H      1.4614     1.0000    -0.4614     0.7871     2.7955    -2.0084
  8 H      1.4676     1.0000    -0.4676     0.7813     2.8144    -2.0331
  9 H      1.5334     1.0000    -0.5334     0.7155     2.9409    -2.2255
 10 H      1.5280     1.0000    -0.5280     0.7212     2.9188    -2.1976
 11 H      1.5225     1.0000    -0.5225     0.7270     2.9189    -2.1919
 12 H      1.4871     1.0000    -0.4871     0.7628     2.8383    -2.0755
 13 H      1.4784     1.0000    -0.4784     0.7712     2.8123    -2.0412
 14 N      6.0299     5.0000    -1.0299     2.6954     8.0796    -5.3843
 15 O      6.8772     6.0000    -0.8772     1.6003     3.0941    -1.4938
 16 O      6.8885     6.0000    -0.8885     1.5916     3.1119    -1.5203
 17 H      0.0000     1.0000     1.0000     0.0000     0.0000    -0.0000

  Mayer bond orders larger than 0.100000
B(  0-C ,  1-C ) :   3.7249 B(  0-C ,  2-C ) :   0.1122 B(  0-C ,  3-C ) :   0.1090 
B(  0-C ,  5-C ) :   3.7483 B(  0-C ,  6-C ) :   2.9932 B(  1-C ,  2-C ) :   3.9381 
B(  1-C ,  5-C ) :   0.1008 B(  1-C ,  8-H ) :   2.6881 B(  2-C ,  3-C ) :   3.7676 
B(  2-C ,  4-C ) :   0.1068 B(  2-C , 14-N ) :   2.2343 B(  3-C ,  4-C ) :   3.8400 
B(  3-C ,  5-C ) :   0.1143 B(  3-C ,  7-H ) :   2.6863 B(  4-C ,  5-C ) :   3.9445 
B(  4-C , 13-H ) :   2.6963 B(  5-C , 12-H ) :   2.7006 B(  6-C ,  9-H ) :   2.7417 
B(  6-C , 10-H ) :   2.7251 B(  6-C , 11-H ) :   2.7227 B( 14-N , 15-O ) :   2.8742 
B( 14-N , 16-O ) :   2.8944 B( 15-O , 16-O ) :   0.1618 

-------
TIMINGS
-------

Total SCF time: 0 days 0 hours 0 min 1 sec 

Total time                  ....       1.098 sec
Sum of individual times     ....       0.330 sec  ( 30.1%)

Fock matrix formation       ....       0.140 sec  ( 12.8%)
Diagonalization             ....       0.009 sec  (  0.8%)
Density matrix formation    ....       0.001 sec  (  0.1%)
Population analysis         ....       0.067 sec  (  6.1%)
Initial guess               ....       0.002 sec  (  0.2%)
Orbital Transformation      ....       0.000 sec  (  0.0%)
Orbital Orthonormalization  ....       0.000 sec  (  0.0%)
DIIS solution               ....       0.089 sec  (  8.1%)
SOSCF solution              ....       0.022 sec  (  2.0%)

Maximum memory used throughout the entire SCF-calculation: 222.9 MB

-------------------------   --------------------
FINAL SINGLE POINT ENERGY       -67.504234749450
-------------------------   --------------------

------------------------------------------------------------------------------
                          SCF GRADIENT FOR NDO METHODS
------------------------------------------------------------------------------

The cartesian gradient:
   1   C   :    0.004995095    0.016671104    0.010005178
   2   C   :   -0.031055680   -0.040787808   -0.020256416
   3   C   :   -0.004578870    0.025073445    0.013340177
   4   C   :   -0.014939079   -0.017644590   -0.007753999
   5   C   :    0.023297469    0.016880160    0.005916216
   6   C   :    0.028104953   -0.015994095   -0.012979675
   7   C   :   -0.001799761    0.014807485    0.008943915
   8   H   :   -0.004002306    0.012720448    0.008826659
   9   H   :    0.012287857   -0.006724658   -0.005761687
  10   H   :   -0.018815526   -0.006160735   -0.004028407
  11   H   :    0.008467198    0.006626306   -0.013914681
  12   H   :    0.009619415   -0.010328868    0.012283042
  13   H   :   -0.010329140   -0.007062571   -0.002921002
  14   H   :   -0.010923808    0.003426707    0.004181271
  15   N   :    0.008168880    0.018182027    0.006715460
  16   O   :    0.031002799   -0.041240255   -0.016278483
  17   O   :   -0.029470384    0.031504908    0.013552475
  18   H   :   -0.000029113    0.000050991    0.000129955

Norm of the cartesian gradient     ...    0.120513197
RMS gradient                       ...    0.016399769
MAX gradient                       ...    0.041240255

                            ***************************************
                            *     ORCA property calculations      *
                            ***************************************

                                    ---------------------
                                    Active property flags
                                    ---------------------
   (+) Dipole Moment


------------------------------------------------------------------------------
                       ORCA ELECTRIC PROPERTIES CALCULATION
------------------------------------------------------------------------------

Dipole Moment Calculation                       ... on
Quadrupole Moment Calculation                   ... off
Polarizability Calculation                      ... off
GBWName                                         ... firstjob.gbw
Electron density                                ... firstjob.scfp
The origin for moment calculation is the CENTER OF MASS  = (-7.595860,  2.018658 -3.073861)

-------------
DIPOLE MOMENT
-------------
                                X             Y             Z
Electronic contribution:    -40.58084     -36.29207      -6.12716
Nuclear contribution   :     -9.11006       5.35476      14.70980
                        -----------------------------------------
Total Dipole Moment    :    -49.69090     -30.93731       8.58265
                        -----------------------------------------
Magnitude (a.u.)       :     59.16050
Magnitude (Debye)      :    150.37404



--------------------
Rotational spectrum 
--------------------
 
Rotational constants in cm-1:     0.047829     0.028593     0.019219 
Rotational constants in MHz :  1433.881832   857.198406   576.175411 

 Dipole components along the rotational axes: 
x,y,z [a.u.] :   -56.751411    15.574391     6.056441 
x,y,z [Debye]:  -144.250624    39.586957    15.394251 

 

----------------------------------------------------------------------------
                           ORCA NUMERICAL FREQUENCIES
----------------------------------------------------------------------------

Number of atoms                ... 18
Central differences            ... used
Number of displacements        ... 108
Numerical increment            ... 5.000e-03 bohr
IR-spectrum generation         ... on
Raman-spectrum generation      ... off
Surface Crossing Hessian       ... off

The output will be reduced. Please look at the following files:
SCF program output             ... >firstjob.lastscf
Integral program output        ... >firstjob.lastint
Gradient program output        ... >firstjob.lastgrad
Dipole moment program output   ... >firstjob.lastmom
AutoCI program output          ... >firstjob.lastautoci

	<< Calculating on displaced geometry   1 (of 108) >>
	<< Calculating on displaced geometry   2 (of 108) >>
	<< Calculating on displaced geometry   3 (of 108) >>
	<< Calculating on displaced geometry   4 (of 108) >>
	<< Calculating on displaced geometry   5 (of 108) >>
	<< Calculating on displaced geometry   6 (of 108) >>
	<< Calculating on displaced geometry   7 (of 108) >>
	<< Calculating on displaced geometry   8 (of 108) >>
	<< Calculating on displaced geometry   9 (of 108) >>
	<< Calculating on displaced geometry  10 (of 108) >>
	<< Calculating on displaced geometry  11 (of 108) >>
	<< Calculating on displaced geometry  12 (of 108) >>
	<< Calculating on displaced geometry  13 (of 108) >>
	<< Calculating on displaced geometry  14 (of 108) >>
	<< Calculating on displaced geometry  15 (of 108) >>
	<< Calculating on displaced geometry  16 (of 108) >>
	<< Calculating on displaced geometry  17 (of 108) >>
	<< Calculating on displaced geometry  18 (of 108) >>
	<< Calculating on displaced geometry  19 (of 108) >>
	<< Calculating on displaced geometry  20 (of 108) >>
	<< Calculating on displaced geometry  21 (of 108) >>
	<< Calculating on displaced geometry  22 (of 108) >>
	<< Calculating on displaced geometry  23 (of 108) >>
	<< Calculating on displaced geometry  24 (of 108) >>
	<< Calculating on displaced geometry  25 (of 108) >>
	<< Calculating on displaced geometry  26 (of 108) >>
	<< Calculating on displaced geometry  27 (of 108) >>
	<< Calculating on displaced geometry  28 (of 108) >>
	<< Calculating on displaced geometry  29 (of 108) >>
	<< Calculating on displaced geometry  30 (of 108) >>
	<< Calculating on displaced geometry  31 (of 108) >>
	<< Calculating on displaced geometry  32 (of 108) >>
	<< Calculating on displaced geometry  33 (of 108) >>
	<< Calculating on displaced geometry  34 (of 108) >>
	<< Calculating on displaced geometry  35 (of 108) >>
	<< Calculating on displaced geometry  36 (of 108) >>
	<< Calculating on displaced geometry  37 (of 108) >>
	<< Calculating on displaced geometry  38 (of 108) >>
	<< Calculating on displaced geometry  39 (of 108) >>
	<< Calculating on displaced geometry  40 (of 108) >>
	<< Calculating on displaced geometry  41 (of 108) >>
	<< Calculating on displaced geometry  42 (of 108) >>
	<< Calculating on displaced geometry  43 (of 108) >>
	<< Calculating on displaced geometry  44 (of 108) >>
	<< Calculating on displaced geometry  45 (of 108) >>
	<< Calculating on displaced geometry  46 (of 108) >>
	<< Calculating on displaced geometry  47 (of 108) >>
	<< Calculating on displaced geometry  48 (of 108) >>
	<< Calculating on displaced geometry  49 (of 108) >>
	<< Calculating on displaced geometry  50 (of 108) >>
	<< Calculating on displaced geometry  51 (of 108) >>
	<< Calculating on displaced geometry  52 (of 108) >>
	<< Calculating on displaced geometry  53 (of 108) >>
	<< Calculating on displaced geometry  54 (of 108) >>
	<< Calculating on displaced geometry  55 (of 108) >>
	<< Calculating on displaced geometry  56 (of 108) >>
	<< Calculating on displaced geometry  57 (of 108) >>
	<< Calculating on displaced geometry  58 (of 108) >>
	<< Calculating on displaced geometry  59 (of 108) >>
	<< Calculating on displaced geometry  60 (of 108) >>
	<< Calculating on displaced geometry  61 (of 108) >>
	<< Calculating on displaced geometry  62 (of 108) >>
	<< Calculating on displaced geometry  63 (of 108) >>
	<< Calculating on displaced geometry  64 (of 108) >>
	<< Calculating on displaced geometry  65 (of 108) >>
	<< Calculating on displaced geometry  66 (of 108) >>
	<< Calculating on displaced geometry  67 (of 108) >>
	<< Calculating on displaced geometry  68 (of 108) >>
	<< Calculating on displaced geometry  69 (of 108) >>
	<< Calculating on displaced geometry  70 (of 108) >>
	<< Calculating on displaced geometry  71 (of 108) >>
	<< Calculating on displaced geometry  72 (of 108) >>
	<< Calculating on displaced geometry  73 (of 108) >>
	<< Calculating on displaced geometry  74 (of 108) >>
	<< Calculating on displaced geometry  75 (of 108) >>
	<< Calculating on displaced geometry  76 (of 108) >>
	<< Calculating on displaced geometry  77 (of 108) >>
	<< Calculating on displaced geometry  78 (of 108) >>
	<< Calculating on displaced geometry  79 (of 108) >>
	<< Calculating on displaced geometry  80 (of 108) >>
	<< Calculating on displaced geometry  81 (of 108) >>
	<< Calculating on displaced geometry  82 (of 108) >>
	<< Calculating on displaced geometry  83 (of 108) >>
	<< Calculating on displaced geometry  84 (of 108) >>
	<< Calculating on displaced geometry  85 (of 108) >>
	<< Calculating on displaced geometry  86 (of 108) >>
	<< Calculating on displaced geometry  87 (of 108) >>
	<< Calculating on displaced geometry  88 (of 108) >>
	<< Calculating on displaced geometry  89 (of 108) >>
	<< Calculating on displaced geometry  90 (of 108) >>
	<< Calculating on displaced geometry  91 (of 108) >>
	<< Calculating on displaced geometry  92 (of 108) >>
	<< Calculating on displaced geometry  93 (of 108) >>
	<< Calculating on displaced geometry  94 (of 108) >>
	<< Calculating on displaced geometry  95 (of 108) >>
	<< Calculating on displaced geometry  96 (of 108) >>
	<< Calculating on displaced geometry  97 (of 108) >>
	<< Calculating on displaced geometry  98 (of 108) >>
	<< Calculating on displaced geometry  99 (of 108) >>
	<< Calculating on displaced geometry 100 (of 108) >>
	<< Calculating on displaced geometry 101 (of 108) >>
	<< Calculating on displaced geometry 102 (of 108) >>
	<< Calculating on displaced geometry 103 (of 108) >>
	<< Calculating on displaced geometry 104 (of 108) >>
	<< Calculating on displaced geometry 105 (of 108) >>
	<< Calculating on displaced geometry 106 (of 108) >>
	<< Calculating on displaced geometry 107 (of 108) >>
	<< Calculating on displaced geometry 108 (of 108) >>

-----------------------
VIBRATIONAL FREQUENCIES
-----------------------

Scaling factor for frequencies =  1.000000000 (already applied!)

   0:         0.00 cm**-1
   1:         0.00 cm**-1
   2:         0.00 cm**-1
   3:         0.00 cm**-1
   4:         0.00 cm**-1
   5:         0.00 cm**-1
   6:      -686.49 cm**-1 ***imaginary mode***
   7:      -435.69 cm**-1 ***imaginary mode***
   8:      -231.59 cm**-1 ***imaginary mode***
   9:      -186.85 cm**-1 ***imaginary mode***
  10:      -155.72 cm**-1 ***imaginary mode***
  11:       -67.54 cm**-1 ***imaginary mode***
  12:       -33.55 cm**-1 ***imaginary mode***
  13:        64.52 cm**-1
  14:       181.23 cm**-1
  15:       208.24 cm**-1
  16:       287.05 cm**-1
  17:       306.67 cm**-1
  18:       359.84 cm**-1
  19:       492.14 cm**-1
  20:       535.97 cm**-1
  21:       565.19 cm**-1
  22:       624.40 cm**-1
  23:       669.76 cm**-1
  24:       751.60 cm**-1
  25:       776.64 cm**-1
  26:       816.44 cm**-1
  27:       862.66 cm**-1
  28:       868.52 cm**-1
  29:       926.09 cm**-1
  30:       949.95 cm**-1
  31:       976.94 cm**-1
  32:      1031.91 cm**-1
  33:      1076.98 cm**-1
  34:      1092.08 cm**-1
  35:      1098.93 cm**-1
  36:      1131.16 cm**-1
  37:      1175.20 cm**-1
  38:      1221.30 cm**-1
  39:      1239.75 cm**-1
  40:      1436.57 cm**-1
  41:      1487.89 cm**-1
  42:      1550.27 cm**-1
  43:      1599.36 cm**-1
  44:      1784.24 cm**-1
  45:      1845.36 cm**-1
  46:      1913.21 cm**-1
  47:      3104.11 cm**-1
  48:      3176.14 cm**-1
  49:      3262.50 cm**-1
  50:      3267.77 cm**-1
  51:      3268.74 cm**-1
  52:      3281.56 cm**-1
  53:      3299.30 cm**-1


------------
NORMAL MODES
------------

These modes are the cartesian displacements weighted by the diagonal matrix
M(i,i)=1/sqrt(m[i]) where m[i] is the mass of the displaced atom
Thus, these vectors are normalized but *not* orthogonal

                  0          1          2          3          4          5    
      0       0.000000   0.000000   0.000000   0.000000   0.000000   0.000000
      1       0.000000   0.000000   0.000000   0.000000   0.000000   0.000000
      2       0.000000   0.000000   0.000000   0.000000   0.000000   0.000000
      3       0.000000   0.000000   0.000000   0.000000   0.000000   0.000000
      4       0.000000   0.000000   0.000000   0.000000   0.000000   0.000000
      5       0.000000   0.000000   0.000000   0.000000   0.000000   0.000000
      6       0.000000   0.000000   0.000000   0.000000   0.000000   0.000000
      7       0.000000   0.000000   0.000000   0.000000   0.000000   0.000000
      8       0.000000   0.000000   0.000000   0.000000   0.000000   0.000000
      9       0.000000   0.000000   0.000000   0.000000   0.000000   0.000000
     10       0.000000   0.000000   0.000000   0.000000   0.000000   0.000000
     11       0.000000   0.000000   0.000000   0.000000   0.000000   0.000000
     12       0.000000   0.000000   0.000000   0.000000   0.000000   0.000000
     13       0.000000   0.000000   0.000000   0.000000   0.000000   0.000000
     14       0.000000   0.000000   0.000000   0.000000   0.000000   0.000000
     15       0.000000   0.000000   0.000000   0.000000   0.000000   0.000000
     16       0.000000   0.000000   0.000000   0.000000   0.000000   0.000000
     17       0.000000   0.000000   0.000000   0.000000   0.000000   0.000000
     18       0.000000   0.000000   0.000000   0.000000   0.000000   0.000000
     19       0.000000   0.000000   0.000000   0.000000   0.000000   0.000000
     20       0.000000   0.000000   0.000000   0.000000   0.000000   0.000000
     21       0.000000   0.000000   0.000000   0.000000   0.000000   0.000000
     22       0.000000   0.000000   0.000000   0.000000   0.000000   0.000000
     23       0.000000   0.000000   0.000000   0.000000   0.000000   0.000000
     24       0.000000   0.000000   0.000000   0.000000   0.000000   0.000000
     25       0.000000   0.000000   0.000000   0.000000   0.000000   0.000000
     26       0.000000   0.000000   0.000000   0.000000   0.000000   0.000000
     27       0.000000   0.000000   0.000000   0.000000   0.000000   0.000000
     28       0.000000   0.000000   0.000000   0.000000   0.000000   0.000000
     29       0.000000   0.000000   0.000000   0.000000   0.000000   0.000000
     30       0.000000   0.000000   0.000000   0.000000   0.000000   0.000000
     31       0.000000   0.000000   0.000000   0.000000   0.000000   0.000000
     32       0.000000   0.000000   0.000000   0.000000   0.000000   0.000000
     33       0.000000   0.000000   0.000000   0.000000   0.000000   0.000000
     34       0.000000   0.000000   0.000000   0.000000   0.000000   0.000000
     35       0.000000   0.000000   0.000000   0.000000   0.000000   0.000000
     36       0.000000   0.000000   0.000000   0.000000   0.000000   0.000000
     37       0.000000   0.000000   0.000000   0.000000   0.000000   0.000000
     38       0.000000   0.000000   0.000000   0.000000   0.000000   0.000000
     39       0.000000   0.000000   0.000000   0.000000   0.000000   0.000000
     40       0.000000   0.000000   0.000000   0.000000   0.000000   0.000000
     41       0.000000   0.000000   0.000000   0.000000   0.000000   0.000000
     42       0.000000   0.000000   0.000000   0.000000   0.000000   0.000000
     43       0.000000   0.000000   0.000000   0.000000   0.000000   0.000000
     44       0.000000   0.000000   0.000000   0.000000   0.000000   0.000000
     45       0.000000   0.000000   0.000000   0.000000   0.000000   0.000000
     46       0.000000   0.000000   0.000000   0.000000   0.000000   0.000000
     47       0.000000   0.000000   0.000000   0.000000   0.000000   0.000000
     48       0.000000   0.000000   0.000000   0.000000   0.000000   0.000000
     49       0.000000   0.000000   0.000000   0.000000   0.000000   0.000000
     50       0.000000   0.000000   0.000000   0.000000   0.000000   0.000000
     51       0.000000   0.000000   0.000000   0.000000   0.000000   0.000000
     52       0.000000   0.000000   0.000000   0.000000   0.000000   0.000000
     53       0.000000   0.000000   0.000000   0.000000   0.000000   0.000000
                  6          7          8          9         10         11    
      0      -0.000702   0.007153  -0.004022  -0.022284  -0.031938  -0.008640
      1      -0.001074  -0.010936   0.020913   0.040464   0.049453  -0.004995
      2       0.001589   0.013768  -0.033360  -0.066723  -0.074628   0.012427
      3      -0.000602   0.003684  -0.033568  -0.018452  -0.001014  -0.006801
      4      -0.002563  -0.019839   0.128374   0.050044  -0.028362  -0.006284
      5       0.002844   0.025752  -0.206637  -0.086276   0.039539   0.004957
      6       0.000491  -0.007452   0.002064  -0.017949  -0.001744  -0.002639
      7      -0.002945   0.034837  -0.004692   0.059628   0.003878  -0.004628
      8       0.003620  -0.066094   0.004674  -0.099927  -0.008150   0.002553
      9      -0.001825   0.014320   0.017660  -0.011986  -0.001266  -0.001344
     10       0.002951  -0.062097  -0.068297   0.056596   0.033054  -0.000113
     11      -0.005010   0.099841   0.107345  -0.091435  -0.049734   0.006332
     12      -0.000721  -0.014042   0.005256   0.002256  -0.008369  -0.003769
     13       0.003308   0.063783  -0.015507  -0.021100   0.022317   0.004221
     14      -0.003088  -0.094672   0.025744   0.033501  -0.029174   0.009794
     15      -0.003362   0.001023  -0.008444   0.023843  -0.017973  -0.008141
     16       0.009319  -0.010139   0.033672  -0.122975   0.035029   0.003139
     17      -0.013144   0.019502  -0.051230   0.191888  -0.049858   0.010363
     18      -0.004336  -0.001573   0.017220  -0.010836   0.018483  -0.017861
     19      -0.013250   0.010160  -0.070020   0.037697  -0.036416  -0.006054
     20       0.022398  -0.017209   0.106620  -0.067780   0.052442   0.012564
     21      -0.005345   0.129178   0.027115   0.004197  -0.003163   0.004662
     22       0.019775  -0.456961  -0.100956   0.002084   0.045917   0.003151
     23      -0.031932   0.734346   0.159801  -0.003176  -0.069525   0.002387
     24      -0.001633   0.030940  -0.108233  -0.014308   0.024352  -0.009317
     25       0.002322  -0.117267   0.397837   0.020565  -0.144924  -0.008490
     26      -0.002740   0.181915  -0.637058  -0.050986   0.205882   0.000433
     27       0.017517   0.008824   0.026482   0.012879   0.077573  -0.024718
     28      -0.239075  -0.030950  -0.151957  -0.080320  -0.214273   0.004500
     29       0.348130   0.021905   0.209897   0.053223   0.166338   0.017546
     30      -0.496628  -0.030431   0.022916  -0.047538   0.026747  -0.023375
     31       0.194805  -0.077670  -0.234071  -0.186061  -0.417490  -0.006691
     32      -0.265114  -0.048588   0.084094  -0.117681  -0.005299   0.008930
     33       0.565387   0.050072   0.012464   0.043032   0.098918  -0.023635
     34       0.201581   0.102843   0.044708   0.252430   0.353906  -0.019206
     35      -0.317066   0.069013   0.278163   0.197938   0.528999  -0.000158
     36      -0.004325   0.014720  -0.025638   0.091797  -0.022809  -0.011675
     37       0.013294  -0.059911   0.101497  -0.402423   0.043748   0.008988
     38      -0.020215   0.092178  -0.155425   0.630580  -0.055453   0.008107
     39       0.000539  -0.044534   0.004549   0.020863   0.001522  -0.002524
     40      -0.002537   0.178222  -0.014784  -0.075479   0.009157   0.009457
     41       0.005322  -0.274212   0.023500   0.130524   0.008892   0.008894
     42       0.000353  -0.006542   0.000053   0.002044   0.010512  -0.002884
     43      -0.002431   0.014714  -0.004084   0.000216  -0.018284  -0.002487
     44       0.003141  -0.025344   0.009098   0.001409   0.016651  -0.004130
     45       0.001007  -0.003355  -0.002244   0.020118   0.019271  -0.003323
     46      -0.001241   0.007520  -0.003653  -0.009268  -0.023251  -0.001670
     47       0.000674  -0.006342   0.007061   0.034879   0.033959  -0.005877
     48       0.000454  -0.003974   0.000225  -0.002244   0.005964  -0.002692
     49      -0.003671   0.006399  -0.006278  -0.028838  -0.022275  -0.001296
     50       0.005690  -0.006271   0.015050   0.035407   0.005354  -0.005253
     51       0.028154   0.011371   0.117331   0.237193  -0.227576   0.812312
     52      -0.027728  -0.032428  -0.119170  -0.124748   0.359846   0.265244
     53       0.029216   0.003540   0.117837   0.249706  -0.210523  -0.514996
                 12         13         14         15         16         17    
      0       0.018401   0.037344  -0.080762   0.023459   0.078382   0.116429
      1       0.021657  -0.064676  -0.010287  -0.035309  -0.027000   0.056713
      2      -0.040836   0.093318   0.069732   0.042521   0.033146  -0.061405
      3       0.005392   0.001335  -0.079489   0.016044   0.007851   0.036110
      4       0.027767   0.036389   0.049276  -0.018206   0.091260   0.063632
      5       0.001009  -0.068505   0.027274   0.026758   0.009250   0.097574
      6      -0.016307   0.007331  -0.063053   0.005771  -0.089457  -0.029117
      7       0.017574  -0.001610   0.039433  -0.003761   0.205290  -0.042188
      8       0.013998  -0.012261   0.053640   0.005641  -0.160384   0.257130
      9      -0.025892  -0.014832  -0.040626  -0.009994  -0.080307  -0.100182
     10      -0.008686   0.048973   0.025859   0.019449   0.024176  -0.012762
     11      -0.000519  -0.086642   0.027391  -0.051941  -0.029806   0.077991
     12      -0.009204  -0.018778  -0.061174  -0.007679  -0.010507  -0.037164
     13      -0.032851   0.098964   0.007684   0.025892  -0.132116  -0.024066
     14      -0.017076  -0.155641  -0.019148  -0.068824   0.036647  -0.095919
     15       0.012352   0.018858  -0.058201   0.010587   0.041473   0.078474
     16      -0.019489  -0.032182  -0.023552  -0.009517  -0.029492  -0.066203
     17      -0.032769   0.048663   0.021552  -0.009653  -0.095671  -0.000581
     18       0.063595  -0.015952   0.196729  -0.012801  -0.045335  -0.065293
     19       0.028202  -0.039313   0.052604  -0.051159  -0.064474   0.038312
     20      -0.043647   0.054199   0.013400   0.061580   0.081600  -0.054447
     21      -0.057727  -0.012986  -0.081157  -0.029470  -0.153621  -0.217338
     22      -0.023957   0.073934   0.034466   0.066902  -0.119915   0.068197
     23       0.017484  -0.124842   0.004464  -0.126703   0.176242  -0.075196
     24       0.018823  -0.033466  -0.097620   0.014274   0.095819   0.041284
     25       0.038795   0.175060   0.103549   0.011547  -0.034778   0.303355
     26       0.027788  -0.278919  -0.076853  -0.004881   0.348354  -0.097833
     27       0.096465  -0.068538   0.394884  -0.040121  -0.185763  -0.209389
     28      -0.021705   0.056707  -0.185173  -0.022096   0.157228   0.171021
     29      -0.069995   0.059230  -0.254827   0.104621   0.165476   0.205772
     30       0.087848  -0.044313   0.373476  -0.035512  -0.145748  -0.219911
     31       0.040751   0.092848   0.462843  -0.133943  -0.071285  -0.439693
     32      -0.025316   0.059756   0.201493   0.031683   0.009464  -0.232357
     33       0.090832  -0.074228   0.320465  -0.030685  -0.169507  -0.139237
     34       0.085381  -0.248486   0.180267  -0.053530  -0.356873   0.065760
     35       0.009274  -0.179515   0.053338   0.078834  -0.212470   0.082193
     36       0.029276   0.044362  -0.055871   0.015982   0.045295   0.162256
     37      -0.042693  -0.125576  -0.029367  -0.018277   0.059183  -0.241520
     38      -0.034830   0.186453   0.028733  -0.007335  -0.321999   0.132699
     39      -0.015399  -0.065188  -0.071101  -0.025473  -0.013795  -0.115113
     40      -0.070970   0.260475   0.063954   0.077779  -0.327291  -0.034928
     41      -0.000766  -0.419202  -0.093946  -0.161298   0.194715  -0.296096
     42      -0.016657   0.007803   0.009482  -0.009737  -0.005990  -0.003444
     43       0.008445  -0.022505  -0.028897   0.024100   0.060055  -0.005296
     44       0.044357   0.044281  -0.025825  -0.006395  -0.020643   0.039815
     45      -0.012442   0.009176   0.115932   0.000660   0.178611   0.090978
     46       0.005248  -0.027506  -0.014354  -0.131321   0.050783   0.057760
     47       0.051115   0.061283  -0.022997   0.406781   0.081400  -0.090039
     48      -0.016717   0.009916  -0.036850  -0.024856  -0.064229  -0.046447
     49       0.003382  -0.026747  -0.115143   0.201566  -0.119675  -0.056607
     50       0.047514   0.061964  -0.097249  -0.419904   0.008498  -0.096554
     51      -0.131828  -0.339472   0.053130   0.347851  -0.038409   0.047346
     52      -0.667114   0.334256   0.146097  -0.512984   0.146657   0.002956
     53      -0.677487  -0.362740   0.095240   0.309773  -0.007734   0.063614
                 18         19         20         21         22         23    
      0      -0.335965  -0.092069  -0.008345   0.091132   0.109545   0.012688
      1      -0.084165  -0.221592   0.009865  -0.092557  -0.101688  -0.053358
      2       0.011448  -0.108712  -0.084782  -0.018510  -0.015071   0.122132
      3      -0.120964  -0.113855  -0.064154  -0.187593   0.013799  -0.001856
      4      -0.003679  -0.005645   0.017967   0.062280  -0.193512  -0.036672
      5       0.045175   0.028973   0.021351   0.020065   0.013289   0.155562
      6       0.071780  -0.076190  -0.011251  -0.074115   0.022869  -0.006703
      7       0.070946   0.051651  -0.007684   0.058789  -0.161641   0.061814
      8       0.125797   0.058294   0.061306  -0.040045  -0.065552  -0.010796
      9       0.172824   0.172647  -0.042195  -0.217122  -0.149164   0.009822
     10      -0.135061   0.244999   0.068400   0.075574  -0.107314   0.054335
     11      -0.058877   0.155364  -0.007416   0.091397  -0.037119   0.002632
     12      -0.038327   0.217082   0.003385  -0.033935  -0.120364   0.042560
     13      -0.203160   0.061688   0.040131   0.001919   0.148287  -0.022367
     14      -0.152560   0.011098  -0.054681   0.085581   0.076406  -0.056238
     15      -0.149924   0.179496  -0.016368  -0.024134  -0.056987  -0.001586
     16      -0.224964   0.041280   0.046309  -0.022662   0.142613  -0.003879
     17      -0.095011   0.024727  -0.076888   0.081650   0.036351  -0.076333
     18      -0.130691   0.020475   0.021354   0.035842   0.023186  -0.034326
     19      -0.088822  -0.267510  -0.082439  -0.061271  -0.085134   0.065403
     20      -0.064476  -0.198920   0.054568  -0.110211  -0.100861  -0.041914
     21      -0.150001   0.108731  -0.002852  -0.208487   0.163597  -0.061268
     22      -0.119866   0.316843  -0.139827   0.168836  -0.060047  -0.005717
     23      -0.128506   0.028860   0.319297  -0.068039  -0.058018   0.083123
     24      -0.217977  -0.075933  -0.046038  -0.115363  -0.067531  -0.126926
     25      -0.080675   0.099162   0.028334   0.057352   0.161366   0.427797
     26      -0.164788   0.030391   0.059382   0.217612  -0.487380  -0.583956
     27      -0.042327   0.062172   0.002977  -0.001800   0.071578  -0.029448
     28      -0.221383  -0.339402   0.002664  -0.054080  -0.096994   0.089758
     29      -0.157255  -0.219872  -0.031456   0.017764  -0.194108  -0.081455
     30      -0.171745  -0.022007   0.050200   0.023525   0.150162  -0.067930
     31       0.144649  -0.152038   0.112941  -0.313999  -0.265356  -0.147255
     32      -0.010632  -0.176056   0.091396  -0.162660  -0.083198  -0.100794
     33      -0.147503   0.000802  -0.002254   0.046703   0.196408   0.039836
     34       0.082060  -0.127643  -0.272729  -0.020821   0.057857   0.282578
     35       0.146706  -0.012099  -0.212876  -0.033248  -0.050327   0.191431
     36      -0.217688  -0.040774   0.052989  -0.089610   0.004024   0.015651
     37      -0.156344   0.319764  -0.281034   0.270400  -0.014075  -0.073148
     38      -0.029052   0.090505   0.473974  -0.394281   0.205785   0.031652
     39       0.031628   0.159244   0.075406  -0.186775  -0.083269   0.088348
     40       0.049615   0.106000  -0.352926   0.116882  -0.050163  -0.267332
     41      -0.182817  -0.179211   0.481281  -0.409809   0.349947   0.280932
     42       0.130146  -0.079419   0.030943   0.093678  -0.094063   0.021872
     43       0.163460   0.059022  -0.039297  -0.084477   0.080687   0.041549
     44       0.072454   0.019553   0.029091  -0.057238  -0.046158  -0.165306
     45       0.201655  -0.021353  -0.004106   0.030473   0.244157  -0.064441
     46       0.183902   0.072026  -0.026440  -0.104774   0.133294  -0.063670
     47       0.033385   0.036126  -0.021514  -0.036575   0.062224   0.038604
     48       0.139664  -0.152645   0.058777   0.227538  -0.070342   0.039631
     49       0.193630  -0.065524   0.045306   0.150258   0.081351  -0.041377
     50       0.076753  -0.004040  -0.012064   0.055338   0.068435   0.047128
     51       0.020107   0.007996  -0.027164   0.019451  -0.014539  -0.013857
     52       0.008779  -0.012509   0.046421  -0.035624   0.009805   0.005446
     53       0.017580   0.004161  -0.021097   0.020368  -0.012235  -0.017111
                 24         25         26         27         28         29    
      0       0.019089   0.038392  -0.026391  -0.103243   0.082789  -0.040566
      1      -0.090377  -0.021610   0.007771   0.011129  -0.024301   0.071964
      2       0.143026  -0.002648   0.016236   0.051796  -0.002964  -0.133393
      3       0.035585  -0.138931   0.002970   0.036478  -0.045975   0.021660
      4       0.001593  -0.010625   0.068755   0.015594   0.071222  -0.056852
      5      -0.010778   0.022381   0.047900  -0.066583  -0.097786   0.089612
      6      -0.011768   0.091210   0.094137  -0.065545   0.082265  -0.001907
      7       0.025459  -0.013300   0.083965  -0.069933  -0.089800  -0.019684
      8      -0.034333  -0.018030   0.048124   0.093397   0.142623   0.049935
      9      -0.015827  -0.011450   0.021290   0.076906  -0.074235  -0.011727
     10       0.077256  -0.003853  -0.112730   0.077210   0.014545   0.090001
     11      -0.132766  -0.036465  -0.079503  -0.033808  -0.070404  -0.160929
     12      -0.026373   0.166075  -0.254114  -0.064405   0.039775  -0.007165
     13       0.004171   0.013279   0.074280   0.017425   0.056544  -0.071394
     14      -0.000099  -0.014948   0.074308  -0.060155  -0.075264   0.115163
     15       0.034844  -0.167555  -0.028331   0.027078   0.001889   0.034892
     16       0.001077  -0.062504   0.083785  -0.049364  -0.065116  -0.016647
     17       0.024237   0.005899   0.055827   0.055338   0.104072   0.045269
     18      -0.043113   0.096195   0.186610   0.166559  -0.119217  -0.008402
     19       0.006017   0.100298  -0.178046   0.052189  -0.015470  -0.014139
     20      -0.089763   0.019452  -0.138700  -0.021505  -0.010567   0.052138
     21       0.065620  -0.007662   0.063483   0.163287  -0.061363   0.077408
     22      -0.240254  -0.059210  -0.120248  -0.047047  -0.157769  -0.304298
     23       0.378093   0.045021  -0.050075   0.183761   0.193007   0.467355
     24       0.003033  -0.188144  -0.040576   0.039800   0.040881  -0.058094
     25       0.148811  -0.066239  -0.018411  -0.155321  -0.146719   0.243643
     26      -0.223379  -0.062458  -0.008752   0.073204   0.329642  -0.376508
     27       0.014136  -0.062908  -0.045341  -0.068044   0.058203   0.016415
     28      -0.080995   0.273744   0.115172   0.245566  -0.273048  -0.049922
     29      -0.113879   0.239487   0.120597   0.354921  -0.127860   0.020066
     30      -0.070405   0.129951  -0.345368  -0.279029   0.180705   0.106496
     31       0.000599  -0.581337  -0.167772  -0.180214   0.195366   0.041229
     32      -0.085069  -0.128390  -0.391410  -0.288255   0.199605   0.116047
     33      -0.001518   0.126047  -0.284128  -0.287064   0.116445   0.043950
     34       0.279614  -0.176670  -0.325171  -0.226238   0.179420  -0.168375
     35       0.249760  -0.321629   0.043618   0.034271   0.055317  -0.207750
     36      -0.014717  -0.273592   0.027672  -0.066337  -0.054649  -0.008360
     37       0.240540   0.120308   0.025879   0.217929   0.242668   0.154054
     38      -0.390894  -0.028869  -0.008398  -0.284212  -0.430663  -0.219745
     39       0.026617   0.233997  -0.149483   0.017796   0.084744  -0.092928
     40      -0.230047   0.126996   0.195979  -0.161708  -0.240659   0.227395
     41       0.341003   0.090268   0.241897   0.305882   0.308884  -0.378070
     42       0.015226   0.006735   0.186622  -0.091164   0.036468   0.002968
     43      -0.103820   0.012574   0.137550  -0.040697   0.094430   0.014738
     44       0.270186   0.064252   0.008991  -0.103737  -0.106878  -0.030811
     45      -0.007253  -0.018794  -0.164506   0.077654  -0.032459  -0.000367
     46       0.027973   0.051530   0.046252  -0.056895   0.029765  -0.004667
     47      -0.088358   0.003351   0.036593   0.000494   0.052199   0.012399
     48      -0.002250  -0.039903   0.053138  -0.022595   0.001830   0.002663
     49       0.036395  -0.040747  -0.168130   0.071953  -0.061088  -0.005599
     50      -0.083154  -0.030793  -0.058638   0.053251   0.015366   0.007926
     51       0.006612  -0.000618  -0.006250  -0.007220   0.004180  -0.005121
     52       0.002546  -0.003540  -0.013366  -0.012860   0.009817   0.014013
     53       0.009399  -0.000462  -0.010782  -0.011309   0.007453  -0.004494
                 30         31         32         33         34         35    
      0      -0.079364  -0.003505  -0.020384   0.024286   0.015769  -0.032827
      1      -0.052826  -0.117489  -0.022784  -0.050225   0.007190   0.001048
      2      -0.023521   0.153030  -0.007067  -0.015089  -0.027704   0.005078
      3      -0.006171  -0.026032  -0.074384  -0.115091  -0.136564   0.079349
      4       0.003922   0.078844  -0.080813   0.018987   0.044760  -0.032746
      5       0.004615  -0.120165  -0.034586   0.056618   0.030407  -0.037300
      6      -0.046849   0.006002   0.010193   0.036151   0.059218  -0.003041
      7       0.041017  -0.056690  -0.061828   0.031093   0.023161   0.003049
      8       0.002436   0.116683  -0.035253  -0.000176   0.008322   0.003283
      9       0.070501   0.009305  -0.043011   0.024542   0.033060  -0.010234
     10      -0.055506   0.049906   0.052483  -0.111048  -0.079756   0.006909
     11       0.006905  -0.115331   0.040337  -0.069234  -0.057169   0.008222
     12      -0.105704  -0.006363  -0.010146   0.018896   0.006856   0.014949
     13       0.029941  -0.093527  -0.013707   0.005508   0.005174  -0.001750
     14      -0.037188   0.146792  -0.003627   0.002230  -0.004767  -0.008146
     15       0.117016   0.010815   0.081940   0.105141   0.107448   0.005545
     16       0.014088   0.116878   0.017853   0.072634   0.033752   0.032619
     17       0.040305  -0.159745  -0.009739   0.000526   0.035758   0.023992
     18      -0.055238  -0.016609   0.028495   0.000235   0.017183   0.014882
     19       0.073555   0.047830   0.083015   0.089909  -0.042025  -0.010865
     20       0.036185  -0.035296   0.036115  -0.039799   0.080608   0.004406
     21       0.060379   0.061499   0.172178  -0.297025  -0.111985  -0.806203
     22       0.029409  -0.159519   0.082561  -0.154340  -0.104219  -0.118497
     23      -0.127815   0.219681   0.023350  -0.060904  -0.042097   0.058089
     24       0.025238   0.057630  -0.249028  -0.115899  -0.231484   0.027962
     25       0.073903  -0.174423  -0.414527   0.055474  -0.177547  -0.139055
     26       0.049436   0.326168  -0.219391   0.019820  -0.048659  -0.085220
     27       0.010544  -0.017450  -0.004172   0.063124  -0.099115  -0.005099
     28      -0.017838   0.068452   0.050071  -0.445523   0.568673   0.080808
     29      -0.023216  -0.050475   0.159754   0.561349  -0.507451  -0.076066
     30       0.414611   0.096375  -0.083691   0.086329  -0.282570  -0.016241
     31      -0.535161  -0.337215   0.106876   0.234848   0.066635  -0.062590
     32       0.140978  -0.057585  -0.016640   0.084426  -0.119215  -0.030564
     33       0.375969   0.164284  -0.134014  -0.353282   0.192923   0.053692
     34      -0.032545   0.168541  -0.002376  -0.133976   0.208813   0.005776
     35      -0.462752  -0.021207   0.096560   0.115725   0.140643  -0.027529
     36       0.082887   0.095778   0.093375   0.040559   0.148647  -0.273301
     37       0.107294  -0.253300  -0.008788   0.110203   0.022517   0.332423
     38      -0.074751   0.436931  -0.000515   0.138941  -0.082230   0.252366
     39      -0.089161  -0.085519  -0.308248   0.075187   0.022398  -0.048834
     40      -0.149621   0.206663  -0.585611   0.099539   0.036803  -0.125009
     41       0.136722  -0.331923  -0.324201   0.070201   0.007352  -0.066583
     42       0.021694  -0.004558   0.065314  -0.037931  -0.046959   0.007041
     43       0.005898   0.019716   0.048574  -0.026439  -0.035664   0.009375
     44       0.012752  -0.046436   0.025516  -0.008395  -0.010628   0.000491
     45      -0.015161   0.000813  -0.021168   0.013785   0.018090  -0.002746
     46      -0.009196  -0.003729   0.057660  -0.022242  -0.024069   0.000458
     47      -0.005274   0.005506   0.020833  -0.009939  -0.008982   0.000930
     48       0.020229  -0.001117   0.016895  -0.019732  -0.031488   0.012354
     49      -0.003591  -0.001051  -0.032004   0.017499   0.021730  -0.005783
     50      -0.005187   0.012427  -0.015002   0.007386   0.010206  -0.002573
     51      -0.001574   0.009979  -0.000897   0.000492  -0.000592  -0.000014
     52      -0.000188  -0.024156  -0.003184  -0.001039   0.003316   0.001064
     53      -0.004085   0.006266  -0.001356   0.001222  -0.000040   0.000304
                 36         37         38         39         40         41    
      0      -0.003749   0.023726   0.029683   0.012357   0.134297  -0.013328
      1       0.029031   0.081463  -0.026937  -0.013843  -0.172452   0.337155
      2       0.024345   0.051241  -0.022083  -0.007569  -0.132714   0.217030
      3       0.009841   0.056091   0.028465   0.022798  -0.031791  -0.179930
      4      -0.014608   0.107578   0.006956   0.026615  -0.045930  -0.096676
      5      -0.009878   0.060479  -0.000676   0.007856  -0.025332  -0.030734
[...]

                         BASIS SET STATISTICS AND STARTUP INFO

 # of primitive gaussian shells          ...  248
 # of primitive gaussian functions       ...  524
 # of contracted shells                  ...  142
 # of contracted basis functions         ...  358
 Highest angular momentum                ...    3
 Maximum contraction depth               ...    6
 Integral package used                   ... LIBINT
 Integral threshhold            Thresh   ...  2.500e-11
 Primitive cut-off              TCut     ...  2.500e-12
 Storage cut-off                TCutStore... -1.000e+00
 Buffer length                           ... 1048576 integrals/buffer
 Generate file with integrals 4 distinct ...false


----------------------------- INTEGRAL EVALUATION ------------------------------


 * One electron integrals 
 Pre-screening matrix                    ... done
 Shell pair data                         ... done (   0.022 sec)
 Beginning two electron integral evaluation:
 Starting repulsion integrals
  <ss|ss>  ...      1963982 b.    280039 skpd ( 12.5%)     1.417 s. (  0.001 ms/b)
  <ss|sp>  ...      4369827 b.    571467 skpd ( 11.6%)     4.608 s. (  0.001 ms/b)
  <ss|sd>  ...      2257896 b.    343008 skpd ( 13.2%)     2.793 s. (  0.001 ms/b)
  <ss|sf>  ...      1098122 b.    157852 skpd ( 12.6%)     2.540 s. (  0.002 ms/b)
  <ss|pp>  ...      1250880 b.    130056 skpd (  9.4%)     2.557 s. (  0.002 ms/b)
  <ss|pd>  ...      1277146 b.    148268 skpd ( 10.4%)     2.566 s. (  0.002 ms/b)
  <ss|pf>  ...       626252 b.     81160 skpd ( 11.5%)     2.084 s. (  0.003 ms/b)
  <ss|dd>  ...       361271 b.     36913 skpd (  9.3%)     1.073 s. (  0.003 ms/b)
  <ss|df>  ...       332498 b.     44506 skpd ( 11.8%)     1.525 s. (  0.005 ms/b)
  <ss|ff>  ...        91122 b.     10542 skpd ( 10.4%)     0.677 s. (  0.007 ms/b)
  <sp|sp>  ...      2427057 b.    295554 skpd ( 10.9%)     3.227 s. (  0.001 ms/b)
  <sp|sd>  ...      2513627 b.    351297 skpd ( 12.3%)     4.239 s. (  0.002 ms/b)
  <sp|sf>  ...      1223314 b.    160155 skpd ( 11.6%)     2.645 s. (  0.002 ms/b)
  <sp|pp>  ...      1385756 b.    135360 skpd (  8.9%)     3.364 s. (  0.002 ms/b)
  <sp|pd>  ...      1414544 b.    155565 skpd (  9.9%)     5.247 s. (  0.004 ms/b)
  <sp|pf>  ...       695190 b.     84032 skpd ( 10.8%)     3.579 s. (  0.005 ms/b)
  <sp|dd>  ...       400794 b.     37810 skpd (  8.6%)     2.123 s. (  0.005 ms/b)
  <sp|df>  ...       369709 b.     45565 skpd ( 11.0%)     3.981 s. (  0.011 ms/b)
  <sp|ff>  ...       101337 b.     10647 skpd (  9.5%)     1.475 s. (  0.015 ms/b)
  <sd|sd>  ...       649697 b.    104909 skpd ( 13.9%)     1.897 s. (  0.003 ms/b)
  <sd|sf>  ...       631811 b.     96393 skpd ( 13.2%)     2.911 s. (  0.005 ms/b)
  <sd|pp>  ...       720312 b.     80344 skpd ( 10.0%)     2.913 s. (  0.004 ms/b)
  <sd|pd>  ...       734840 b.     91604 skpd ( 11.1%)     4.297 s. (  0.006 ms/b)
  <sd|pf>  ...       360608 b.     49544 skpd ( 12.1%)     3.224 s. (  0.009 ms/b)
  <sd|dd>  ...       208311 b.     22553 skpd (  9.8%)     2.140 s. (  0.010 ms/b)
  <sd|df>  ...       191365 b.     27219 skpd ( 12.5%)     2.904 s. (  0.015 ms/b)
  <sd|ff>  ...        52571 b.      6373 skpd ( 10.8%)     1.286 s. (  0.024 ms/b)
  <sf|sf>  ...       153499 b.     22622 skpd ( 12.8%)     0.880 s. (  0.006 ms/b)
  <sf|pp>  ...       350754 b.     35882 skpd (  9.3%)     2.586 s. (  0.007 ms/b)
  <sf|pd>  ...       357700 b.     41389 skpd ( 10.4%)     3.599 s. (  0.010 ms/b)
  <sf|pf>  ...       175292 b.     22770 skpd ( 11.5%)     3.258 s. (  0.019 ms/b)
  <sf|dd>  ...       101345 b.     10139 skpd (  9.1%)     1.442 s. (  0.014 ms/b)
  <sf|df>  ...        93143 b.     12411 skpd ( 11.8%)     3.177 s. (  0.034 ms/b)
  <sf|ff>  ...        25452 b.      3012 skpd ( 10.6%)     1.616 s. (  0.063 ms/b)
  <pp|pp>  ...       197483 b.     15395 skpd (  7.2%)     1.712 s. (  0.009 ms/b)
  <pp|pd>  ...       403408 b.     35388 skpd (  8.1%)     4.202 s. (  0.010 ms/b)
  <pp|pf>  ...       198417 b.     19351 skpd (  8.9%)     3.070 s. (  0.015 ms/b)
  <pp|dd>  ...       114303 b.      8273 skpd (  6.7%)     1.622 s. (  0.014 ms/b)
  <pp|df>  ...       105811 b.     10245 skpd (  8.8%)     2.823 s. (  0.027 ms/b)
  <pp|ff>  ...        28933 b.      2363 skpd (  7.6%)     1.337 s. (  0.046 ms/b)
  <pd|pd>  ...       206126 b.     20675 skpd (  9.1%)     3.485 s. (  0.017 ms/b)
  <pd|pf>  ...       202523 b.     22259 skpd (  9.9%)     5.275 s. (  0.026 ms/b)
  <pd|dd>  ...       116977 b.      9547 skpd (  7.5%)     3.341 s. (  0.029 ms/b)
  <pd|df>  ...       107881 b.     11913 skpd (  9.9%)     5.312 s. (  0.049 ms/b)
  <pd|ff>  ...        29633 b.      2671 skpd (  8.3%)     2.786 s. (  0.094 ms/b)
  <pf|pf>  ...        49884 b.      6061 skpd ( 10.8%)     1.981 s. (  0.040 ms/b)
  <pf|dd>  ...        57449 b.      5343 skpd (  8.5%)     3.207 s. (  0.056 ms/b)
  <pf|df>  ...        52947 b.      6505 skpd ( 10.9%)     3.900 s. (  0.074 ms/b)
  <pf|ff>  ...        14538 b.      1494 skpd (  9.3%)     2.198 s. (  0.151 ms/b)
  <dd|dd>  ...        16654 b.      1112 skpd (  6.3%)     0.853 s. (  0.051 ms/b)
  <dd|df>  ...        30609 b.      2855 skpd (  8.5%)     2.841 s. (  0.093 ms/b)
  <dd|ff>  ...         8362 b.       662 skpd (  7.3%)     1.444 s. (  0.173 ms/b)
  <df|df>  ...        14188 b.      1743 skpd ( 10.9%)     1.749 s. (  0.123 ms/b)
  <df|ff>  ...         7766 b.       778 skpd (  9.1%)     1.909 s. (  0.246 ms/b)
  <ff|ff>  ...         1075 b.       101 skpd (  8.6%)     0.366 s. (  0.340 ms/b)


                                      INTEGRAL STATISTICS

Integral type statistics:
 Number of integrals retained            ... 1364811883 
 One   Center Integrals retained         ... 1364811883 (100.0%)
 Two   Center Integrals retained         ...          0 (  0.0%)
 Three Center Integrals retained         ...          0 (  0.0%)
 Four  Center Integrals retained         ...          0 (  0.0%)

Storage statistics:
 Number of char integrals                ...  160543656 ( 11.8%)
 Number of short int integrals           ...  284809572 ( 20.9%)
 Number of double/float integrals        ...  836999119 ( 61.3%)
 Amount of memory used                   ...      19311 MB

Prescreening statistics:
 Total number of shell quadruples        ...   51546781 
 Number of skipped shell quadruples      ...    5114906 (  9.9%)
 # of negligible batches done            ...          0 (  0.0%)

Timings:
 Total evaluation time               ...   146.652 sec (   2.444 min)
 One electron matrix time            ...     0.263 sec (   0.004 min) =  0.2%
 Schwartz matrix evaluation time     ...     0.721 sec (   0.012 min) =  0.5%
 Repulsion integral time             ...   145.266 sec (   2.421 min) = 99.1%


Maximum memory used throughout the entire GTOINT-calculation: 276.5 MB
-------------------------------------------------------------------------------
                                 ORCA SCF
-------------------------------------------------------------------------------

------------
SCF SETTINGS
------------
Hamiltonian:
 Density Functional     Method          .... DFT(GTOs)
 Exchange Functional    Exchange        .... B88
   X-Alpha parameter    XAlpha          ....  0.666667
   Becke's b parameter  XBeta           ....  0.004200
 Correlation Functional Correlation     .... LYP
 LDA part of GGA corr.  LDAOpt          .... VWN-3
 Gradients option       PostSCFGGA      .... off
 Hybrid DFT is turned on
   Fraction HF Exchange ScalHFX         ....  0.200000
   Scaling of DF-GGA-X  ScalDFX         ....  0.720000
   Scaling of DF-GGA-C  ScalDFC         ....  0.810000
   Scaling of DF-LDA-C  ScalLDAC        ....  1.000000
   Perturbative correction              ....  0.000000
   Density functional embedding theory  .... OFF
   NL short-range parameter             ....  4.800000


General Settings:
 Integral files         IntName         .... secondjob
 Hartree-Fock type      HFTyp           .... RHF
 Total Charge           Charge          ....    1
 Multiplicity           Mult            ....    1
 Number of Electrons    NEL             ....   72
 Basis Dimension        Dim             ....  358
 Nuclear Repulsion      ENuc            ....    497.2875101185 Eh

Convergence Acceleration:
 DIIS                   CNVDIIS         .... on
   Start iteration      DIISMaxIt       ....    12
   Startup error        DIISStart       ....  0.200000
   # of expansion vecs  DIISMaxEq       ....     5
   Bias factor          DIISBfac        ....   1.050
   Max. coefficient     DIISMaxC        ....  10.000
 Trust-Rad. Augm. Hess. CNVTRAH         .... off
 SOSCF                  CNVSOSCF        .... on
   Start iteration      SOSCFMaxIt      ....   150
   Startup grad/error   SOSCFStart      ....  0.003300
 Level Shifting         CNVShift        .... on
   Level shift para.    LevelShift      ....    0.2500
   Turn off err/grad.   ShiftErr        ....    0.0010
 Zerner damping         CNVZerner       .... off
 Static damping         CNVDamp         .... on
   Fraction old density DampFac         ....    0.7000
   Max. Damping (<1)    DampMax         ....    0.9800
   Min. Damping (>=0)   DampMin         ....    0.0000
   Turn off err/grad.   DampErr         ....    0.1000
 Fernandez-Rico         CNVRico         .... off

SCF Procedure:
 Maximum # iterations   MaxIter         ....   125
 SCF integral mode      SCFMode         .... Conventional
 Integral Threshold     Thresh          ....  2.500e-11 Eh
 Primitive CutOff       TCut            ....  2.500e-12 Eh
 Integral Buffer length BufferLength    .... 1048576
 Integral index format  IndFormat       ....     1
 Integral value format  ValFormat       ....     0
 Integral Storage       Thresh          ....  2.500e-11 Eh

Convergence Tolerance:
 Convergence Check Mode ConvCheckMode   .... Total+1el-Energy
 Convergence forced     ConvForced      .... 0
 Energy Change          TolE            ....  1.000e-08 Eh
 1-El. energy change                    ....  1.000e-05 Eh
 Orbital Gradient       TolG            ....  1.000e-05
 Orbital Rotation angle TolX            ....  1.000e-05
 DIIS Error             TolErr          ....  5.000e-07


Diagonalization of the overlap matrix:
Smallest eigenvalue                        ... 8.598e-06
Time for diagonalization                   ...    0.030 sec
Threshold for overlap eigenvalues          ... 1.000e-08
Number of eigenvalues below threshold      ... 0
Time for construction of square roots      ...    0.017 sec
Total time needed                          ...    0.047 sec

---------------------
INITIAL GUESS: MOREAD
---------------------
Guess MOs are being read from file: firstjob.gbw
Input Geometry matches current geometry (good)
Atom 0: N(Shells)= 11 and 2 - projection required
Input basis set needs projection
NBasis(read)= 48
NBasis(calc)= 358
Basis set overlap was calculated
Using GuessMode=FMatrix for the initial guess
C*T matrix was formed
Effective Fockian was calculated
Effective Fockian was diagonalized
Initial density was built
                      ------------------
                      INITIAL GUESS DONE (   0.1 sec)
                      ------------------
-------------------
DFT GRID GENERATION
-------------------

General Integration Accuracy     IntAcc      ... 4.388
Radial Grid Type                 RadialGrid  ... OptM3 with GC (2021)
Angular Grid (max. ang.)         AngularGrid ... 4 (Lebedev-302)
Angular grid pruning method      GridPruning ... 4 (adaptive)
Weight generation scheme         WeightScheme... Becke
Basis function cutoff            BFCut       ... 1.0000e-11
Integration weight cutoff        WCut        ... 1.0000e-14
Angular grids for H and He will be reduced by one unit
Partially contracted basis set               ... off
Rotationally invariant grid construction     ... off

Total number of grid points                  ...    86180
Total number of batches                      ...     1357
Average number of points per batch           ...       63
Average number of grid points per atom       ...     4788
Time for grid setup =    3.394 sec


 WARNING: InCore treatment NOT used:
   Maximum memory in MB that was devoted       : 1024 MB
   Amount of memory that would have been needed: 19311 MB

--------------
SCF ITERATIONS
--------------
ITER       Energy         Delta-E        Max-DP      RMS-DP      [F,P]     Damp
  0   -188.1091912839   0.00000000000012115.41765794 131.23738996 14.2932325 0.7000
  1   -284.2483319029 -96.1391406189418481.64468200 91.86924545  9.9897753 0.7000
  2   -345.1790468894 -60.9307149865635937.42890917 64.31012527  6.8578800 0.7000
  3   -385.6753670114 -40.4963201219344156.30444399 45.01780306  4.7228718 0.7000
  4   -413.2779790229 -27.6026120115692909.46538453 31.51271652  3.2449388 0.7000
  5   -432.3524592940 -19.0744802710532036.64148550 22.05892009  2.2634202 0.7000
  6   -445.6010976161 -13.2486383221421425.65507749 15.44124445  1.5899805 0.7000
  7   -454.8877477235  -9.286650107365997.96171355 10.80895446  1.1169781 0.7000
  8   -461.2669777830  -6.379230059535698.56862787  7.56630953  0.7836936 0.7000
  9   -465.8510409072  -4.584063124165489.00177500  5.29641675  0.5503142 0.7000
 10   -469.0065865599  -3.155545652663342.30506907  3.70747075  0.3868992 0.7000
 11   -471.1960157600  -2.189429200178239.61376283  2.59520084  0.2722302 0.7000
                               ***Turning on DIIS***
 12   -472.7203816847  -1.524365924677167.72814851  1.81661614  0.1918749 0.7000
 13   -473.7837332466  -1.063351561851117.40794006  1.27160903  0.1350956 0.7000
 14   -474.5898572839  -0.806124037370273.95599357  2.96721623  0.0941846 0.0000
 15   -475.7158848450  -1.126027561054 0.00844971  0.00005880  0.4067971 0.7000
 16   -475.7230707620  -0.007185916978 0.01006015  0.00006919  0.4018535 0.7000
 17   -475.7313880661  -0.008317304132 0.03491994  0.00020156  0.3958690 0.7000
 18   -475.7540317652  -0.022643699072 0.04304032  0.00026167  0.3712759 0.7000
 19   -475.7807741969  -0.026742431710 0.14250824  0.00095806  0.3459646 0.7000
 20   -476.1998898786  -0.419115681731 0.09975577  0.00062257  0.1308733 0.7000
 21   -476.3341243704  -0.134234491763 0.23276346  0.00139357  0.0397898 0.0000
 22   -476.2091981861   0.124926184247 0.00217781  0.00004435  0.0665920 0.0000
 23   -476.2090258203   0.000172365855 0.00184527  0.00003332  0.0668217 0.0000
 24   -476.2075290429   0.001496777348 0.00137901  0.00002400  0.0678287 0.0000
 25   -476.2063885411   0.001140501789 0.00038272  0.00000597  0.0684495 0.0000
 26   -476.2062956588   0.000092882370 0.53047874  0.00334857  0.0684868 0.0000
 27   -475.5623828822   0.643912776573 0.04513779  0.00026975  0.3695000 0.7000
 28   -475.6166136732  -0.054230791037 0.05407629  0.00029858  0.3382078 0.7000
 29   -475.6688865732  -0.052272899983 0.04935754  0.00026235  0.3056528 0.7000
 30   -475.7105497869  -0.041663213694 0.04250881  0.00021966  0.2777692 0.7000
 31   -475.7427256427  -0.032175855833 0.13500416  0.00103883  0.2548997 0.7000
 32   -476.1857794115  -0.443053768708 0.31500972  0.00213544  0.0741830 0.0000
 33   -476.1808033713   0.004976040116 0.02291802  0.00042205  0.0837689 0.0000
 34   -476.2078608699  -0.027057498543 0.01807672  0.00030294  0.0635228 0.0000
 35   -476.2248975001  -0.017036630184 0.01093192  0.00023474  0.0526486 0.0000
 36   -476.2343147539  -0.009417253834 0.01099206  0.00023522  0.0441220 0.0000
 37   -476.2419669726  -0.007652218698 0.03605042  0.00079495  0.0357677 0.0000
 38   -476.2559610922  -0.013994119583 0.01126780  0.00026463  0.0080528 0.0000
 39   -476.2568070978  -0.000846005673 0.00537266  0.00011843  0.0084089 0.0000
                      *** Initiating the SOSCF procedure ***
                           *** Shutting down DIIS ***
                      *** Re-Reading the Fockian *** 
                      *** Removing any level shift *** 
ITER      Energy       Delta-E        Grad      Rot      Max-DP    RMS-DP
 40   -476.25705452  -0.0002474203  0.002085  0.002085  0.279426  0.001860
 41   -476.30143925  -0.0443847346  0.141642  0.576183  0.134843  0.000935
 42   -476.22155664   0.0798826116  0.083267  2.004003  0.272042  0.004457
 43   -475.68976588   0.5317907605  0.356462  2.672372  0.254147  0.003208
 44   -475.72694145  -0.0371755684  0.111721  0.731784  0.191390  0.002548
 45   -475.68184050   0.0451009444  0.144101  0.693873  0.168824  0.002372
 46   -475.47318491   0.2086555987  0.089009  0.641526  2.465152  0.019367
 47   -473.70342774   1.7697571611  0.183952  0.487377  0.241451  0.001827
 48   -473.77009536  -0.0666676165  0.165504  1.611040  0.330301  0.004959
 49   -473.23475275   0.5353426083  0.224904  1.747744  3.467804  0.019542
 50   -472.95919224   0.2755605116  0.220124  1.499445  5.888531  0.027232
 51   -472.57416111   0.3850311310  0.382543  1.241765  0.539771  0.005132
 52   -472.58376307  -0.0096019643  0.168862  2.058319  0.619023  0.006225
 53   -472.15375675   0.4300063208  0.266579  0.709748  1.249116  0.006877
 54   -472.24062793  -0.0868711717  0.191639  1.560368  1.187781  0.007628
 55   -472.07189821   0.1687297144  0.288593  1.511899  2.842343  0.013931
 56   -472.35178746  -0.2798892481  0.163161  0.821902  2.200976  0.010500
 57   -472.76099945  -0.4092119866  0.170953  0.982912  1.819699  0.009113
 58   -473.01429972  -0.2533002690  0.173680  0.915194  1.286406  0.007098
 59   -473.22557780  -0.2112780853  0.110142  0.792101  1.118232  0.007394
 60   -473.43917329  -0.2135954918  0.102901  0.325079  0.859327  0.006191
 61   -473.64297959  -0.2038062973  0.098896  0.406936  2.282539  0.020307
 62   -474.02374586  -0.3807662661  0.111715  0.221366  0.181499  0.001971
 63   -474.08487587  -0.0611300160  0.107740  0.443458  0.173140  0.002843
 64   -474.11466557  -0.0297897013  0.107375  1.118018  0.373248  0.004877
 65   -474.09735361   0.0173119617  0.094100  0.138253  0.582531  0.010900

          ************************************************************
          *                     SERIOUS PROBLEM IN SOSCF             *
          *                     ------------------------             *
          *                  LARGE STEP WAS ABOUT TO BE TAKEN        *
          *                         ABORTING THE RUN                 *
          ************************************************************
              ***Rediagonalizing the Fockian in SOSCF/NRSCF***

               *****************************************************
               *                      ERROR                        *
               *        SCF NOT CONVERGED AFTER  66 CYCLES         *
               *****************************************************


---------------
SCF CONVERGENCE
---------------

  Last Energy change         ...    1.7312e-02  Tolerance :   1.0000e-08
  Last MAX-Density change    ...    0.0000e+00  Tolerance :   1.0000e-07
  Last RMS-Density change    ...    0.0000e+00  Tolerance :   5.0000e-09
  Last Orbital Gradient      ...    8.9036e-02  Tolerance :   1.0000e-05
  Last Orbital Rotation      ...    0.0000e+00  Tolerance :   1.0000e-05

     --------------------------------------------------------------------
                                      ERROR
     This wavefunction IS NOT CONVERGED! 
     And it is 'too far' from meeting the convergence thresholds.
     Aborting ...
     Please restart calculation (with larger maxiter?)
     --------------------------------------------------------------------



ORCA finished by error termination in SCF
Calling Command: orca_scf secondjob.gbw b 
[file orca_tools/qcmsg.cpp, line 465]: 
  .... aborting the run

