
                                 *****************
                                 * O   R   C   A *
                                 *****************

                                            #,                                       
                                            ###                                      
                                            ####                                     
                                            #####                                    
                                            ######                                   
                                           ########,                                 
                                     ,,################,,,,,                         
                               ,,#################################,,                 
                          ,,##########################################,,             
                       ,#########################################, ''#####,          
                    ,#############################################,,   '####,        
                  ,##################################################,,,,####,       
                ,###########''''           ''''###############################       
              ,#####''   ,,,,##########,,,,          '''####'''          '####       
            ,##' ,,,,###########################,,,                        '##       
           ' ,,###''''                  '''############,,,                           
         ,,##''                                '''############,,,,        ,,,,,,###''
      ,#''                                            '''#######################'''  
     '                                                          ''''####''''         
             ,#######,   #######,   ,#######,      ##                                
            ,#'     '#,  ##    ##  ,#'     '#,    #''#        ######   ,####,        
            ##       ##  ##   ,#'  ##            #'  '#       #        #'  '#        
            ##       ##  #######   ##           ,######,      #####,   #    #        
            '#,     ,#'  ##    ##  '#,     ,#' ,#      #,         ##   #,  ,#        
             '#######'   ##     ##  '#######'  #'      '#     #####' # '####'        



                  #######################################################
                  #                        -***-                        #
                  #          Department of theory and spectroscopy      #
                  #    Directorship and core code : Frank Neese         #
                  #        Max Planck Institute fuer Kohlenforschung    #
                  #                Kaiser Wilhelm Platz 1               #
                  #                 D-45470 Muelheim/Ruhr               #
                  #                      Germany                        #
                  #                                                     #
                  #                  All rights reserved                #
                  #                        -***-                        #
                  #######################################################



                         Program Version 5.0.4 -  RELEASE  -

 With contributions from (in alphabetic order):
   Daniel Aravena         : Magnetic Suceptibility
   Michael Atanasov       : Ab Initio Ligand Field Theory (pilot matlab implementation)
   Alexander A. Auer      : GIAO ZORA, VPT2 properties, NMR spectrum
   Ute Becker             : Parallelization
   Giovanni Bistoni       : ED, misc. LED, open-shell LED, HFLD
   Martin Brehm           : Molecular dynamics
   Dmytro Bykov           : SCF Hessian
   Vijay G. Chilkuri      : MRCI spin determinant printing, contributions to CSF-ICE
   Dipayan Datta          : RHF DLPNO-CCSD density
   Achintya Kumar Dutta   : EOM-CC, STEOM-CC
   Dmitry Ganyushin       : Spin-Orbit,Spin-Spin,Magnetic field MRCI
   Miquel Garcia          : C-PCM and meta-GGA Hessian, CC/C-PCM, Gaussian charge scheme
   Yang Guo               : DLPNO-NEVPT2, F12-NEVPT2, CIM, IAO-localization
   Andreas Hansen         : Spin unrestricted coupled pair/coupled cluster methods
   Benjamin Helmich-Paris : MC-RPA, TRAH-SCF, COSX integrals
   Lee Huntington         : MR-EOM, pCC
   Robert Izsak           : Overlap fitted RIJCOSX, COSX-SCS-MP3, EOM
   Marcus Kettner         : VPT2
   Christian Kollmar      : KDIIS, OOCD, Brueckner-CCSD(T), CCSD density, CASPT2, CASPT2-K
   Simone Kossmann        : Meta GGA functionals, TD-DFT gradient, OOMP2, MP2 Hessian
   Martin Krupicka        : Initial AUTO-CI
   Lucas Lang             : DCDCAS
   Marvin Lechner         : AUTO-CI (C++ implementation), FIC-MRCC
   Dagmar Lenk            : GEPOL surface, SMD
   Dimitrios Liakos       : Extrapolation schemes; Compound Job, initial MDCI parallelization
   Dimitrios Manganas     : Further ROCIS development; embedding schemes
   Dimitrios Pantazis     : SARC Basis sets
   Anastasios Papadopoulos: AUTO-CI, single reference methods and gradients
   Taras Petrenko         : DFT Hessian,TD-DFT gradient, ASA, ECA, R-Raman, ABS, FL, XAS/XES, NRVS
   Peter Pinski           : DLPNO-MP2, DLPNO-MP2 Gradient
   Christoph Reimann      : Effective Core Potentials
   Marius Retegan         : Local ZFS, SOC
   Christoph Riplinger    : Optimizer, TS searches, QM/MM, DLPNO-CCSD(T), (RO)-DLPNO pert. Triples
   Tobias Risthaus        : Range-separated hybrids, TD-DFT gradient, RPA, STAB
   Michael Roemelt        : Original ROCIS implementation
   Masaaki Saitow         : Open-shell DLPNO-CCSD energy and density
   Barbara Sandhoefer     : DKH picture change effects
   Avijit Sen             : IP-ROCIS
   Kantharuban Sivalingam : CASSCF convergence, NEVPT2, FIC-MRCI
   Bernardo de Souza      : ESD, SOC TD-DFT
   Georgi Stoychev        : AutoAux, RI-MP2 NMR, DLPNO-MP2 response
   Willem Van den Heuvel  : Paramagnetic NMR
   Boris Wezisla          : Elementary symmetry handling
   Frank Wennmohs         : Technical directorship


 We gratefully acknowledge several colleagues who have allowed us to
 interface, adapt or use parts of their codes:
   Stefan Grimme, W. Hujo, H. Kruse, P. Pracht,  : VdW corrections, initial TS optimization,
                  C. Bannwarth, S. Ehlert          DFT functionals, gCP, sTDA/sTD-DF
   Ed Valeev, F. Pavosevic, A. Kumar             : LibInt (2-el integral package), F12 methods
   Garnet Chan, S. Sharma, J. Yang, R. Olivares  : DMRG
   Ulf Ekstrom                                   : XCFun DFT Library
   Mihaly Kallay                                 : mrcc  (arbitrary order and MRCC methods)
   Jiri Pittner, Ondrej Demel                    : Mk-CCSD
   Frank Weinhold                                : gennbo (NPA and NBO analysis)
   Christopher J. Cramer and Donald G. Truhlar   : smd solvation model
   Lars Goerigk                                  : TD-DFT with DH, B97 family of functionals
   V. Asgeirsson, H. Jonsson                     : NEB implementation
   FAccTs GmbH                                   : IRC, NEB, NEB-TS, DLPNO-Multilevel, CI-OPT
                                                   MM, QMMM, 2- and 3-layer-ONIOM, Crystal-QMMM,
                                                   LR-CPCM, SF, NACMEs, symmetry and pop. for TD-DFT,
                                                   nearIR, NL-DFT gradient (VV10), updates on ESD,
                                                   ML-optimized integration grids
   S Lehtola, MJT Oliveira, MAL Marques          : LibXC Library
   Liviu Ungur et al                             : ANISO software


 Your calculation uses the libint2 library for the computation of 2-el integrals
 For citations please refer to: http://libint.valeyev.net

 Your ORCA version has been built with support for libXC version: 5.1.0
 For citations please refer to: https://tddft.org/programs/libxc/

 This ORCA versions uses:
   CBLAS   interface :  Fast vector & matrix operations
   LAPACKE interface :  Fast linear algebra routines
   Shared memory     :  Shared parallel matrices


================================================================================

----- Orbital basis set information -----
Your calculation utilizes the basis: def2-QZVPP
   F. Weigend and R. Ahlrichs, Phys. Chem. Chem. Phys. 7, 3297 (2005).

----- AuxJ basis set information -----
Your calculation utilizes the auxiliary basis: def2/J
   F. Weigend, Phys. Chem. Chem. Phys. 8, 1057 (2006).

================================================================================
                                        WARNINGS
                       Please study these warnings very carefully!
================================================================================


INFO   : the flag for use of the SHARK integral package has been found!


WARNING: TRAH does not support fractional occupations!
  ===> : Turning TRAH off
================================================================================
                                       INPUT FILE
================================================================================
NAME = FOD.inp
|  1> !B3LYP DEF2-QZVPP
|  2> 
|  3> %scf
|  4> smearTemp 5000
|  5> convergence tight
|  6> end
|  7> 
|  8> * xyz 0 1
|  9>   C   -6.35529566713189      0.98183690763207     -0.00001504036478
| 10>   C   -7.70369862552641      0.57957456761231     -0.00000173744009
| 11>   C   -8.02102163499719     -0.77812943500883      0.00001944975110
| 12>   C   -7.00414212151022     -1.73832946214561      0.00002743447097
| 13>   C   -5.66330053841805     -1.34054476427431      0.00001396353728
| 14>   C   -5.33361031358612      0.01419348174697     -0.00000730718435
| 15>   C   -6.02185993035994      2.37866436898736     -0.00003589559077
| 16>   H   -8.49093284139212      1.33596053577513     -0.00000808213751
| 17>   H   -9.06839558616840     -1.08907636566259      0.00002985217797
| 18>   H   -7.25784524787421     -2.80130133697912      0.00004422468217
| 19>   H   -4.86880131166015     -2.09058333047744      0.00002017846662
| 20>   H   -4.28975746602226      0.33378924079070     -0.00001788378122
| 21>   N   -5.75052871535300      3.50757559200336     -0.00004915658739
| 22> **                         ****END OF INPUT****
================================================================================

                       ****************************
                       * Single Point Calculation *
                       ****************************

---------------------------------
CARTESIAN COORDINATES (ANGSTROEM)
---------------------------------
  C     -6.355296    0.981837   -0.000015
  C     -7.703699    0.579575   -0.000002
  C     -8.021022   -0.778129    0.000019
  C     -7.004142   -1.738329    0.000027
  C     -5.663301   -1.340545    0.000014
  C     -5.333610    0.014193   -0.000007
  C     -6.021860    2.378664   -0.000036
  H     -8.490933    1.335961   -0.000008
  H     -9.068396   -1.089076    0.000030
  H     -7.257845   -2.801301    0.000044
  H     -4.868801   -2.090583    0.000020
  H     -4.289757    0.333789   -0.000018
  N     -5.750529    3.507576   -0.000049

----------------------------
CARTESIAN COORDINATES (A.U.)
----------------------------
  NO LB      ZA    FRAG     MASS         X           Y           Z
   0 C     6.0000    0    12.011  -12.009768    1.855403   -0.000028
   1 C     6.0000    0    12.011  -14.557881    1.095237   -0.000003
   2 C     6.0000    0    12.011  -15.157534   -1.470452    0.000037
   3 C     6.0000    0    12.011  -13.235910   -3.284967    0.000052
   4 C     6.0000    0    12.011  -10.702087   -2.533262    0.000026
   5 C     6.0000    0    12.011  -10.079063    0.026822   -0.000014
   6 C     6.0000    0    12.011  -11.379666    4.495024   -0.000068
   7 H     1.0000    0     1.008  -16.045538    2.524600   -0.000015
   8 H     1.0000    0     1.008  -17.136784   -2.058056    0.000056
   9 H     1.0000    0     1.008  -13.715340   -5.293692    0.000084
  10 H     1.0000    0     1.008   -9.200701   -3.950630    0.000038
  11 H     1.0000    0     1.008   -8.106467    0.630770   -0.000034
  12 N     7.0000    0    14.007  -10.866924    6.628357   -0.000093

--------------------------------
INTERNAL COORDINATES (ANGSTROEM)
--------------------------------
 C      0   0   0     0.000000000000     0.00000000     0.00000000
 C      1   0   0     1.407126692442     0.00000000     0.00000000
 C      2   1   0     1.394293387893   119.76620668     0.00000000
 C      3   2   1     1.398580722421   120.20282967     0.00000000
 C      4   3   2     1.398602451375   120.11818815     0.00000000
 C      5   4   3     1.394278078446   120.20160187     0.00000000
 C      1   2   3     1.436073239006   120.03694851   180.00004523
 H      2   1   3     1.091722237340   119.53370807   179.99999648
 H      3   2   1     1.092556720442   119.69027761   179.99999447
 H      4   3   2     1.092828661454   119.93403434   179.99998947
 H      5   4   3     1.092605542796   120.12491198   180.00000148
 H      6   5   4     1.091682287425   120.70065099   179.99999658
 N      7   1   2     1.161060367881   179.91122133   179.88519101

---------------------------
INTERNAL COORDINATES (A.U.)
---------------------------
 C      0   0   0     0.000000000000     0.00000000     0.00000000
 C      1   0   0     2.659084084445     0.00000000     0.00000000
 C      2   1   0     2.634832653455   119.76620668     0.00000000
 C      3   2   1     2.642934541557   120.20282967     0.00000000
 C      4   3   2     2.642975603329   120.11818815     0.00000000
 C      5   4   3     2.634803722793   120.20160187     0.00000000
 C      1   2   3     2.713785129974   120.03694851   180.00004523
 H      2   1   3     2.063056042885   119.53370807   179.99999648
 H      3   2   1     2.064632987411   119.69027761   179.99999447
 H      4   3   2     2.065146881448   119.93403434   179.99998947
 H      5   4   3     2.064725248290   120.12491198   180.00000148
 H      6   5   4     2.062980548486   120.70065099   179.99999658
 N      7   1   2     2.194086120245   179.91122133   179.88519101

---------------------
BASIS SET INFORMATION
---------------------
There are 3 groups of distinct atoms

 Group   1 Type C   : 15s8p3d2f1g contracted to 7s4p3d2f1g pattern {8211111/5111/111/11/1}
 Group   2 Type H   : 7s3p2d1f contracted to 4s3p2d1f pattern {4111/111/11/1}
 Group   3 Type N   : 15s8p3d2f1g contracted to 7s4p3d2f1g pattern {8211111/5111/111/11/1}

Atom   0C    basis set group =>   1
Atom   1C    basis set group =>   1
Atom   2C    basis set group =>   1
Atom   3C    basis set group =>   1
Atom   4C    basis set group =>   1
Atom   5C    basis set group =>   1
Atom   6C    basis set group =>   1
Atom   7H    basis set group =>   2
Atom   8H    basis set group =>   2
Atom   9H    basis set group =>   2
Atom  10H    basis set group =>   2
Atom  11H    basis set group =>   2
Atom  12N    basis set group =>   3
---------------------------------
AUXILIARY/J BASIS SET INFORMATION
---------------------------------
There are 3 groups of distinct atoms

 Group   1 Type C   : 12s5p4d2f1g contracted to 6s4p3d1f1g pattern {711111/2111/211/2/1}
 Group   2 Type H   : 5s2p1d contracted to 3s1p1d pattern {311/2/1}
 Group   3 Type N   : 12s5p4d2f1g contracted to 6s4p3d1f1g pattern {711111/2111/211/2/1}

Atom   0C    basis set group =>   1
Atom   1C    basis set group =>   1
Atom   2C    basis set group =>   1
Atom   3C    basis set group =>   1
Atom   4C    basis set group =>   1
Atom   5C    basis set group =>   1
Atom   6C    basis set group =>   1
Atom   7H    basis set group =>   2
Atom   8H    basis set group =>   2
Atom   9H    basis set group =>   2
Atom  10H    basis set group =>   2
Atom  11H    basis set group =>   2
Atom  12N    basis set group =>   3
------------------------------------------------------------------------------
                           ORCA GTO INTEGRAL CALCULATION
                           -- RI-GTO INTEGRALS CHOSEN --
------------------------------------------------------------------------------
------------------------------------------------------------------------------
                   ___                                                        
                  /   \      - P O W E R E D   B Y -                         
                 /     \                                                     
                 |  |  |   _    _      __       _____    __    __             
                 |  |  |  | |  | |    /  \     |  _  \  |  |  /  |          
                  \  \/   | |  | |   /    \    | | | |  |  | /  /          
                 / \  \   | |__| |  /  /\  \   | |_| |  |  |/  /          
                |  |  |   |  __  | /  /__\  \  |    /   |      \           
                |  |  |   | |  | | |   __   |  |    \   |  |\   \          
                \     /   | |  | | |  |  |  |  | |\  \  |  | \   \       
                 \___/    |_|  |_| |__|  |__|  |_| \__\ |__|  \__/        
                                                                              
                      - O R C A' S   B I G   F R I E N D -                    
                                      &                                       
                       - I N T E G R A L  F E E D E R -                       
                                                                              
 v1 FN, 2020, v2 2021                                                         
------------------------------------------------------------------------------


Reading SHARK input file FOD.SHARKINP.tmp ... ok
----------------------
SHARK INTEGRAL PACKAGE
----------------------

Number of atoms                             ...     13
Number of basis functions                   ...    606
Number of shells                            ...    186
Maximum angular momentum                    ...      4
Integral batch strategy                     ... SHARK/LIBINT Hybrid
RI-J (if used) integral strategy            ... SPLIT-RIJ (Revised 2003 algorithm where possible)
Printlevel                                  ...      1
Contraction scheme used                     ... SEGMENTED contraction
Coulomb Range Separation                    ... NOT USED
Exchange Range Separation                   ... NOT USED
Finite Nucleus Model                        ... NOT USED
Auxiliary Coulomb fitting basis             ... AVAILABLE
   # of basis functions in Aux-J            ...    447
   # of shells in Aux-J                     ...    145
   Maximum angular momentum in Aux-J        ...      4
Auxiliary J/K fitting basis                 ... NOT available
Auxiliary Correlation fitting basis         ... NOT available
Auxiliary 'external' fitting basis          ... NOT available
Integral threshold                          ...     2.500000e-11
Primitive cut-off                           ...     2.500000e-12
Primitive pair pre-selection threshold      ...     2.500000e-12

Calculating pre-screening integrals         ... done (  3.9 sec) Dimension = 186
Organizing shell pair data                  ... done (  2.4 sec)
Shell pair information
Total number of shell pairs                 ...     17391
Shell pairs after pre-screening             ...     14944
Total number of primitive shell pairs       ...     44595
Primitive shell pairs kept                  ...     29342
          la=0 lb=0:   2282 shell pairs
          la=1 lb=0:   3132 shell pairs
          la=1 lb=1:   1058 shell pairs
          la=2 lb=0:   2164 shell pairs
          la=2 lb=1:   1455 shell pairs
          la=2 lb=2:    520 shell pairs
          la=3 lb=0:   1324 shell pairs
          la=3 lb=1:    892 shell pairs
          la=3 lb=2:    622 shell pairs
          la=3 lb=3:    200 shell pairs
          la=4 lb=0:    521 shell pairs
          la=4 lb=1:    348 shell pairs
          la=4 lb=2:    241 shell pairs
          la=4 lb=3:    152 shell pairs
          la=4 lb=4:     33 shell pairs

Calculating one electron integrals          ... done (  0.7 sec)
Calculating RI/J V-Matrix + Cholesky decomp.... done (  0.1 sec)
Calculating Nuclear repulsion               ... done (  0.0 sec) ENN=    298.729306774016 Eh

SHARK setup successfully completed in  13.2 seconds

Maximum memory used throughout the entire GTOINT-calculation: 537.2 MB
-------------------------------------------------------------------------------
                                 ORCA SCF
-------------------------------------------------------------------------------

------------
SCF SETTINGS
------------
Hamiltonian:
 Density Functional     Method          .... DFT(GTOs)
 Exchange Functional    Exchange        .... B88
   X-Alpha parameter    XAlpha          ....  0.666667
   Becke's b parameter  XBeta           ....  0.004200
 Correlation Functional Correlation     .... LYP
 LDA part of GGA corr.  LDAOpt          .... VWN-5
 Gradients option       PostSCFGGA      .... off
 Hybrid DFT is turned on
   Fraction HF Exchange ScalHFX         ....  0.200000
   Scaling of DF-GGA-X  ScalDFX         ....  0.720000
   Scaling of DF-GGA-C  ScalDFC         ....  0.810000
   Scaling of DF-LDA-C  ScalLDAC        ....  1.000000
   Perturbative correction              ....  0.000000
   Density functional embedding theory  .... OFF
   NL short-range parameter             ....  4.800000
 RI-approximation to the Coulomb term is turned on
   Number of AuxJ basis functions       .... 447
   RIJ-COSX (HFX calculated with COS-X)).... on


General Settings:
 Integral files         IntName         .... FOD
 Hartree-Fock type      HFTyp           .... RHF
 Total Charge           Charge          ....    0
 Multiplicity           Mult            ....    1
 Number of Electrons    NEL             ....   54
 Basis Dimension        Dim             ....  606
 Nuclear Repulsion      ENuc            ....    298.7293067740 Eh

Convergence Acceleration:
 DIIS                   CNVDIIS         .... on
   Start iteration      DIISMaxIt       ....    12
   Startup error        DIISStart       ....  0.200000
   # of expansion vecs  DIISMaxEq       ....     5
   Bias factor          DIISBfac        ....   1.050
   Max. coefficient     DIISMaxC        ....  10.000
 Trust-Rad. Augm. Hess. CNVTRAH         .... off
 SOSCF                  CNVSOSCF        .... on
   Start iteration      SOSCFMaxIt      ....   150
   Startup grad/error   SOSCFStart      ....  0.003300
 Level Shifting         CNVShift        .... on
   Level shift para.    LevelShift      ....    0.2500
   Turn off err/grad.   ShiftErr        ....    0.0010
 Zerner damping         CNVZerner       .... off
 Static damping         CNVDamp         .... on
   Fraction old density DampFac         ....    0.7000
   Max. Damping (<1)    DampMax         ....    0.9800
   Min. Damping (>=0)   DampMin         ....    0.0000
   Turn off err/grad.   DampErr         ....    0.1000
 Fernandez-Rico         CNVRico         .... off

SCF Procedure:
 Maximum # iterations   MaxIter         ....   125
 SCF integral mode      SCFMode         .... Direct
   Integral package                     .... SHARK and LIBINT hybrid scheme
 Reset frequency        DirectResetFreq ....    20
 Integral Threshold     Thresh          ....  2.500e-11 Eh
 Primitive CutOff       TCut            ....  2.500e-12 Eh

Convergence Tolerance:
 Convergence Check Mode ConvCheckMode   .... Total+1el-Energy
 Convergence forced     ConvForced      .... 0
 Energy Change          TolE            ....  1.000e-08 Eh
 1-El. energy change                    ....  1.000e-05 Eh
 Orbital Gradient       TolG            ....  1.000e-05
 Orbital Rotation angle TolX            ....  1.000e-05
 DIIS Error             TolErr          ....  5.000e-07


Diagonalization of the overlap matrix:
Smallest eigenvalue                        ... 6.907e-06
Time for diagonalization                   ...    0.367 sec
Threshold for overlap eigenvalues          ... 1.000e-08
Number of eigenvalues below threshold      ... 0
Time for construction of square roots      ...    0.164 sec
Total time needed                          ...    0.532 sec

Time for model grid setup =    2.465 sec

------------------------------
INITIAL GUESS: MODEL POTENTIAL
------------------------------
Loading Hartree-Fock densities                     ... done
Calculating cut-offs                               ... done
Initializing the effective Hamiltonian             ... done
Setting up the integral package (SHARK)            ... done
Starting the Coulomb interaction                   ... done (   5.6 sec)
Reading the grid                                   ... done
Mapping shells                                     ... done
Starting the XC term evaluation                    ... done (  10.8 sec)
  promolecular density results
     # of electrons  =     53.999152564
     EX              =    -43.952402339
     EC              =     -1.803976292
     EX+EC           =    -45.756378631
Transforming the Hamiltonian                       ... done (   0.2 sec)
Diagonalizing the Hamiltonian                      ... done (   0.4 sec)
Back transforming the eigenvectors                 ... done (   0.1 sec)
Now organizing SCF variables                       ... done
                      ------------------
                      INITIAL GUESS DONE (  19.7 sec)
                      ------------------
-------------------
DFT GRID GENERATION
-------------------

General Integration Accuracy     IntAcc      ... 4.388
Radial Grid Type                 RadialGrid  ... OptM3 with GC (2021)
Angular Grid (max. ang.)         AngularGrid ... 4 (Lebedev-302)
Angular grid pruning method      GridPruning ... 4 (adaptive)
Weight generation scheme         WeightScheme... Becke
Basis function cutoff            BFCut       ... 1.0000e-11
Integration weight cutoff        WCut        ... 1.0000e-14
Angular grids for H and He will be reduced by one unit
Partially contracted basis set               ... off
Rotationally invariant grid construction     ... off

Total number of grid points                  ...    66532
Total number of batches                      ...     1045
Average number of points per batch           ...       63
Average number of grid points per atom       ...     5118
Time for grid setup =    8.943 sec

--------------------
COSX GRID GENERATION
--------------------

GRIDX 1
-------
General Integration Accuracy     IntAcc      ... 3.816
Radial Grid Type                 RadialGrid  ... OptM3 with GC (2021)
Angular Grid (max. ang.)         AngularGrid ... 1 (Lebedev-50)
Angular grid pruning method      GridPruning ... 4 (adaptive)
Weight generation scheme         WeightScheme... Becke
Basis function cutoff            BFCut       ... 1.0000e-11
Integration weight cutoff        WCut        ... 1.0000e-14
Angular grids for H and He will be reduced by one unit
Partially contracted basis set               ... on
Rotationally invariant grid construction     ... off

Total number of grid points                  ...     8501
Total number of batches                      ...      141
Average number of points per batch           ...       60
Average number of grid points per atom       ...      654
UseSFitting                                  ... on

GRIDX 2
-------
General Integration Accuracy     IntAcc      ... 4.020
Radial Grid Type                 RadialGrid  ... OptM3 with GC (2021)
Angular Grid (max. ang.)         AngularGrid ... 2 (Lebedev-110)
Angular grid pruning method      GridPruning ... 4 (adaptive)
Weight generation scheme         WeightScheme... Becke
Basis function cutoff            BFCut       ... 1.0000e-11
Integration weight cutoff        WCut        ... 1.0000e-14
Angular grids for H and He will be reduced by one unit
Partially contracted basis set               ... on
Rotationally invariant grid construction     ... off

Total number of grid points                  ...    20964
Total number of batches                      ...      334
Average number of points per batch           ...       62
Average number of grid points per atom       ...     1613
UseSFitting                                  ... on

GRIDX 3
-------
General Integration Accuracy     IntAcc      ... 4.338
Radial Grid Type                 RadialGrid  ... OptM3 with GC (2021)
Angular Grid (max. ang.)         AngularGrid ... 3 (Lebedev-194)
Angular grid pruning method      GridPruning ... 4 (adaptive)
Weight generation scheme         WeightScheme... Becke
Basis function cutoff            BFCut       ... 1.0000e-11
Integration weight cutoff        WCut        ... 1.0000e-14
Angular grids for H and He will be reduced by one unit
Partially contracted basis set               ... on
Rotationally invariant grid construction     ... off

Total number of grid points                  ...    45178
Total number of batches                      ...      712
Average number of points per batch           ...       63
Average number of grid points per atom       ...     3475
UseSFitting                                  ... on

Time for X-Grid setup             =   19.522 sec


Warning: Fractional occupation numbers cannot be used with CNVRico or SOSCF

--------------
SCF ITERATIONS
--------------
ITER       Energy         Delta-E        Max-DP      RMS-DP      [F,P]     Damp
               ***  Starting incremental Fock matrix formation  ***
  0   -324.2230789375   0.000000000000 0.04433097  0.00034107  0.2723368 0.7000
  1   -324.3233267777  -0.100247840247 0.02986421  0.00024909  0.0987353 0.7000
                               ***Turning on DIIS***
  2   -324.3607704162  -0.037443638484 0.04331738  0.00042646  0.0417237 0.0000
  3   -324.4233571668  -0.062586750567 0.02705597  0.00018286  0.0412201 0.0000
  4   -324.4342820730  -0.010924906215 0.00891206  0.00007736  0.0283942 0.0000
  5   -324.4356003722  -0.001318299237 0.00427714  0.00003395  0.0098684 0.0000
  6   -324.4357664291  -0.000166056892 0.00213185  0.00001380  0.0010639 0.0000
  7   -324.4357722198  -0.000005790720 0.00135322  0.00000917  0.0002583 0.0000
               *** Restarting incremental Fock matrix formation ***
                                   *** Resetting DIIS ***
  8   -324.4357803571  -0.000008137270 0.00036732  0.00000658  0.0001610 0.0000
  9   -324.4357802515   0.000000105611 0.00006872  0.00000065  0.0003316 0.0000
 10   -324.4357804014  -0.000000149921 0.00001907  0.00000022  0.0000825 0.0000
 11   -324.4357804146  -0.000000013207 0.00002421  0.00000024  0.0000211 0.0000
 12   -324.4357804221  -0.000000007511 0.00002550  0.00000030  0.0000057 0.0000
                 **** Energy Check signals convergence ****
Fermi smearing:E(HOMO(Eh)) = -0.276000 MUE = -0.168780 gap=   5.727 eV

N_FOD =  0.007288

               *****************************************************
               *                     SUCCESS                       *
               *           SCF CONVERGED AFTER  13 CYCLES          *
               *****************************************************

Fermi smearing:E(HOMO(Eh)) = -0.276000 MUE = -0.168780 gap=   5.727 eV

N_FOD =  0.007288
Old exchange energy                            =     -8.909504467 Eh
New exchange energy                            =     -8.909498556 Eh
Exchange energy change after final integration =      0.000005911 Eh
Total energy after final integration           =   -324.435774516 Eh
Final COS-X integration done in                =   460.260 sec

----------------
TOTAL SCF ENERGY
----------------

Total Energy       :         -324.43577452 Eh           -8828.34625 eV

Components:
Nuclear Repulsion  :          298.72930677 Eh            8128.83770 eV
Electronic Energy  :         -623.16508129 Eh          -16957.18395 eV
One Electron Energy:        -1027.82050865 Eh          -27968.41793 eV
Two Electron Energy:          404.65542736 Eh           11011.23398 eV
Max COSX asymmetry :            0.00000061 Eh               0.00002 eV

Virial components:
Potential Energy   :         -647.21770616 Eh          -17611.68915 eV
Kinetic Energy     :          322.78193165 Eh            8783.34290 eV
Virial Ratio       :            2.00512372


DFT components:
N(Alpha)           :       27.000012149558 electrons
N(Beta)            :       27.000012149558 electrons
N(Total)           :       54.000024299115 electrons
E(X)               :      -35.433308921231 Eh       
E(C)               :       -2.137418853943 Eh       
E(XC)              :      -37.570727775175 Eh       
DFET-embed. en.    :        0.000000000000 Eh       

---------------
SCF CONVERGENCE
---------------

  Last Energy change         ...   -5.1832e-09  Tolerance :   1.0000e-08
  Last MAX-Density change    ...    0.0000e+00  Tolerance :   1.0000e-07
  Last RMS-Density change    ...    0.0000e+00  Tolerance :   5.0000e-09
  Last DIIS Error            ...    2.3570e-06  Tolerance :   5.0000e-07

             **** THE GBW FILE WAS UPDATED (FOD.gbw) ****
             **** DENSITY FOD.scfp WAS UPDATED ****
             **** ENERGY FILE WAS UPDATED (FOD.en.tmp) ****
             **** THE GBW FILE WAS UPDATED (FOD.gbw) ****
             **** DENSITY FOD.scfp WAS UPDATED ****
----------------
ORBITAL ENERGIES
----------------

  NO   OCC          E(Eh)            E(eV) 
   0   2.0000     -14.319772      -389.6608 
   1   2.0000     -10.235118      -278.5117 
   2   2.0000     -10.216726      -278.0113 
   3   2.0000     -10.212886      -277.9068 
   4   2.0000     -10.212875      -277.9064 
   5   2.0000     -10.208632      -277.7910 
   6   2.0000     -10.206725      -277.7391 
   7   2.0000     -10.206639      -277.7368 
   8   2.0000      -0.913020       -24.8445 
   9   2.0000      -0.883001       -24.0277 
  10   2.0000      -0.789960       -21.4959 
  11   2.0000      -0.775675       -21.1072 
  12   2.0000      -0.659298       -17.9404 
  13   2.0000      -0.634959       -17.2781 
  14   2.0000      -0.570615       -15.5272 
  15   2.0000      -0.511309       -13.9134 
  16   2.0000      -0.486685       -13.2434 
  17   2.0000      -0.463685       -12.6175 
  18   2.0000      -0.450244       -12.2518 
  19   2.0000      -0.413236       -11.2447 
  20   2.0000      -0.391091       -10.6421 
  21   2.0000      -0.379374       -10.3233 
  22   2.0000      -0.366126        -9.9628 
  23   2.0000      -0.356696        -9.7062 
  24   2.0000      -0.339340        -9.2339 
  25   1.9987      -0.285148        -7.7593 
  26   1.9977      -0.276000        -7.5104 
  27   0.0029      -0.065550        -1.7837 
  28   0.0007      -0.041636        -1.1330 
  29   0.0000       0.009400         0.2558 
  30   0.0000       0.023299         0.6340 
  31   0.0000       0.035424         0.9639 
  32   0.0000       0.040225         1.0946 
  33   0.0000       0.058271         1.5856 
  34   0.0000       0.065710         1.7880 
  35   0.0000       0.076176         2.0728 
  36   0.0000       0.089255         2.4288 
  37   0.0000       0.092113         2.5065 
  38   0.0000       0.106413         2.8956 
  39   0.0000       0.124555         3.3893 
  40   0.0000       0.131007         3.5649 
  41   0.0000       0.140596         3.8258 
  42   0.0000       0.156980         4.2717 
  43   0.0000       0.158636         4.3167 
  44   0.0000       0.159720         4.3462 
  45   0.0000       0.160899         4.3783 
  46   0.0000       0.189519         5.1571 
  47   0.0000       0.203330         5.5329 
  48   0.0000       0.211776         5.7627 
  49   0.0000       0.213449         5.8082 
  50   0.0000       0.228282         6.2119 
  51   0.0000       0.234472         6.3803 
  52   0.0000       0.237132         6.4527 
  53   0.0000       0.249231         6.7819 
  54   0.0000       0.255112         6.9420 
  55   0.0000       0.267077         7.2675 
  56   0.0000       0.281612         7.6630 
  57   0.0000       0.284774         7.7491 
  58   0.0000       0.286164         7.7869 
  59   0.0000       0.301949         8.2165 
  60   0.0000       0.318301         8.6614 
  61   0.0000       0.319159         8.6848 
  62   0.0000       0.330075         8.9818 
  63   0.0000       0.347848         9.4654 
  64   0.0000       0.362071         9.8524 
  65   0.0000       0.364091         9.9074 
  66   0.0000       0.389437        10.5971 
  67   0.0000       0.394532        10.7358 
  68   0.0000       0.411107        11.1868 
  69   0.0000       0.419414        11.4128 
  70   0.0000       0.427232        11.6256 
  71   0.0000       0.427517        11.6333 
  72   0.0000       0.428508        11.6603 
  73   0.0000       0.442805        12.0493 
  74   0.0000       0.444614        12.0986 
  75   0.0000       0.470727        12.8091 
  76   0.0000       0.476324        12.9614 
  77   0.0000       0.497401        13.5350 
  78   0.0000       0.498824        13.5737 
  79   0.0000       0.509896        13.8750 
  80   0.0000       0.536345        14.5947 
  81   0.0000       0.547718        14.9042 
  82   0.0000       0.555366        15.1123 
  83   0.0000       0.560602        15.2548 
  84   0.0000       0.562122        15.2961 
  85   0.0000       0.595515        16.2048 
  86   0.0000       0.618675        16.8350 
  87   0.0000       0.633257        17.2318 
  88   0.0000       0.637493        17.3471 
  89   0.0000       0.653445        17.7811 
  90   0.0000       0.653755        17.7896 
  91   0.0000       0.664434        18.0802 
  92   0.0000       0.691405        18.8141 
  93   0.0000       0.695637        18.9292 
  94   0.0000       0.695891        18.9362 
  95   0.0000       0.715268        19.4634 
  96   0.0000       0.718609        19.5544 
  97   0.0000       0.730160        19.8687 
  98   0.0000       0.730397        19.8751 
  99   0.0000       0.740416        20.1478 
 100   0.0000       0.742024        20.1915 
 101   0.0000       0.762144        20.7390 
 102   0.0000       0.764425        20.8011 
 103   0.0000       0.791750        21.5446 
 104   0.0000       0.807762        21.9803 
 105   0.0000       0.807887        21.9837 
 106   0.0000       0.817357        22.2414 
 107   0.0000       0.836097        22.7514 
 108   0.0000       0.841733        22.9047 
 109   0.0000       0.846794        23.0424 
 110   0.0000       0.878977        23.9182 
 111   0.0000       0.879868        23.9424 
 112   0.0000       0.881738        23.9933 
 113   0.0000       0.886914        24.1342 
 114   0.0000       0.887887        24.1606 
 115   0.0000       0.891758        24.2660 
 116   0.0000       0.895045        24.3554 
 117   0.0000       0.945495        25.7282 
 118   0.0000       0.951703        25.8972 
 119   0.0000       0.963443        26.2166 
 120   0.0000       0.983259        26.7558 
 121   0.0000       0.984001        26.7760 
 122   0.0000       0.987861        26.8811 
 123   0.0000       1.000468        27.2241 
 124   0.0000       1.003281        27.3007 
 125   0.0000       1.021019        27.7833 
 126   0.0000       1.044485        28.4219 
 127   0.0000       1.053380        28.6639 
 128   0.0000       1.067851        29.0577 
 129   0.0000       1.073961        29.2240 
 130   0.0000       1.085831        29.5470 
 131   0.0000       1.107487        30.1363 
 132   0.0000       1.123460        30.5709 
 133   0.0000       1.142360        31.0852 
 134   0.0000       1.145484        31.1702 
 135   0.0000       1.163609        31.6634 
 136   0.0000       1.168178        31.7877 
 137   0.0000       1.168422        31.7944 
 138   0.0000       1.208684        32.8900 
 139   0.0000       1.220574        33.2135 
 140   0.0000       1.229454        33.4552 
 141   0.0000       1.248559        33.9750 
 142   0.0000       1.255403        34.1613 
 143   0.0000       1.268203        34.5096 
 144   0.0000       1.268759        34.5247 
 145   0.0000       1.318877        35.8885 
 146   0.0000       1.336920        36.3794 
 147   0.0000       1.362019        37.0624 
 148   0.0000       1.371974        37.3333 
 149   0.0000       1.423908        38.7465 
 150   0.0000       1.461285        39.7636 
 151   0.0000       1.467626        39.9361 
 152   0.0000       1.485677        40.4273 
 153   0.0000       1.491891        40.5964 
 154   0.0000       1.528322        41.5878 
 155   0.0000       1.545903        42.0662 
 156   0.0000       1.552636        42.2494 
 157   0.0000       1.561303        42.4852 
 158   0.0000       1.563497        42.5449 
 159   0.0000       1.586509        43.1711 
 160   0.0000       1.609574        43.7987 
 161   0.0000       1.619635        44.0725 
 162   0.0000       1.632043        44.4102 
 163   0.0000       1.640751        44.6471 
 164   0.0000       1.663365        45.2625 
 165   0.0000       1.685664        45.8693 
 166   0.0000       1.686263        45.8856 
 167   0.0000       1.704112        46.3712 
 168   0.0000       1.711969        46.5851 
 169   0.0000       1.735812        47.2339 
 170   0.0000       1.753926        47.7268 
 171   0.0000       1.763287        47.9815 
 172   0.0000       1.764605        48.0173 
 173   0.0000       1.767210        48.0882 
 174   0.0000       1.805884        49.1406 
 175   0.0000       1.808632        49.2154 
 176   0.0000       1.831741        49.8442 
 177   0.0000       1.832068        49.8531 
 178   0.0000       1.849968        50.3402 
 179   0.0000       1.870791        50.9068 
 180   0.0000       1.900684        51.7202 
 181   0.0000       1.903968        51.8096 
 182   0.0000       1.911563        52.0163 
 183   0.0000       1.923394        52.3382 
 184   0.0000       1.928689        52.4823 
 185   0.0000       1.941399        52.8282 
 186   0.0000       1.945877        52.9500 
 187   0.0000       1.949451        53.0473 
 188   0.0000       1.967389        53.5354 
 189   0.0000       2.007726        54.6330 
 190   0.0000       2.010059        54.6965 
 191   0.0000       2.015827        54.8534 
 192   0.0000       2.032892        55.3178 
 193   0.0000       2.048232        55.7352 
 194   0.0000       2.049168        55.7607 
 195   0.0000       2.070528        56.3419 
 196   0.0000       2.085500        56.7493 
 197   0.0000       2.094634        56.9979 
 198   0.0000       2.094845        57.0036 
 199   0.0000       2.106352        57.3167 
 200   0.0000       2.123970        57.7962 
 201   0.0000       2.126310        57.8598 
 202   0.0000       2.165308        58.9210 
 203   0.0000       2.168553        59.0093 
 204   0.0000       2.177462        59.2518 
 205   0.0000       2.193253        59.6815 
 206   0.0000       2.201030        59.8931 
 207   0.0000       2.213325        60.2276 
 208   0.0000       2.222136        60.4674 
 209   0.0000       2.235517        60.8315 
 210   0.0000       2.245718        61.1091 
 211   0.0000       2.261550        61.5399 
 212   0.0000       2.265587        61.6498 
 213   0.0000       2.279250        62.0215 
 214   0.0000       2.314215        62.9730 
 215   0.0000       2.334502        63.5250 
 216   0.0000       2.351710        63.9933 
 217   0.0000       2.360281        64.2265 
 218   0.0000       2.382236        64.8239 
 219   0.0000       2.383723        64.8644 
 220   0.0000       2.394745        65.1643 
 221   0.0000       2.402086        65.3641 
 222   0.0000       2.411598        65.6229 
 223   0.0000       2.420673        65.8699 
 224   0.0000       2.431021        66.1514 
 225   0.0000       2.463953        67.0476 
 226   0.0000       2.464912        67.0737 
 227   0.0000       2.481990        67.5384 
 228   0.0000       2.490927        67.7816 
 229   0.0000       2.495139        67.8962 
 230   0.0000       2.495329        67.9014 
 231   0.0000       2.499066        68.0030 
 232   0.0000       2.535483        68.9940 
 233   0.0000       2.540060        69.1185 
 234   0.0000       2.545460        69.2655 
 235   0.0000       2.564473        69.7829 
 236   0.0000       2.582152        70.2639 
 237   0.0000       2.597818        70.6902 
 238   0.0000       2.611397        71.0597 
 239   0.0000       2.611591        71.0650 
 240   0.0000       2.622219        71.3542 
 241   0.0000       2.623030        71.3763 
 242   0.0000       2.633760        71.6682 
 243   0.0000       2.646094        72.0039 
 244   0.0000       2.652433        72.1764 
 245   0.0000       2.678409        72.8832 
 246   0.0000       2.704863        73.6031 
 247   0.0000       2.712478        73.8103 
 248   0.0000       2.727041        74.2066 
 249   0.0000       2.730400        74.2980 
 250   0.0000       2.754110        74.9431 
 251   0.0000       2.762702        75.1769 
 252   0.0000       2.763940        75.2106 
 253   0.0000       2.765005        75.2396 
 254   0.0000       2.783089        75.7317 
 255   0.0000       2.787040        75.8392 
 256   0.0000       2.805946        76.3537 
 257   0.0000       2.850954        77.5784 
 258   0.0000       2.873816        78.2005 
 259   0.0000       2.899445        78.8979 
 260   0.0000       2.906198        79.0817 
 261   0.0000       2.923865        79.5624 
 262   0.0000       2.960875        80.5695 
 263   0.0000       2.980069        81.0918 
 264   0.0000       3.016821        82.0919 
 265   0.0000       3.029260        82.4304 
 266   0.0000       3.057605        83.2017 
 267   0.0000       3.069277        83.5193 
 268   0.0000       3.081662        83.8563 
 269   0.0000       3.088361        84.0386 
 270   0.0000       3.097535        84.2882 
 271   0.0000       3.113085        84.7113 
 272   0.0000       3.156344        85.8885 
 273   0.0000       3.162449        86.0546 
 274   0.0000       3.200030        87.0772 
 275   0.0000       3.218822        87.5886 
 276   0.0000       3.283890        89.3592 
 277   0.0000       3.309026        90.0432 
 278   0.0000       3.321695        90.3879 
 279   0.0000       3.330323        90.6227 
 280   0.0000       3.340314        90.8946 
 281   0.0000       3.347370        91.0866 
 282   0.0000       3.348642        91.1212 
 283   0.0000       3.385506        92.1243 
 284   0.0000       3.404929        92.6528 
 285   0.0000       3.426701        93.2453 
 286   0.0000       3.437461        93.5381 
 287   0.0000       3.450172        93.8839 
 288   0.0000       3.462143        94.2097 
 289   0.0000       3.502872        95.3180 
 290   0.0000       3.512825        95.5888 
 291   0.0000       3.530391        96.0668 
 292   0.0000       3.531661        96.1014 
 293   0.0000       3.547797        96.5405 
 294   0.0000       3.613901        98.3393 
 295   0.0000       3.636593        98.9567 
 296   0.0000       3.637155        98.9720 
 297   0.0000       3.670309        99.8742 
 298   0.0000       3.682774       100.2134 
 299   0.0000       3.775915       102.7479 
 300   0.0000       3.789170       103.1086 
 301   0.0000       3.833058       104.3028 
 302   0.0000       3.851093       104.7936 
 303   0.0000       3.877288       105.5064 
 304   0.0000       3.884746       105.7093 
 305   0.0000       3.890165       105.8568 
 306   0.0000       3.893966       105.9602 
 307   0.0000       3.966808       107.9423 
 308   0.0000       3.980753       108.3218 
 309   0.0000       3.996531       108.7511 
 310   0.0000       4.015101       109.2564 
 311   0.0000       4.054467       110.3277 
 312   0.0000       4.058009       110.4240 
 313   0.0000       4.086316       111.1943 
 314   0.0000       4.118197       112.0618 
 315   0.0000       4.181366       113.7808 
 316   0.0000       4.241068       115.4053 
 317   0.0000       4.286574       116.6436 
 318   0.0000       4.299915       117.0066 
 319   0.0000       4.414843       120.1340 
 320   0.0000       4.462355       121.4269 
 321   0.0000       4.485003       122.0431 
 322   0.0000       4.512062       122.7795 
 323   0.0000       4.636858       126.1753 
 324   0.0000       4.680988       127.3762 
 325   0.0000       4.698557       127.8542 
 326   0.0000       4.709018       128.1389 
 327   0.0000       4.769880       129.7950 
 328   0.0000       4.772215       129.8586 
 329   0.0000       4.781535       130.1122 
 330   0.0000       4.784160       130.1836 
 331   0.0000       4.815612       131.0395 
 332   0.0000       4.833435       131.5244 
 333   0.0000       4.840760       131.7238 
 334   0.0000       4.895045       133.2009 
 335   0.0000       4.943569       134.5213 
 336   0.0000       4.971741       135.2880 
 337   0.0000       4.995329       135.9298 
 338   0.0000       5.001194       136.0894 
 339   0.0000       5.006462       136.2327 
 340   0.0000       5.018004       136.5468 
 341   0.0000       5.027791       136.8131 
 342   0.0000       5.046707       137.3279 
 343   0.0000       5.078883       138.2034 
 344   0.0000       5.137098       139.7875 
 345   0.0000       5.148576       140.0999 
 346   0.0000       5.156566       140.3173 
 347   0.0000       5.184685       141.0825 
 348   0.0000       5.194391       141.3466 
 349   0.0000       5.207894       141.7140 
 350   0.0000       5.225598       142.1957 
 351   0.0000       5.232320       142.3787 
 352   0.0000       5.236513       142.4928 
 353   0.0000       5.275560       143.5553 
 354   0.0000       5.307135       144.4145 
 355   0.0000       5.311373       144.5298 
 356   0.0000       5.331378       145.0742 
 357   0.0000       5.348173       145.5312 
 358   0.0000       5.358007       145.7988 
 359   0.0000       5.380311       146.4057 
 360   0.0000       5.399021       146.9148 
 361   0.0000       5.401201       146.9742 
 362   0.0000       5.450483       148.3152 
 363   0.0000       5.477590       149.0528 
 364   0.0000       5.482374       149.1830 
 365   0.0000       5.502778       149.7382 
 366   0.0000       5.557687       151.2323 
 367   0.0000       5.575059       151.7051 
 368   0.0000       5.588716       152.0767 
 369   0.0000       5.604403       152.5036 
 370   0.0000       5.609650       152.6463 
 371   0.0000       5.640157       153.4765 
 372   0.0000       5.651457       153.7840 
 373   0.0000       5.715255       155.5200 
 374   0.0000       5.730158       155.9255 
 375   0.0000       5.735679       156.0758 
 376   0.0000       5.784821       157.4130 
 377   0.0000       5.802873       157.9042 
 378   0.0000       5.815266       158.2414 
 379   0.0000       5.836243       158.8123 
 380   0.0000       5.837093       158.8354 
 381   0.0000       5.842808       158.9909 
 382   0.0000       5.862894       159.5375 
 383   0.0000       5.868545       159.6912 
 384   0.0000       5.889895       160.2722 
 385   0.0000       5.898063       160.4945 
 386   0.0000       5.902566       160.6170 
 387   0.0000       5.931623       161.4077 
 388   0.0000       5.943368       161.7273 
 389   0.0000       5.974999       162.5880 
 390   0.0000       5.985766       162.8810 
 391   0.0000       5.986469       162.9001 
 392   0.0000       5.997623       163.2036 
 393   0.0000       6.005756       163.4249 
 394   0.0000       6.031643       164.1294 
 395   0.0000       6.038848       164.3254 
 396   0.0000       6.042182       164.4161 
 397   0.0000       6.067909       165.1162 
 398   0.0000       6.068413       165.1299 
 399   0.0000       6.072787       165.2489 
 400   0.0000       6.082617       165.5164 
 401   0.0000       6.104088       166.1007 
 402   0.0000       6.113837       166.3660 
 403   0.0000       6.117340       166.4613 
 404   0.0000       6.140747       167.0982 
 405   0.0000       6.167811       167.8347 
 406   0.0000       6.193573       168.5357 
 407   0.0000       6.202820       168.7873 
 408   0.0000       6.208340       168.9375 
 409   0.0000       6.208974       168.9548 
 410   0.0000       6.234185       169.6408 
 411   0.0000       6.245520       169.9493 
 412   0.0000       6.256990       170.2614 
 413   0.0000       6.260929       170.3685 
 414   0.0000       6.267014       170.5341 
 415   0.0000       6.276247       170.7854 
 416   0.0000       6.280591       170.9036 
 417   0.0000       6.298241       171.3839 
 418   0.0000       6.307503       171.6359 
 419   0.0000       6.359078       173.0393 
 420   0.0000       6.370690       173.3553 
 421   0.0000       6.387928       173.8244 
 422   0.0000       6.393427       173.9740 
 423   0.0000       6.405698       174.3079 
 424   0.0000       6.429538       174.9566 
 425   0.0000       6.434014       175.0784 
 426   0.0000       6.442724       175.3154 
 427   0.0000       6.524380       177.5374 
 428   0.0000       6.540570       177.9780 
 429   0.0000       6.554041       178.3445 
 430   0.0000       6.568919       178.7494 
 431   0.0000       6.575413       178.9261 
 432   0.0000       6.596367       179.4963 
 433   0.0000       6.601162       179.6267 
 434   0.0000       6.604325       179.7128 
 435   0.0000       6.629310       180.3927 
 436   0.0000       6.633597       180.5093 
 437   0.0000       6.642215       180.7439 
 438   0.0000       6.671172       181.5318 
 439   0.0000       6.698753       182.2823 
 440   0.0000       6.702537       182.3853 
 441   0.0000       6.706532       182.4940 
 442   0.0000       6.721077       182.8898 
 443   0.0000       6.759744       183.9420 
 444   0.0000       6.796287       184.9364 
 445   0.0000       6.805221       185.1795 
 446   0.0000       6.853252       186.4865 
 447   0.0000       6.856898       186.5857 
 448   0.0000       6.860373       186.6802 
 449   0.0000       6.861483       186.7104 
 450   0.0000       6.913819       188.1346 
 451   0.0000       6.922588       188.3732 
 452   0.0000       6.922974       188.3837 
 453   0.0000       6.930628       188.5920 
 454   0.0000       6.938897       188.8170 
 455   0.0000       7.012941       190.8318 
 456   0.0000       7.045057       191.7058 
 457   0.0000       7.047989       191.7855 
 458   0.0000       7.091257       192.9629 
 459   0.0000       7.121819       193.7945 
 460   0.0000       7.131777       194.0655 
 461   0.0000       7.171637       195.1502 
 462   0.0000       7.223176       196.5526 
 463   0.0000       7.252494       197.3504 
 464   0.0000       7.261402       197.5928 
 465   0.0000       7.275014       197.9632 
 466   0.0000       7.324872       199.3199 
 467   0.0000       7.339082       199.7066 
 468   0.0000       7.343869       199.8368 
 469   0.0000       7.366982       200.4658 
 470   0.0000       7.405427       201.5119 
 471   0.0000       7.409440       201.6211 
 472   0.0000       7.423678       202.0086 
 473   0.0000       7.429609       202.1699 
 474   0.0000       7.454175       202.8384 
 475   0.0000       7.488171       203.7635 
 476   0.0000       7.495528       203.9637 
 477   0.0000       7.519940       204.6280 
 478   0.0000       7.542536       205.2428 
 479   0.0000       7.552984       205.5271 
 480   0.0000       7.553598       205.5438 
 481   0.0000       7.627813       207.5633 
 482   0.0000       7.636356       207.7958 
 483   0.0000       7.675757       208.8680 
 484   0.0000       7.682189       209.0430 
 485   0.0000       7.731429       210.3829 
 486   0.0000       7.742155       210.6747 
 487   0.0000       7.820988       212.8199 
 488   0.0000       7.821036       212.8212 
 489   0.0000       7.834473       213.1868 
 490   0.0000       7.854872       213.7419 
 491   0.0000       7.908390       215.1982 
 492   0.0000       7.937880       216.0007 
 493   0.0000       7.952900       216.4094 
 494   0.0000       7.957869       216.5446 
 495   0.0000       8.041308       218.8151 
 496   0.0000       8.063976       219.4320 
 497   0.0000       8.069077       219.5707 
 498   0.0000       8.090814       220.1622 
 499   0.0000       8.108729       220.6497 
 500   0.0000       8.124227       221.0714 
 501   0.0000       8.159362       222.0275 
 502   0.0000       8.162704       222.1185 
 503   0.0000       8.202616       223.2045 
 504   0.0000       8.204205       223.2478 
 505   0.0000       8.216703       223.5879 
 506   0.0000       8.231988       224.0038 
 507   0.0000       8.255931       224.6553 
 508   0.0000       8.263451       224.8599 
 509   0.0000       8.266848       224.9524 
 510   0.0000       8.278962       225.2820 
 511   0.0000       8.296944       225.7713 
 512   0.0000       8.320960       226.4248 
 513   0.0000       8.333083       226.7547 
 514   0.0000       8.358525       227.4470 
 515   0.0000       8.359749       227.4803 
 516   0.0000       8.362420       227.5530 
 517   0.0000       8.375423       227.9069 
 518   0.0000       8.389535       228.2909 
 519   0.0000       8.416862       229.0345 
 520   0.0000       8.431640       229.4366 
 521   0.0000       8.448877       229.9056 
 522   0.0000       8.469612       230.4699 
 523   0.0000       8.473773       230.5831 
 524   0.0000       8.474140       230.5931 
 525   0.0000       8.476799       230.6654 
 526   0.0000       8.487489       230.9563 
 527   0.0000       8.505568       231.4483 
 528   0.0000       8.573715       233.3026 
 529   0.0000       8.593348       233.8369 
 530   0.0000       8.606082       234.1834 
 531   0.0000       8.653220       235.4661 
 532   0.0000       8.653881       235.4841 
 533   0.0000       8.659569       235.6389 
 534   0.0000       8.670315       235.9313 
 535   0.0000       8.724542       237.4069 
 536   0.0000       8.725475       237.4323 
 537   0.0000       8.766416       238.5463 
 538   0.0000       8.813506       239.8277 
 539   0.0000       8.834183       240.3904 
 540   0.0000       8.874543       241.4886 
 541   0.0000       8.899547       242.1690 
 542   0.0000       8.936064       243.1627 
 543   0.0000       8.946774       243.4541 
 544   0.0000       8.959797       243.8085 
 545   0.0000       8.991700       244.6766 
 546   0.0000       9.012271       245.2364 
 547   0.0000       9.055340       246.4083 
 548   0.0000       9.279835       252.5172 
 549   0.0000       9.409496       256.0454 
 550   0.0000       9.451741       257.1950 
 551   0.0000       9.492244       258.2971 
 552   0.0000       9.495983       258.3988 
 553   0.0000       9.554062       259.9792 
 554   0.0000       9.586763       260.8691 
 555   0.0000       9.641717       262.3645 
 556   0.0000       9.664427       262.9824 
 557   0.0000       9.689851       263.6743 
 558   0.0000       9.750609       265.3276 
 559   0.0000       9.752890       265.3896 
 560   0.0000       9.789860       266.3956 
 561   0.0000       9.807305       266.8703 
 562   0.0000       9.822373       267.2804 
 563   0.0000       9.923012       270.0189 
 564   0.0000       9.944570       270.6055 
 565   0.0000       9.957497       270.9573 
 566   0.0000       9.966039       271.1897 
 567   0.0000      10.004106       272.2256 
 568   0.0000      10.062859       273.8243 
 569   0.0000      10.146156       276.0909 
 570   0.0000      10.192518       277.3525 
 571   0.0000      10.206695       277.7383 
 572   0.0000      10.253113       279.0014 
 573   0.0000      10.265497       279.3384 
 574   0.0000      10.332985       281.1748 
 575   0.0000      10.490448       285.4596 
 576   0.0000      10.621961       289.0383 
 577   0.0000      10.662289       290.1356 
 578   0.0000      10.733683       292.0784 
 579   0.0000      10.840483       294.9845 
 580   0.0000      11.263060       306.4834 
 581   0.0000      11.549204       314.2698 
 582   0.0000      11.703404       318.4658 
 583   0.0000      12.033280       327.4422 
 584   0.0000      12.045889       327.7853 
 585   0.0000      12.538811       341.1984 
 586   0.0000      12.648906       344.1942 
 587   0.0000      12.815840       348.7367 
 588   0.0000      13.028763       354.5307 
 589   0.0000      13.140265       357.5648 
 590   0.0000      27.829806       757.2875 
 591   0.0000      28.302141       770.1404 
 592   0.0000      28.450393       774.1746 
 593   0.0000      28.743683       782.1554 
 594   0.0000      28.941047       787.5259 
 595   0.0000      29.171158       793.7876 
 596   0.0000      29.406666       800.1961 
 597   0.0000      37.906033      1031.4756 
 598   0.0000     146.902922      3997.4317 
 599   0.0000     147.354323      4009.7150 
 600   0.0000     147.490663      4013.4250 
 601   0.0000     147.759076      4020.7289 
 602   0.0000     147.944022      4025.7615 
 603   0.0000     148.214603      4033.1244 
 604   0.0000     148.483638      4040.4452 
 605   0.0000     197.173575      5365.3657 

                    ********************************
                    * MULLIKEN POPULATION ANALYSIS *
                    ********************************

------------------------------------------
FOD BASED MULLIKEN REDUCED ORBITAL CHARGES
------------------------------------------
  0 C s       :     0.000008  s :     0.000008
      pz      :     0.001043  p :     0.001050
      px      :     0.000003
      py      :     0.000003
      dz2     :    -0.000000  d :     0.000083
      dxz     :     0.000039
      dyz     :     0.000045
      dx2y2   :    -0.000000
      dxy     :     0.000000
      f0      :     0.000001  f :     0.000006
      f+1     :    -0.000000
      f-1     :    -0.000000
      f+2     :     0.000003
      f-2     :     0.000002
      f+3     :     0.000000
      f-3     :     0.000000
      g0      :     0.000000  g :     0.000000
      g+1     :     0.000000
      g-1     :     0.000000
      g+2     :     0.000000
      g-2     :     0.000000
      g+3     :     0.000000
      g-3     :     0.000000
      g+4     :     0.000000
      g-4     :     0.000000
  1 C s       :    -0.000004  s :    -0.000004
      pz      :     0.000905  p :     0.000906
      px      :     0.000002
      py      :    -0.000001
      dz2     :    -0.000000  d :     0.000071
      dxz     :     0.000040
      dyz     :     0.000031
      dx2y2   :    -0.000000
      dxy     :     0.000001
      f0      :     0.000001  f :     0.000005
      f+1     :     0.000000
      f-1     :    -0.000000
      f+2     :     0.000004
      f-2     :     0.000000
      f+3     :     0.000000
      f-3     :     0.000000
      g0      :    -0.000000  g :     0.000000
      g+1     :     0.000000
      g-1     :     0.000000
      g+2     :     0.000000
      g-2     :     0.000000
      g+3     :     0.000000
      g-3     :     0.000000
      g+4     :    -0.000000
      g-4     :     0.000000
  2 C s       :    -0.000005  s :    -0.000005
      pz      :     0.000664  p :     0.000659
      px      :    -0.000006
      py      :     0.000002
      dz2     :    -0.000000  d :     0.000093
      dxz     :     0.000014
      dyz     :     0.000079
      dx2y2   :     0.000001
      dxy     :    -0.000000
      f0      :     0.000001  f :     0.000006
      f+1     :     0.000000
      f-1     :    -0.000000
      f+2     :     0.000002
      f-2     :     0.000004
      f+3     :     0.000000
      f-3     :     0.000000
      g0      :     0.000000  g :     0.000000
      g+1     :     0.000000
      g-1     :     0.000000
      g+2     :     0.000000
      g-2     :     0.000000
      g+3     :     0.000000
      g-3     :     0.000000
      g+4     :    -0.000000
      g-4     :    -0.000000
  3 C s       :    -0.000012  s :    -0.000012
      pz      :     0.001229  p :     0.001228
      px      :     0.000002
      py      :    -0.000004
      dz2     :    -0.000000  d :     0.000051
      dxz     :     0.000036
      dyz     :     0.000013
      dx2y2   :     0.000001
      dxy     :     0.000000
      f0      :     0.000001  f :     0.000004
      f+1     :    -0.000000
      f-1     :     0.000000
      f+2     :     0.000001
      f-2     :     0.000002
      f+3     :     0.000000
      f-3     :     0.000000
      g0      :    -0.000000  g :     0.000000
      g+1     :     0.000000
      g-1     :     0.000000
      g+2     :     0.000000
      g-2     :     0.000000
      g+3     :     0.000000
      g-3     :     0.000000
      g+4     :    -0.000000
      g-4     :    -0.000000
  4 C s       :    -0.000005  s :    -0.000005
      pz      :     0.000664  p :     0.000659
      px      :    -0.000003
      py      :    -0.000002
      dz2     :    -0.000000  d :     0.000093
      dxz     :     0.000049
      dyz     :     0.000044
      dx2y2   :    -0.000000
      dxy     :     0.000001
      f0      :     0.000001  f :     0.000006
      f+1     :    -0.000000
      f-1     :     0.000000
      f+2     :     0.000005
      f-2     :     0.000000
      f+3     :     0.000000
      f-3     :    -0.000000
      g0      :     0.000000  g :     0.000000
      g+1     :     0.000000
      g-1     :     0.000000
      g+2     :     0.000000
      g-2     :     0.000000
      g+3     :     0.000000
      g-3     :     0.000000
      g+4     :    -0.000000
      g-4     :     0.000000
  5 C s       :    -0.000004  s :    -0.000004
      pz      :     0.000905  p :     0.000906
      px      :    -0.000001
      py      :     0.000002
      dz2     :    -0.000000  d :     0.000071
      dxz     :     0.000014
      dyz     :     0.000057
      dx2y2   :     0.000000
      dxy     :     0.000001
      f0      :     0.000001  f :     0.000005
      f+1     :     0.000000
      f-1     :    -0.000000
      f+2     :     0.000001
      f-2     :     0.000003
      f+3     :     0.000000
      f-3     :     0.000000
      g0      :    -0.000000  g :     0.000000
      g+1     :     0.000000
      g-1     :     0.000000
      g+2     :     0.000000
      g-2     :     0.000000
      g+3     :     0.000000
      g-3     :     0.000000
      g+4     :     0.000000
      g-4     :     0.000000
  6 C s       :    -0.000012  s :    -0.000012
      pz      :     0.000234  p :     0.000255
      px      :     0.000018
      py      :     0.000003
      dz2     :     0.000000  d :     0.000093
      dxz     :     0.000007
      dyz     :     0.000085
      dx2y2   :     0.000001
      dxy     :     0.000001
      f0      :    -0.000000  f :     0.000000
      f+1     :     0.000000
      f-1     :     0.000000
      f+2     :    -0.000000
      f-2     :     0.000000
      f+3     :     0.000000
      f-3     :     0.000000
      g0      :    -0.000000  g :     0.000001
      g+1     :     0.000000
      g-1     :     0.000001
      g+2     :     0.000000
      g-2     :     0.000000
      g+3     :     0.000000
      g-3     :     0.000000
      g+4     :     0.000000
      g-4     :     0.000000
  7 H s       :     0.000011  s :     0.000011
      pz      :     0.000027  p :     0.000027
      px      :     0.000000
      py      :     0.000000
      dz2     :     0.000000  d :     0.000003
      dxz     :     0.000001
      dyz     :     0.000002
      dx2y2   :     0.000000
      dxy     :     0.000000
      f0      :     0.000000  f :     0.000000
      f+1     :     0.000000
      f-1     :     0.000000
      f+2     :     0.000000
      f-2     :     0.000000
      f+3     :     0.000000
      f-3     :     0.000000
  8 H s       :     0.000019  s :     0.000019
      pz      :     0.000020  p :     0.000020
      px      :     0.000001
      py      :     0.000000
      dz2     :     0.000000  d :     0.000002
      dxz     :     0.000002
      dyz     :     0.000000
      dx2y2   :     0.000000
      dxy     :     0.000000
      f0      :     0.000000  f :     0.000000
      f+1     :     0.000000
      f-1     :     0.000000
      f+2     :     0.000000
      f-2     :     0.000000
      f+3     :     0.000000
      f-3     :     0.000000
  9 H s       :     0.000017  s :     0.000017
      pz      :     0.000042  p :     0.000042
      px      :     0.000000
      py      :     0.000000
      dz2     :    -0.000000  d :     0.000004
      dxz     :     0.000000
      dyz     :     0.000004
      dx2y2   :     0.000000
      dxy     :     0.000000
      f0      :     0.000000  f :     0.000000
      f+1     :     0.000000
      f-1     :     0.000000
      f+2     :     0.000000
      f-2     :     0.000000
      f+3     :     0.000000
      f-3     :     0.000000
 10 H s       :     0.000020  s :     0.000020
      pz      :     0.000020  p :     0.000020
      px      :     0.000000
      py      :     0.000000
      dz2     :     0.000000  d :     0.000002
      dxz     :     0.000001
      dyz     :     0.000001
      dx2y2   :     0.000000
      dxy     :     0.000000
      f0      :     0.000000  f :     0.000000
      f+1     :     0.000000
      f-1     :     0.000000
      f+2     :     0.000000
      f-2     :     0.000000
      f+3     :     0.000000
      f-3     :     0.000000
 11 H s       :     0.000011  s :     0.000011
      pz      :     0.000027  p :     0.000027
      px      :     0.000000
      py      :     0.000000
      dz2     :     0.000000  d :     0.000003
      dxz     :     0.000003
      dyz     :     0.000001
      dx2y2   :     0.000000
      dxy     :     0.000000
      f0      :     0.000000  f :     0.000000
      f+1     :     0.000000
      f-1     :     0.000000
      f+2     :     0.000000
      f-2     :     0.000000
      f+3     :     0.000000
      f-3     :     0.000000
 12 N s       :     0.000001  s :     0.000001
      pz      :     0.000802  p :     0.000831
      px      :     0.000023
      py      :     0.000005
      dz2     :     0.000000  d :     0.000002
      dxz     :     0.000000
      dyz     :     0.000001
      dx2y2   :     0.000000
      dxy     :     0.000000
      f0      :     0.000000  f :     0.000000
      f+1     :     0.000000
      f-1     :     0.000000
      f+2     :     0.000000
      f-2     :     0.000000
      f+3     :     0.000000
      f-3     :     0.000000
      g0      :     0.000000  g :     0.000000
      g+1     :     0.000000
      g-1     :     0.000000
      g+2     :     0.000000
      g-2     :     0.000000
      g+3     :     0.000000
      g-3     :     0.000000
      g+4     :     0.000000
      g-4     :     0.000000


                     *******************************
                     * LOEWDIN POPULATION ANALYSIS *
                     *******************************

----------------------
LOEWDIN ATOMIC CHARGES
----------------------
   0 C :   -0.149786
   1 C :    0.102327
   2 C :    0.074561
   3 C :    0.078248
   4 C :    0.074539
   5 C :    0.102417
   6 C :   -0.235442
   7 H :   -0.042488
   8 H :   -0.051113
   9 H :   -0.051382
  10 H :   -0.051055
  11 H :   -0.042523
  12 N :    0.191697

-------------------------------
LOEWDIN REDUCED ORBITAL CHARGES
-------------------------------
  0 C s       :     2.582554  s :     2.582554
      pz      :     0.797901  p :     2.754152
      px      :     1.003881
      py      :     0.952370
      dz2     :     0.048756  d :     0.646027
      dxz     :     0.096676
      dyz     :     0.077473
      dx2y2   :     0.224347
      dxy     :     0.198776
      f0      :     0.010538  f :     0.151890
      f+1     :     0.008459
      f-1     :     0.009401
      f+2     :     0.016286
      f-2     :     0.019977
      f+3     :     0.047349
      f-3     :     0.039881
      g0      :     0.000413  g :     0.015162
      g+1     :     0.001493
      g-1     :     0.001525
      g+2     :     0.001512
      g-2     :     0.001404
      g+3     :     0.000638
      g-3     :     0.000877
      g+4     :     0.003624
      g-4     :     0.003676
  1 C s       :     2.590467  s :     2.590467
      pz      :     0.751331  p :     2.686949
      px      :     0.956878
      py      :     0.978739
      dz2     :     0.039186  d :     0.497538
      dxz     :     0.056680
      dyz     :     0.060933
      dx2y2   :     0.140339
      dxy     :     0.200401
      f0      :     0.006423  f :     0.111431
      f+1     :     0.007180
      f-1     :     0.007375
      f+2     :     0.021275
      f-2     :     0.005710
      f+3     :     0.034856
      f-3     :     0.028611
      g0      :     0.000367  g :     0.011288
      g+1     :     0.001085
      g-1     :     0.001126
      g+2     :     0.001228
      g-2     :     0.001244
      g+3     :     0.000354
      g-3     :     0.000551
      g+4     :     0.003310
      g-4     :     0.002023
  2 C s       :     2.595163  s :     2.595163
      pz      :     0.766045  p :     2.713964
      px      :     0.952958
      py      :     0.994961
      dz2     :     0.037663  d :     0.495042
      dxz     :     0.026324
      dyz     :     0.085965
      dx2y2   :     0.186342
      dxy     :     0.158748
      f0      :     0.006244  f :     0.110007
      f+1     :     0.006747
      f-1     :     0.007497
      f+2     :     0.009912
      f-2     :     0.015358
      f+3     :     0.034708
      f-3     :     0.029542
      g0      :     0.000363  g :     0.011264
      g+1     :     0.000700
      g-1     :     0.001375
      g+2     :     0.001250
      g-2     :     0.001241
      g+3     :     0.000361
      g-3     :     0.000511
      g+4     :     0.002217
      g-4     :     0.003246
  3 C s       :     2.596744  s :     2.596744
      pz      :     0.753311  p :     2.705056
      px      :     0.999250
      py      :     0.952495
      dz2     :     0.037983  d :     0.498644
      dxz     :     0.090397
      dyz     :     0.024532
      dx2y2   :     0.191767
      dxy     :     0.153966
      f0      :     0.006207  f :     0.110134
      f+1     :     0.007465
      f-1     :     0.006713
      f+2     :     0.008215
      f-2     :     0.017409
      f+3     :     0.034577
      f-3     :     0.029548
      g0      :     0.000356  g :     0.011174
      g+1     :     0.001414
      g-1     :     0.000679
      g+2     :     0.001235
      g-2     :     0.001238
      g+3     :     0.000363
      g-3     :     0.000494
      g+4     :     0.002479
      g-4     :     0.002915
  4 C s       :     2.595180  s :     2.595180
      pz      :     0.766058  p :     2.714007
      px      :     0.973770
      py      :     0.974179
      dz2     :     0.037659  d :     0.495008
      dxz     :     0.054389
      dyz     :     0.057891
      dx2y2   :     0.140985
      dxy     :     0.204083
      f0      :     0.006243  f :     0.110003
      f+1     :     0.007099
      f-1     :     0.007143
      f+2     :     0.019983
      f-2     :     0.005288
      f+3     :     0.034521
      f-3     :     0.029726
      g0      :     0.000363  g :     0.011263
      g+1     :     0.001003
      g-1     :     0.001072
      g+2     :     0.001257
      g-2     :     0.001233
      g+3     :     0.000378
      g-3     :     0.000495
      g+4     :     0.003460
      g-4     :     0.002002
  5 C s       :     2.590453  s :     2.590453
      pz      :     0.751308  p :     2.686858
      px      :     0.946471
      py      :     0.989079
      dz2     :     0.039189  d :     0.497554
      dxz     :     0.026869
      dyz     :     0.090744
      dx2y2   :     0.179019
      dxy     :     0.161733
      f0      :     0.006423  f :     0.111429
      f+1     :     0.006688
      f-1     :     0.007869
      f+2     :     0.009736
      f-2     :     0.017246
      f+3     :     0.033437
      f-3     :     0.030030
      g0      :     0.000367  g :     0.011287
      g+1     :     0.000721
      g-1     :     0.001490
      g+2     :     0.001197
      g-2     :     0.001274
      g+3     :     0.000416
      g-3     :     0.000488
      g+4     :     0.002246
      g-4     :     0.003087
  6 C s       :     2.718332  s :     2.718332
      pz      :     0.811185  p :     2.826467
      px      :     0.815235
      py      :     1.200048
      dz2     :     0.054980  d :     0.545191
      dxz     :     0.010581
      dyz     :     0.161932
      dx2y2   :     0.157466
      dxy     :     0.160232
      f0      :     0.013111  f :     0.117400
      f+1     :     0.003175
      f-1     :     0.015877
      f+2     :     0.017273
      f-2     :     0.004846
      f+3     :     0.032205
      f-3     :     0.030914
      g0      :     0.000925  g :     0.028052
      g+1     :     0.000330
      g-1     :     0.005631
      g+2     :     0.001903
      g-2     :     0.001513
      g+3     :     0.001961
      g-3     :     0.002679
      g+4     :     0.007437
      g-4     :     0.005673
  7 H s       :     0.786723  s :     0.786723
      pz      :     0.050948  p :     0.183860
      px      :     0.066521
      py      :     0.066391
      dz2     :     0.004738  d :     0.062708
      dxz     :     0.010174
      dyz     :     0.009688
      dx2y2   :     0.023451
      dxy     :     0.014657
      f0      :     0.000989  f :     0.009197
      f+1     :     0.000629
      f-1     :     0.000582
      f+2     :     0.000042
      f-2     :     0.001655
      f+3     :     0.002727
      f-3     :     0.002573
  8 H s       :     0.794080  s :     0.794080
      pz      :     0.051743  p :     0.185308
      px      :     0.087828
      py      :     0.045737
      dz2     :     0.004709  d :     0.062570
      dxz     :     0.017962
      dyz     :     0.001869
      dx2y2   :     0.017133
      dxy     :     0.020896
      f0      :     0.000992  f :     0.009156
      f+1     :     0.000906
      f-1     :     0.000296
      f+2     :     0.001161
      f-2     :     0.000521
      f+3     :     0.002754
      f-3     :     0.002526
  9 H s       :     0.794997  s :     0.794997
      pz      :     0.050761  p :     0.184962
      px      :     0.044742
      py      :     0.089459
      dz2     :     0.004710  d :     0.062308
      dxz     :     0.001306
      dyz     :     0.018135
      dx2y2   :     0.016286
      dxy     :     0.021871
      f0      :     0.000971  f :     0.009115
      f+1     :     0.000276
      f-1     :     0.000926
      f+2     :     0.001291
      f-2     :     0.000358
      f+3     :     0.002760
      f-3     :     0.002532
 10 H s       :     0.794054  s :     0.794054
      pz      :     0.051729  p :     0.185285
      px      :     0.068377
      py      :     0.065179
      dz2     :     0.004709  d :     0.062563
      dxz     :     0.010421
      dyz     :     0.009408
      dx2y2   :     0.023681
      dxy     :     0.014344
      f0      :     0.000992  f :     0.009153
      f+1     :     0.000621
      f-1     :     0.000581
      f+2     :     0.000040
      f-2     :     0.001640
      f+3     :     0.002753
      f-3     :     0.002525
 11 H s       :     0.786734  s :     0.786734
      pz      :     0.050955  p :     0.183876
      px      :     0.087836
      py      :     0.045085
      dz2     :     0.004738  d :     0.062713
      dxz     :     0.017850
      dyz     :     0.002015
      dx2y2   :     0.017593
      dxy     :     0.020517
      f0      :     0.000989  f :     0.009199
      f+1     :     0.000919
      f-1     :     0.000293
      f+2     :     0.001151
      f-2     :     0.000548
      f+3     :     0.002799
      f-3     :     0.002501
 12 N s       :     3.180447  s :     3.180447
      pz      :     0.988121  p :     3.454733
      px      :     1.000885
      py      :     1.465727
      dz2     :     0.013956  d :     0.130316
      dxz     :     0.002041
      dyz     :     0.035246
      dx2y2   :     0.041166
      dxy     :     0.037908
      f0      :     0.004670  f :     0.037665
      f+1     :     0.001002
      f-1     :     0.004644
      f+2     :     0.006129
      f-2     :     0.001596
      f+3     :     0.010077
      f-3     :     0.009547
      g0      :     0.000313  g :     0.005142
      g+1     :     0.000045
      g-1     :     0.000780
      g+2     :     0.000590
      g-2     :     0.000288
      g+3     :     0.000270
      g-3     :     0.000369
      g+4     :     0.001250
      g-4     :     0.001236


                      *****************************
                      * MAYER POPULATION ANALYSIS *
                      *****************************

  NA   - Mulliken gross atomic population
  ZA   - Total nuclear charge
  QA   - Mulliken gross atomic charge
  VA   - Mayer's total valence
  BVA  - Mayer's bonded valence
  FA   - Mayer's free valence

  ATOM       NA         ZA         QA         VA         BVA        FA
  0 C      5.7672     6.0000     0.2328     3.5292     3.5269     0.0023
  1 C      6.0805     6.0000    -0.0805     3.7029     3.7009     0.0020
  2 C      6.0556     6.0000    -0.0556     3.7985     3.7970     0.0015
  3 C      6.0354     6.0000    -0.0354     3.7855     3.7829     0.0025
  4 C      6.0577     6.0000    -0.0577     3.8006     3.7991     0.0015
  5 C      6.0788     6.0000    -0.0788     3.7022     3.7002     0.0020
  6 C      6.1228     6.0000    -0.1228     3.8630     3.8624     0.0007
  7 H      0.9159     1.0000     0.0841     0.9988     0.9987     0.0001
  8 H      0.9323     1.0000     0.0677     1.0001     1.0000     0.0001
  9 H      0.9327     1.0000     0.0673     0.9976     0.9975     0.0001
 10 H      0.9313     1.0000     0.0687     0.9999     0.9998     0.0001
 11 H      0.9162     1.0000     0.0838     0.9987     0.9986     0.0001
 12 N      7.1736     7.0000    -0.1736     3.0320     3.0303     0.0017

  Mayer bond orders larger than 0.100000
B(  0-C ,  1-C ) :   1.2339 B(  0-C ,  5-C ) :   1.2330 B(  0-C ,  6-C ) :   0.9085 
B(  1-C ,  2-C ) :   1.3316 B(  1-C ,  7-H ) :   0.9574 B(  2-C ,  3-C ) :   1.3161 
B(  2-C ,  8-H ) :   0.9664 B(  3-C ,  4-C ) :   1.3168 B(  3-C ,  9-H ) :   0.9652 
B(  4-C ,  5-C ) :   1.3322 B(  4-C , 10-H ) :   0.9666 B(  5-C , 11-H ) :   0.9572 
B(  6-C , 12-N ) :   2.9318 

-------
TIMINGS
-------

Total SCF time: 0 days 0 hours 52 min 7 sec 

Total time                  ....    3127.770 sec
Sum of individual times     ....    3067.700 sec  ( 98.1%)

Fock matrix formation       ....    2967.591 sec  ( 94.9%)
  Split-RI-J                ....     193.959 sec  (  6.5% of F)
  Chain of spheres X        ....    2319.566 sec  ( 78.2% of F)
  XC integration            ....     335.389 sec  ( 11.3% of F)
    Basis function eval.    ....      54.738 sec  ( 16.3% of XC)
    Density eval.           ....     106.589 sec  ( 31.8% of XC)
    XC-Functional eval.     ....       3.609 sec  (  1.1% of XC)
    XC-Potential eval.      ....     115.704 sec  ( 34.5% of XC)
Diagonalization             ....       6.504 sec  (  0.2%)
Density matrix formation    ....      40.683 sec  (  1.3%)
Population analysis         ....       1.191 sec  (  0.0%)
Initial guess               ....      17.242 sec  (  0.6%)
Orbital Transformation      ....       0.000 sec  (  0.0%)
Orbital Orthonormalization  ....       0.000 sec  (  0.0%)
DIIS solution               ....       3.559 sec  (  0.1%)
Grid generation             ....      30.930 sec  (  1.0%)

Maximum memory used throughout the entire SCF-calculation: 640.3 MB

-------------------------   --------------------
FINAL SINGLE POINT ENERGY      -324.435774515864
-------------------------   --------------------


                            ***************************************
                            *     ORCA property calculations      *
                            ***************************************

                                    ---------------------
                                    Active property flags
                                    ---------------------
   (+) Dipole Moment


------------------------------------------------------------------------------
                       ORCA ELECTRIC PROPERTIES CALCULATION
------------------------------------------------------------------------------

Dipole Moment Calculation                       ... on
Quadrupole Moment Calculation                   ... off
Polarizability Calculation                      ... off
GBWName                                         ... FOD.gbw
Electron density                                ... FOD.scfp
The origin for moment calculation is the CENTER OF MASS  = (-12.250812,  0.842082 -0.000011)

-------------
DIPOLE MOMENT
-------------
                                X             Y             Z
Electronic contribution:      1.02811       4.30883      -0.00007
Nuclear contribution   :     -1.46091      -6.11812       0.00009
                        -----------------------------------------
Total Dipole Moment    :     -0.43281      -1.80930       0.00002
                        -----------------------------------------
Magnitude (a.u.)       :      1.86034
Magnitude (Debye)      :      4.72862



--------------------
Rotational spectrum 
--------------------
 
Rotational constants in cm-1:     0.187863     0.051251     0.040266 
Rotational constants in MHz :  5631.980927  1536.463194  1207.142200 

 Dipole components along the rotational axes: 
x,y,z [a.u.] :    -1.860343    -0.000395    -0.000002 
x,y,z [Debye]:    -4.728617    -0.001005    -0.000006 

 

Timings for individual modules:

Sum of individual times         ...     3144.057 sec (=  52.401 min)
GTO integral calculation        ...       13.875 sec (=   0.231 min)   0.4 %
SCF iterations                  ...     3130.182 sec (=  52.170 min)  99.6 %
                             ****ORCA TERMINATED NORMALLY****
TOTAL RUN TIME: 0 days 0 hours 52 minutes 30 seconds 315 msec
