
                                 *****************
                                 * O   R   C   A *
                                 *****************

                                            #,                                       
                                            ###                                      
                                            ####                                     
                                            #####                                    
                                            ######                                   
                                           ########,                                 
                                     ,,################,,,,,                         
                               ,,#################################,,                 
                          ,,##########################################,,             
                       ,#########################################, ''#####,          
                    ,#############################################,,   '####,        
                  ,##################################################,,,,####,       
                ,###########''''           ''''###############################       
              ,#####''   ,,,,##########,,,,          '''####'''          '####       
            ,##' ,,,,###########################,,,                        '##       
           ' ,,###''''                  '''############,,,                           
         ,,##''                                '''############,,,,        ,,,,,,###''
      ,#''                                            '''#######################'''  
     '                                                          ''''####''''         
             ,#######,   #######,   ,#######,      ##                                
            ,#'     '#,  ##    ##  ,#'     '#,    #''#        ######   ,####,        
            ##       ##  ##   ,#'  ##            #'  '#       #        #'  '#        
            ##       ##  #######   ##           ,######,      #####,   #    #        
            '#,     ,#'  ##    ##  '#,     ,#' ,#      #,         ##   #,  ,#        
             '#######'   ##     ##  '#######'  #'      '#     #####' # '####'        



                  #######################################################
                  #                        -***-                        #
                  #          Department of theory and spectroscopy      #
                  #    Directorship and core code : Frank Neese         #
                  #        Max Planck Institute fuer Kohlenforschung    #
                  #                Kaiser Wilhelm Platz 1               #
                  #                 D-45470 Muelheim/Ruhr               #
                  #                      Germany                        #
                  #                                                     #
                  #                  All rights reserved                #
                  #                        -***-                        #
                  #######################################################



                         Program Version 5.0.4 -  RELEASE  -

 With contributions from (in alphabetic order):
   Daniel Aravena         : Magnetic Suceptibility
   Michael Atanasov       : Ab Initio Ligand Field Theory (pilot matlab implementation)
   Alexander A. Auer      : GIAO ZORA, VPT2 properties, NMR spectrum
   Ute Becker             : Parallelization
   Giovanni Bistoni       : ED, misc. LED, open-shell LED, HFLD
   Martin Brehm           : Molecular dynamics
   Dmytro Bykov           : SCF Hessian
   Vijay G. Chilkuri      : MRCI spin determinant printing, contributions to CSF-ICE
   Dipayan Datta          : RHF DLPNO-CCSD density
   Achintya Kumar Dutta   : EOM-CC, STEOM-CC
   Dmitry Ganyushin       : Spin-Orbit,Spin-Spin,Magnetic field MRCI
   Miquel Garcia          : C-PCM and meta-GGA Hessian, CC/C-PCM, Gaussian charge scheme
   Yang Guo               : DLPNO-NEVPT2, F12-NEVPT2, CIM, IAO-localization
   Andreas Hansen         : Spin unrestricted coupled pair/coupled cluster methods
   Benjamin Helmich-Paris : MC-RPA, TRAH-SCF, COSX integrals
   Lee Huntington         : MR-EOM, pCC
   Robert Izsak           : Overlap fitted RIJCOSX, COSX-SCS-MP3, EOM
   Marcus Kettner         : VPT2
   Christian Kollmar      : KDIIS, OOCD, Brueckner-CCSD(T), CCSD density, CASPT2, CASPT2-K
   Simone Kossmann        : Meta GGA functionals, TD-DFT gradient, OOMP2, MP2 Hessian
   Martin Krupicka        : Initial AUTO-CI
   Lucas Lang             : DCDCAS
   Marvin Lechner         : AUTO-CI (C++ implementation), FIC-MRCC
   Dagmar Lenk            : GEPOL surface, SMD
   Dimitrios Liakos       : Extrapolation schemes; Compound Job, initial MDCI parallelization
   Dimitrios Manganas     : Further ROCIS development; embedding schemes
   Dimitrios Pantazis     : SARC Basis sets
   Anastasios Papadopoulos: AUTO-CI, single reference methods and gradients
   Taras Petrenko         : DFT Hessian,TD-DFT gradient, ASA, ECA, R-Raman, ABS, FL, XAS/XES, NRVS
   Peter Pinski           : DLPNO-MP2, DLPNO-MP2 Gradient
   Christoph Reimann      : Effective Core Potentials
   Marius Retegan         : Local ZFS, SOC
   Christoph Riplinger    : Optimizer, TS searches, QM/MM, DLPNO-CCSD(T), (RO)-DLPNO pert. Triples
   Tobias Risthaus        : Range-separated hybrids, TD-DFT gradient, RPA, STAB
   Michael Roemelt        : Original ROCIS implementation
   Masaaki Saitow         : Open-shell DLPNO-CCSD energy and density
   Barbara Sandhoefer     : DKH picture change effects
   Avijit Sen             : IP-ROCIS
   Kantharuban Sivalingam : CASSCF convergence, NEVPT2, FIC-MRCI
   Bernardo de Souza      : ESD, SOC TD-DFT
   Georgi Stoychev        : AutoAux, RI-MP2 NMR, DLPNO-MP2 response
   Willem Van den Heuvel  : Paramagnetic NMR
   Boris Wezisla          : Elementary symmetry handling
   Frank Wennmohs         : Technical directorship


 We gratefully acknowledge several colleagues who have allowed us to
 interface, adapt or use parts of their codes:
   Stefan Grimme, W. Hujo, H. Kruse, P. Pracht,  : VdW corrections, initial TS optimization,
                  C. Bannwarth, S. Ehlert          DFT functionals, gCP, sTDA/sTD-DF
   Ed Valeev, F. Pavosevic, A. Kumar             : LibInt (2-el integral package), F12 methods
   Garnet Chan, S. Sharma, J. Yang, R. Olivares  : DMRG
   Ulf Ekstrom                                   : XCFun DFT Library
   Mihaly Kallay                                 : mrcc  (arbitrary order and MRCC methods)
   Jiri Pittner, Ondrej Demel                    : Mk-CCSD
   Frank Weinhold                                : gennbo (NPA and NBO analysis)
   Christopher J. Cramer and Donald G. Truhlar   : smd solvation model
   Lars Goerigk                                  : TD-DFT with DH, B97 family of functionals
   V. Asgeirsson, H. Jonsson                     : NEB implementation
   FAccTs GmbH                                   : IRC, NEB, NEB-TS, DLPNO-Multilevel, CI-OPT
                                                   MM, QMMM, 2- and 3-layer-ONIOM, Crystal-QMMM,
                                                   LR-CPCM, SF, NACMEs, symmetry and pop. for TD-DFT,
                                                   nearIR, NL-DFT gradient (VV10), updates on ESD,
                                                   ML-optimized integration grids
   S Lehtola, MJT Oliveira, MAL Marques          : LibXC Library
   Liviu Ungur et al                             : ANISO software


 Your calculation uses the libint2 library for the computation of 2-el integrals
 For citations please refer to: http://libint.valeyev.net

 Your ORCA version has been built with support for libXC version: 5.1.0
 For citations please refer to: https://tddft.org/programs/libxc/

 This ORCA versions uses:
   CBLAS   interface :  Fast vector & matrix operations
   LAPACKE interface :  Fast linear algebra routines
   Shared memory     :  Shared parallel matrices


Your calculation utilizes the atom-pairwise dispersion correction
based on tight binding partial charges (D4)
Cite in your paper:
E.Caldeweyher, C.Bannwarth, S.Grimme, J.Chem.Phys., (2017), 147, 034112.
E.Caldeweyher, S.Ehlert, A.Hansen, H.Neugebauer, S.Grimme, J.Chem.Phys., (2018), in progress.
   

================================================================================

----- Orbital basis set information -----
Your calculation utilizes the basis: def2-QZVP
   F. Weigend and R. Ahlrichs, Phys. Chem. Chem. Phys. 7, 3297 (2005).

----- AuxJ basis set information -----
Your calculation utilizes the auxiliary basis: def2/J
   F. Weigend, Phys. Chem. Chem. Phys. 8, 1057 (2006).

================================================================================
                                        WARNINGS
                       Please study these warnings very carefully!
================================================================================


WARNING: Geometry Optimization
  ===> : Switching off AutoStart
         For restart on a previous wavefunction, please use MOREAD

INFO   : the flag for use of the SHARK integral package has been found!

================================================================================
                                       INPUT FILE
================================================================================
NAME = e_c_12.inp
|  1> !B3LYP DEF2-QZVP COPT FREQ D4 SOSCF
|  2> 
|  3> %geom
|  4> convergence tight
|  5> end
|  6> 
|  7> * xyz 1 1
|  8>   C   -5.68864025007199      0.74375697940424      4.02279963313618
|  9>   C   -6.14017478281601      1.48752803661525      2.89479801700060
| 10>   C   -6.03577510452864      0.96860095727281      1.61512919679120
| 11>   C   -5.47671551789388     -0.31067808542453      1.42174229638733
| 12>   C   -5.02516667533910     -1.06251571606448      2.52737726342718
| 13>   C   -5.13038656319973     -0.54172380422492      3.80827956130628
| 14>   C   -5.80219044545854      1.32185478537185      5.39342595030213
| 15>   H   -5.47568151075062      0.62058386935549      6.17291648473423
| 16>   H   -6.84190537608322      1.63110850063137      5.60405156790145
| 17>   H   -5.19467969317582      2.24286556186927      5.47547721675407
| 18>   H   -6.57338048436388      2.47867051326444      3.05213474531913
| 19>   H   -6.38467649074386      1.54541398407473      0.75588032905486
| 20>   H   -5.39272090817148     -0.72245752042804      0.41310965395308
| 21>   H   -4.59377490734198     -2.05350886881684      2.37011864130417
| 22>   H   -4.78267860356755     -1.12027465846136      4.66726950684610
| 23>   N   -10.72303025727538     -2.04355384202885    -23.95949870294162
| 24>   O   -10.31248685872961     -1.95063071645687    -22.88200324132554
| 25>   O   -10.56999081643787     -2.21775338079966    -25.09257128368711
| 26> **                         ****END OF INPUT****
================================================================================

                       *****************************
                       * Geometry Optimization Run *
                       *****************************

Geometry optimization settings:
Update method            Update   .... BFGS
Choice of coordinates    CoordSys .... Cartesian
Initial Hessian          InHess   .... Unit Matrix

Convergence Tolerances:
Energy Change            TolE     ....  1.0000e-06 Eh
Max. Gradient            TolMAXG  ....  1.0000e-04 Eh/bohr
RMS Gradient             TolRMSG  ....  3.0000e-05 Eh/bohr
Max. Displacement        TolMAXD  ....  1.0000e-03 bohr
RMS Displacement         TolRMSD  ....  6.0000e-04 bohr
Strict Convergence                ....  False
------------------------------------------------------------------------------
                        ORCA OPTIMIZATION COORDINATE SETUP
------------------------------------------------------------------------------

The optimization will be done in cartesian displacement coordinates
Initial hessian                         ....done
Number of atoms                         .... 18
Number of degrees of freedom            .... 54

         *************************************************************
         *                GEOMETRY OPTIMIZATION CYCLE   1            *
         *************************************************************
---------------------------------
CARTESIAN COORDINATES (ANGSTROEM)
---------------------------------
  C     -5.688640    0.743757    4.022800
  C     -6.140175    1.487528    2.894798
  C     -6.035775    0.968601    1.615129
  C     -5.476716   -0.310678    1.421742
  C     -5.025167   -1.062516    2.527377
  C     -5.130387   -0.541724    3.808280
  C     -5.802190    1.321855    5.393426
  H     -5.475682    0.620584    6.172916
  H     -6.841905    1.631109    5.604052
  H     -5.194680    2.242866    5.475477
  H     -6.573380    2.478671    3.052135
  H     -6.384676    1.545414    0.755880
  H     -5.392721   -0.722458    0.413110
  H     -4.593775   -2.053509    2.370119
  H     -4.782679   -1.120275    4.667270
  N    -10.723030   -2.043554  -23.959499
  O    -10.312487   -1.950631  -22.882003
  O    -10.569991   -2.217753  -25.092571

----------------------------
CARTESIAN COORDINATES (A.U.)
----------------------------
  NO LB      ZA    FRAG     MASS         X           Y           Z
   0 C     6.0000    0    12.011  -10.749972    1.405497    7.601990
   1 C     6.0000    0    12.011  -11.603249    2.811021    5.470375
   2 C     6.0000    0    12.011  -11.405962    1.830391    3.052152
   3 C     6.0000    0    12.011  -10.349492   -0.587096    2.686704
   4 C     6.0000    0    12.011   -9.496189   -2.007864    4.776051
   5 C     6.0000    0    12.011   -9.695026   -1.023710    7.196605
   6 C     6.0000    0    12.011  -10.964551    2.497944   10.192098
   7 H     1.0000    0     1.008  -10.347538    1.172734   11.665122
   8 H     1.0000    0     1.008  -12.929327    3.082348   10.590123
   9 H     1.0000    0     1.008   -9.816522    4.238402   10.347152
  10 H     1.0000    0     1.008  -12.421889    4.684008    5.767699
  11 H     1.0000    0     1.008  -12.065290    2.920409    1.428407
  12 H     1.0000    0     1.008  -10.190766   -1.365247    0.780664
  13 H     1.0000    0     1.008   -8.680976   -3.880569    4.478875
  14 H     1.0000    0     1.008   -9.037953   -2.117012    8.819861
  15 N     7.0000    0    14.007  -20.263591   -3.861757  -45.276891
  16 O     8.0000    0    15.999  -19.487776   -3.686158  -43.240720
  17 O     8.0000    0    15.999  -19.974388   -4.190947  -47.418088

--------------------------------
INTERNAL COORDINATES (ANGSTROEM)
--------------------------------
 C      0   0   0     0.000000000000     0.00000000     0.00000000
 C      1   0   0     1.424593438778     0.00000000     0.00000000
 C      2   1   0     1.384823777929   120.80682226     0.00000000
 C      3   2   1     1.409432858898   119.78943150     0.00000000
 C      4   3   2     1.411235225042   120.19700263     0.05244663
 C      5   4   3     1.386724968027   119.95436923   359.95191903
 C      1   2   3     1.491880431350   120.06735249   179.66366007
 H      7   1   2     1.098177797701   112.45997699   176.44650361
 H      7   1   2     1.104992374704   110.80476106    54.36215232
 H      7   1   2     1.106373614513   110.42103437   297.67304598
 H      2   1   3     1.093062411278   119.01613765   179.96015196
 H      3   2   1     1.092132804149   120.33298066   179.98294088
 H      4   3   2     1.092683487996   119.94687951   180.02511024
 H      5   4   3     1.092198040893   119.79913350   179.94888148
 H      6   5   4     1.092467684954   120.21490623   179.96716306
 N     13   4   3    24.983625264694   154.69295727   342.92350195
 O     16  13   4     1.156796031787     8.64691898   118.80272079
 O     16  13   4     1.156555239925   159.30403589   146.22675432

---------------------------
INTERNAL COORDINATES (A.U.)
---------------------------
 C      0   0   0     0.000000000000     0.00000000     0.00000000
 C      1   0   0     2.692091451472     0.00000000     0.00000000
 C      2   1   0     2.616937684028   120.80682226     0.00000000
 C      3   2   1     2.663442107466   119.78943150     0.00000000
 C      4   3   2     2.666848085873   120.19700263     0.05244663
 C      5   4   3     2.620530412643   119.95436923   359.95191903
 C      1   2   3     2.819245439808   120.06735249   179.66366007
 H      7   1   2     2.075255284008   112.45997699   176.44650361
 H      7   1   2     2.088132968263   110.80476106    54.36215232
 H      7   1   2     2.090743133226   110.42103437   297.67304598
 H      2   1   3     2.065588604600   119.01613765   179.96015196
 H      3   2   1     2.063831901712   120.33298066   179.98294088
 H      4   3   2     2.064872543369   119.94687951   180.02511024
 H      5   4   3     2.063955181292   119.79913350   179.94888148
 H      6   5   4     2.064464734721   120.21490623   179.96716306
 N     13   4   3    47.212209582788   154.69295727   342.92350195
 O     16  13   4     2.186027692885     8.64691898   118.80272079
 O     16  13   4     2.185572662209   159.30403589   146.22675432

---------------------
BASIS SET INFORMATION
---------------------
There are 4 groups of distinct atoms

 Group   1 Type C   : 15s8p3d2f1g contracted to 7s4p3d2f1g pattern {8211111/5111/111/11/1}
 Group   2 Type H   : 7s3p2d1f contracted to 4s3p2d1f pattern {4111/111/11/1}
 Group   3 Type N   : 15s8p3d2f1g contracted to 7s4p3d2f1g pattern {8211111/5111/111/11/1}
 Group   4 Type O   : 15s8p3d2f1g contracted to 7s4p3d2f1g pattern {8211111/5111/111/11/1}

Atom   0C    basis set group =>   1
Atom   1C    basis set group =>   1
Atom   2C    basis set group =>   1
Atom   3C    basis set group =>   1
Atom   4C    basis set group =>   1
Atom   5C    basis set group =>   1
Atom   6C    basis set group =>   1
Atom   7H    basis set group =>   2
Atom   8H    basis set group =>   2
Atom   9H    basis set group =>   2
Atom  10H    basis set group =>   2
Atom  11H    basis set group =>   2
Atom  12H    basis set group =>   2
Atom  13H    basis set group =>   2
Atom  14H    basis set group =>   2
Atom  15N    basis set group =>   3
Atom  16O    basis set group =>   4
Atom  17O    basis set group =>   4
---------------------------------
AUXILIARY/J BASIS SET INFORMATION
---------------------------------
There are 4 groups of distinct atoms

 Group   1 Type C   : 12s5p4d2f1g contracted to 6s4p3d1f1g pattern {711111/2111/211/2/1}
 Group   2 Type H   : 5s2p1d contracted to 3s1p1d pattern {311/2/1}
 Group   3 Type N   : 12s5p4d2f1g contracted to 6s4p3d1f1g pattern {711111/2111/211/2/1}
 Group   4 Type O   : 12s5p4d2f1g contracted to 6s4p3d1f1g pattern {711111/2111/211/2/1}

Atom   0C    basis set group =>   1
Atom   1C    basis set group =>   1
Atom   2C    basis set group =>   1
Atom   3C    basis set group =>   1
Atom   4C    basis set group =>   1
Atom   5C    basis set group =>   1
Atom   6C    basis set group =>   1
Atom   7H    basis set group =>   2
Atom   8H    basis set group =>   2
Atom   9H    basis set group =>   2
Atom  10H    basis set group =>   2
Atom  11H    basis set group =>   2
Atom  12H    basis set group =>   2
Atom  13H    basis set group =>   2
Atom  14H    basis set group =>   2
Atom  15N    basis set group =>   3
Atom  16O    basis set group =>   4
Atom  17O    basis set group =>   4
------------------------------------------------------------------------------
                           ORCA GTO INTEGRAL CALCULATION
                           -- RI-GTO INTEGRALS CHOSEN --
------------------------------------------------------------------------------
------------------------------------------------------------------------------
                   ___                                                        
                  /   \      - P O W E R E D   B Y -                         
                 /     \                                                     
                 |  |  |   _    _      __       _____    __    __             
                 |  |  |  | |  | |    /  \     |  _  \  |  |  /  |          
                  \  \/   | |  | |   /    \    | | | |  |  | /  /          
                 / \  \   | |__| |  /  /\  \   | |_| |  |  |/  /          
                |  |  |   |  __  | /  /__\  \  |    /   |      \           
                |  |  |   | |  | | |   __   |  |    \   |  |\   \          
                \     /   | |  | | |  |  |  |  | |\  \  |  | \   \       
                 \___/    |_|  |_| |__|  |__|  |_| \__\ |__|  \__/        
                                                                              
                      - O R C A' S   B I G   F R I E N D -                    
                                      &                                       
                       - I N T E G R A L  F E E D E R -                       
                                                                              
 v1 FN, 2020, v2 2021                                                         
------------------------------------------------------------------------------


Reading SHARK input file e_c_12.SHARKINP.tmp ... ok
----------------------
SHARK INTEGRAL PACKAGE
----------------------

Number of atoms                             ...     18
Number of basis functions                   ...    810
Number of shells                            ...    250
Maximum angular momentum                    ...      4
Integral batch strategy                     ... SHARK/LIBINT Hybrid
RI-J (if used) integral strategy            ... SPLIT-RIJ (Revised 2003 algorithm where possible)
Printlevel                                  ...      1
Contraction scheme used                     ... SEGMENTED contraction
Coulomb Range Separation                    ... NOT USED
Exchange Range Separation                   ... NOT USED
Finite Nucleus Model                        ... NOT USED
Auxiliary Coulomb fitting basis             ... AVAILABLE
   # of basis functions in Aux-J            ...    578
   # of shells in Aux-J                     ...    190
   Maximum angular momentum in Aux-J        ...      4
Auxiliary J/K fitting basis                 ... NOT available
Auxiliary Correlation fitting basis         ... NOT available
Auxiliary 'external' fitting basis          ... NOT available
Integral threshold                          ...     2.500000e-11
Primitive cut-off                           ...     2.500000e-12
Primitive pair pre-selection threshold      ...     2.500000e-12

Calculating pre-screening integrals         ... done (  1.6 sec) Dimension = 250
Organizing shell pair data                  ... done (  1.0 sec)
Shell pair information
Total number of shell pairs                 ...     31375
Shell pairs after pre-screening             ...     18553
Total number of primitive shell pairs       ...     78253
Primitive shell pairs kept                  ...     35583
          la=0 lb=0:   2942 shell pairs
          la=1 lb=0:   3953 shell pairs
          la=1 lb=1:   1344 shell pairs
          la=2 lb=0:   2709 shell pairs
          la=2 lb=1:   1829 shell pairs
          la=2 lb=2:    644 shell pairs
          la=3 lb=0:   1628 shell pairs
          la=3 lb=1:   1091 shell pairs
          la=3 lb=2:    750 shell pairs
          la=3 lb=3:    239 shell pairs
          la=4 lb=0:    588 shell pairs
          la=4 lb=1:    375 shell pairs
          la=4 lb=2:    266 shell pairs
          la=4 lb=3:    161 shell pairs
          la=4 lb=4:     34 shell pairs

Calculating one electron integrals          ... done (  0.3 sec)
Calculating RI/J V-Matrix + Cholesky decomp.... done (  0.1 sec)
Calculating Nuclear repulsion               ... done (  0.0 sec) ENN=    356.187175865595 Eh

SHARK setup successfully completed in   5.1 seconds

Maximum memory used throughout the entire GTOINT-calculation: 616.0 MB
-------------------------------------------------------------------------------
                                 ORCA SCF
-------------------------------------------------------------------------------

------------
SCF SETTINGS
------------
Hamiltonian:
 Density Functional     Method          .... DFT(GTOs)
 Exchange Functional    Exchange        .... B88
   X-Alpha parameter    XAlpha          ....  0.666667
   Becke's b parameter  XBeta           ....  0.004200
 Correlation Functional Correlation     .... LYP
 LDA part of GGA corr.  LDAOpt          .... VWN-5
 Gradients option       PostSCFGGA      .... off
 Hybrid DFT is turned on
   Fraction HF Exchange ScalHFX         ....  0.200000
   Scaling of DF-GGA-X  ScalDFX         ....  0.720000
   Scaling of DF-GGA-C  ScalDFC         ....  0.810000
   Scaling of DF-LDA-C  ScalLDAC        ....  1.000000
   Perturbative correction              ....  0.000000
   Density functional embedding theory  .... OFF
   NL short-range parameter             ....  4.800000
 RI-approximation to the Coulomb term is turned on
   Number of AuxJ basis functions       .... 578
   RIJ-COSX (HFX calculated with COS-X)).... on


General Settings:
 Integral files         IntName         .... e_c_12
 Hartree-Fock type      HFTyp           .... RHF
 Total Charge           Charge          ....    1
 Multiplicity           Mult            ....    1
 Number of Electrons    NEL             ....   72
 Basis Dimension        Dim             ....  810
 Nuclear Repulsion      ENuc            ....    356.1871758656 Eh

Convergence Acceleration:
 DIIS                   CNVDIIS         .... on
   Start iteration      DIISMaxIt       ....    12
   Startup error        DIISStart       ....  0.200000
   # of expansion vecs  DIISMaxEq       ....     5
   Bias factor          DIISBfac        ....   1.050
   Max. coefficient     DIISMaxC        ....  10.000
 Trust-Rad. Augm. Hess. CNVTRAH         .... auto
   Auto Start mean grad. ratio tolernc. ....  1.125000
   Auto Start start iteration           ....    20
   Auto Start num. interpolation iter.  ....    10
   Max. Number of Micro iterations      ....    16
   Max. Number of Macro iterations      .... Maxiter - #DIIS iter
   Number of Davidson start vectors     ....     2
   Converg. threshold I  (grad. norm)   ....   1.000e-05
   Converg. threshold II (energy diff.) ....   1.000e-08
   Grad. Scal. Fac. for Micro threshold ....   0.100
   Minimum threshold for Micro iter.    ....   0.010
   NR start threshold (gradient norm)   ....   0.001
   Initial trust radius                 ....   0.400
   Minimum AH scaling param. (alpha)    ....   1.000
   Maximum AH scaling param. (alpha)    .... 1000.000
   Orbital update algorithm             .... Taylor
   White noise on init. David. guess    .... on
   Maximum white noise                  ....   0.010
   Quad. conv. algorithm                .... NR
 SOSCF                  CNVSOSCF        .... on
   Start iteration      SOSCFMaxIt      ....   150
   Startup grad/error   SOSCFStart      ....  0.003300
 Level Shifting         CNVShift        .... on
   Level shift para.    LevelShift      ....    0.2500
   Turn off err/grad.   ShiftErr        ....    0.0010
 Zerner damping         CNVZerner       .... off
 Static damping         CNVDamp         .... on
   Fraction old density DampFac         ....    0.7000
   Max. Damping (<1)    DampMax         ....    0.9800
   Min. Damping (>=0)   DampMin         ....    0.0000
   Turn off err/grad.   DampErr         ....    0.1000
 Fernandez-Rico         CNVRico         .... off

SCF Procedure:
 Maximum # iterations   MaxIter         ....   125
 SCF integral mode      SCFMode         .... Direct
   Integral package                     .... SHARK and LIBINT hybrid scheme
 Reset frequency        DirectResetFreq ....    20
 Integral Threshold     Thresh          ....  2.500e-11 Eh
 Primitive CutOff       TCut            ....  2.500e-12 Eh

Convergence Tolerance:
 Convergence Check Mode ConvCheckMode   .... Total+1el-Energy
 Convergence forced     ConvForced      .... 0
 Energy Change          TolE            ....  1.000e-08 Eh
 1-El. energy change                    ....  1.000e-05 Eh
 Orbital Gradient       TolG            ....  1.000e-05
 Orbital Rotation angle TolX            ....  1.000e-05
 DIIS Error             TolErr          ....  5.000e-07


Diagonalization of the overlap matrix:
Smallest eigenvalue                        ... 7.129e-06
Time for diagonalization                   ...    0.326 sec
Threshold for overlap eigenvalues          ... 1.000e-08
Number of eigenvalues below threshold      ... 0
Time for construction of square roots      ...    0.116 sec
Total time needed                          ...    0.444 sec

Time for model grid setup =    0.910 sec

------------------------------
INITIAL GUESS: MODEL POTENTIAL
------------------------------
Loading Hartree-Fock densities                     ... done
Calculating cut-offs                               ... done
Initializing the effective Hamiltonian             ... done
Setting up the integral package (SHARK)            ... done
Starting the Coulomb interaction                   ... done (   2.8 sec)
Reading the grid                                   ... done
Mapping shells                                     ... done
Starting the XC term evaluation                    ... done (   2.5 sec)
  promolecular density results
     # of electrons  =     72.993350174
     EX              =    -61.286171199
     EC              =     -2.469389709
     EX+EC           =    -63.755560907
Transforming the Hamiltonian                       ... done (   0.1 sec)
Diagonalizing the Hamiltonian                      ... done (   0.2 sec)
Back transforming the eigenvectors                 ... done (   0.0 sec)
Now organizing SCF variables                       ... done
                      ------------------
                      INITIAL GUESS DONE (   6.6 sec)
                      ------------------
-------------------
DFT GRID GENERATION
-------------------

General Integration Accuracy     IntAcc      ... 4.388
Radial Grid Type                 RadialGrid  ... OptM3 with GC (2021)
Angular Grid (max. ang.)         AngularGrid ... 4 (Lebedev-302)
Angular grid pruning method      GridPruning ... 4 (adaptive)
Weight generation scheme         WeightScheme... Becke
Basis function cutoff            BFCut       ... 1.0000e-11
Integration weight cutoff        WCut        ... 1.0000e-14
Angular grids for H and He will be reduced by one unit
Partially contracted basis set               ... off
Rotationally invariant grid construction     ... off

Total number of grid points                  ...    89093
Total number of batches                      ...     1400
Average number of points per batch           ...       63
Average number of grid points per atom       ...     4950
Time for grid setup =    2.188 sec

--------------------
COSX GRID GENERATION
--------------------

GRIDX 1
-------
General Integration Accuracy     IntAcc      ... 3.816
Radial Grid Type                 RadialGrid  ... OptM3 with GC (2021)
Angular Grid (max. ang.)         AngularGrid ... 1 (Lebedev-50)
Angular grid pruning method      GridPruning ... 4 (adaptive)
Weight generation scheme         WeightScheme... Becke
Basis function cutoff            BFCut       ... 1.0000e-11
Integration weight cutoff        WCut        ... 1.0000e-14
Angular grids for H and He will be reduced by one unit
Partially contracted basis set               ... on
Rotationally invariant grid construction     ... off

Total number of grid points                  ...    11440
Total number of batches                      ...      189
Average number of points per batch           ...       60
Average number of grid points per atom       ...      636
UseSFitting                                  ... on

GRIDX 2
-------
General Integration Accuracy     IntAcc      ... 4.020
Radial Grid Type                 RadialGrid  ... OptM3 with GC (2021)
Angular Grid (max. ang.)         AngularGrid ... 2 (Lebedev-110)
Angular grid pruning method      GridPruning ... 4 (adaptive)
Weight generation scheme         WeightScheme... Becke
Basis function cutoff            BFCut       ... 1.0000e-11
Integration weight cutoff        WCut        ... 1.0000e-14
Angular grids for H and He will be reduced by one unit
Partially contracted basis set               ... on
Rotationally invariant grid construction     ... off

Total number of grid points                  ...    27817
Total number of batches                      ...      445
Average number of points per batch           ...       62
Average number of grid points per atom       ...     1545
UseSFitting                                  ... on

GRIDX 3
-------
General Integration Accuracy     IntAcc      ... 4.338
Radial Grid Type                 RadialGrid  ... OptM3 with GC (2021)
Angular Grid (max. ang.)         AngularGrid ... 3 (Lebedev-194)
Angular grid pruning method      GridPruning ... 4 (adaptive)
Weight generation scheme         WeightScheme... Becke
Basis function cutoff            BFCut       ... 1.0000e-11
Integration weight cutoff        WCut        ... 1.0000e-14
Angular grids for H and He will be reduced by one unit
Partially contracted basis set               ... on
Rotationally invariant grid construction     ... off

Total number of grid points                  ...    59992
Total number of batches                      ...      947
Average number of points per batch           ...       63
Average number of grid points per atom       ...     3333
UseSFitting                                  ... on

Time for X-Grid setup             =    4.926 sec

--------------
SCF ITERATIONS
--------------
ITER       Energy         Delta-E        Max-DP      RMS-DP      [F,P]     Damp
               ***  Starting incremental Fock matrix formation  ***
  0   -475.8918153308   0.000000000000 0.10427769  0.00069686  0.2074580 0.7000
  1   -475.9175544625  -0.025739131676 0.03161037  0.00023551  0.1430103 0.7000
                               ***Turning on DIIS***
  2   -476.1008258591  -0.183271396543 0.07125565  0.00050081  0.0373497 0.0000
  3   -476.1412783827  -0.040452523639 0.00616436  0.00003676  0.1282904 0.7000
  4   -476.1556882222  -0.014409839517 0.00690284  0.00004134  0.1111225 0.7000
  5   -476.1690263677  -0.013338145524 0.02682536  0.00015521  0.0945214 0.0000
  6   -476.2050382266  -0.036011858820 0.01901461  0.00010214  0.0388077 0.0000
  7   -476.2119110363  -0.006872809778 0.00622733  0.00005186  0.0112451 0.0000
  8   -476.2125095287  -0.000598492360 0.00191937  0.00002303  0.0095382 0.0000
                      *** Initiating the SOSCF procedure ***
                           *** Shutting down DIIS ***
                      *** Re-Reading the Fockian *** 
                      *** Removing any level shift *** 
ITER      Energy       Delta-E        Grad      Rot      Max-DP    RMS-DP
  9   -476.21264621  -0.0001366774  0.000490  0.000490  0.000871  0.000010
               *** Restarting incremental Fock matrix formation ***
 10   -476.21265925  -0.0000130404  0.000697  0.002380  0.000997  0.000010
 11   -476.21263015   0.0000290999  0.002974  0.002056  0.000728  0.000004
 12   -476.21266146  -0.0000313169  0.000255  0.000510  0.000296  0.000001
 13   -476.21266005   0.0000014116  0.000644  0.000368  0.000220  0.000001
 14   -476.21266177  -0.0000017204  0.000008  0.000031  0.000036  0.000000
 15   -476.21266177   0.0000000066  0.000012  0.000021  0.000016  0.000000
                  ***Gradient check signals convergence***
              ***Rediagonalizing the Fockian in SOSCF/NRSCF***

               *****************************************************
               *                     SUCCESS                       *
               *           SCF CONVERGED AFTER  16 CYCLES          *
               *****************************************************

Old exchange energy                            =    -12.299399416 Eh
New exchange energy                            =    -12.299402578 Eh
Exchange energy change after final integration =     -0.000003161 Eh
Total energy after final integration           =   -476.212664929 Eh
Final COS-X integration done in                =   130.667 sec

----------------
TOTAL SCF ENERGY
----------------

Total Energy       :         -476.21266493 Eh          -12958.40541 eV

Components:
Nuclear Repulsion  :          356.18717587 Eh            9692.34580 eV
Electronic Energy  :         -832.39984079 Eh          -22650.75121 eV
One Electron Energy:        -1340.64232131 Eh          -36480.73221 eV
Two Electron Energy:          508.24248051 Eh           13829.98100 eV
Max COSX asymmetry :            0.00000069 Eh               0.00002 eV

Virial components:
Potential Energy   :         -949.93301994 Eh          -25848.99161 eV
Kinetic Energy     :          473.72035502 Eh           12890.58620 eV
Virial Ratio       :            2.00526114


DFT components:
N(Alpha)           :       35.999997342816 electrons
N(Beta)            :       35.999997342816 electrons
N(Total)           :       71.999994685632 electrons
E(X)               :      -49.031436452841 Eh       
E(C)               :       -2.881713083480 Eh       
E(XC)              :      -51.913149536321 Eh       
DFET-embed. en.    :        0.000000000000 Eh       

---------------
SCF CONVERGENCE
---------------

  Last Energy change         ...   -2.3449e-09  Tolerance :   1.0000e-08
  Last MAX-Density change    ...    1.5543e-15  Tolerance :   1.0000e-07
  Last RMS-Density change    ...    6.0787e-18  Tolerance :   5.0000e-09
  Last Orbital Gradient      ...    2.1353e-06  Tolerance :   1.0000e-05
  Last Orbital Rotation      ...    6.8371e-06  Tolerance :   1.0000e-05

             **** THE GBW FILE WAS UPDATED (e_c_12.gbw) ****
             **** DENSITY e_c_12.scfp WAS UPDATED ****
             **** ENERGY FILE WAS UPDATED (e_c_12.en.tmp) ****
             **** THE GBW FILE WAS UPDATED (e_c_12.gbw) ****
             **** DENSITY e_c_12.scfp WAS UPDATED ****
----------------
ORBITAL ENERGIES
----------------

  NO   OCC          E(Eh)            E(eV) 
   0   2.0000     -19.656307      -534.8753 
   1   2.0000     -19.656244      -534.8736 
   2   2.0000     -14.986780      -407.8110 
   3   2.0000     -10.207568      -277.7620 
   4   2.0000     -10.196846      -277.4703 
   5   2.0000     -10.196486      -277.4605 
   6   2.0000     -10.195708      -277.4393 
   7   2.0000     -10.194204      -277.3984 
   8   2.0000     -10.193858      -277.3890 
   9   2.0000     -10.189446      -277.2689 
  10   2.0000      -1.686902       -45.9029 
  11   2.0000      -1.563941       -42.5570 
  12   2.0000      -1.020485       -27.7688 
  13   2.0000      -0.958978       -26.0951 
  14   2.0000      -0.957241       -26.0479 
  15   2.0000      -0.939263       -25.5586 
  16   2.0000      -0.869894       -23.6710 
  17   2.0000      -0.786977       -21.4147 
  18   2.0000      -0.763451       -20.7746 
  19   2.0000      -0.754266       -20.5246 
  20   2.0000      -0.749398       -20.3922 
  21   2.0000      -0.699222       -19.0268 
  22   2.0000      -0.619177       -16.8487 
  23   2.0000      -0.600652       -16.3446 
  24   2.0000      -0.526292       -14.3211 
  25   2.0000      -0.478121       -13.0103 
  26   2.0000      -0.472870       -12.8675 
  27   2.0000      -0.440266       -11.9802 
  28   2.0000      -0.436621       -11.8811 
  29   2.0000      -0.422958       -11.5093 
  30   2.0000      -0.404085       -10.9957 
  31   2.0000      -0.371942       -10.1211 
  32   2.0000      -0.363850        -9.9008 
  33   2.0000      -0.355677        -9.6785 
  34   2.0000      -0.275472        -7.4960 
  35   2.0000      -0.258009        -7.0208 
  36   0.0000      -0.498739       -13.5714 
  37   0.0000      -0.434777       -11.8309 
  38   0.0000      -0.207271        -5.6401 
  39   0.0000      -0.070924        -1.9299 
  40   0.0000      -0.069949        -1.9034 
  41   0.0000      -0.069792        -1.8991 
  42   0.0000      -0.045841        -1.2474 
  43   0.0000      -0.035824        -0.9748 
  44   0.0000      -0.029627        -0.8062 
  45   0.0000       0.004814         0.1310 
  46   0.0000       0.017172         0.4673 
  47   0.0000       0.017561         0.4779 
  48   0.0000       0.026908         0.7322 
  49   0.0000       0.039500         1.0748 
  50   0.0000       0.048128         1.3096 
  51   0.0000       0.056890         1.5481 
  52   0.0000       0.057142         1.5549 
  53   0.0000       0.065831         1.7913 
  54   0.0000       0.072745         1.9795 
  55   0.0000       0.077072         2.0972 
  56   0.0000       0.098299         2.6748 
  57   0.0000       0.102364         2.7855 
  58   0.0000       0.109702         2.9851 
  59   0.0000       0.118264         3.2181 
  60   0.0000       0.119426         3.2497 
  61   0.0000       0.120005         3.2655 
  62   0.0000       0.128646         3.5006 
  63   0.0000       0.128716         3.5025 
  64   0.0000       0.133159         3.6234 
  65   0.0000       0.152310         4.1446 
  66   0.0000       0.153304         4.1716 
  67   0.0000       0.160598         4.3701 
  68   0.0000       0.177646         4.8340 
  69   0.0000       0.180534         4.9126 
  70   0.0000       0.200368         5.4523 
  71   0.0000       0.219319         5.9680 
  72   0.0000       0.228482         6.2173 
  73   0.0000       0.234977         6.3941 
  74   0.0000       0.240391         6.5414 
  75   0.0000       0.245535         6.6814 
  76   0.0000       0.247391         6.7319 
  77   0.0000       0.262998         7.1565 
  78   0.0000       0.268139         7.2964 
  79   0.0000       0.272310         7.4099 
  80   0.0000       0.274336         7.4651 
  81   0.0000       0.278984         7.5915 
  82   0.0000       0.287001         7.8097 
  83   0.0000       0.293651         7.9906 
  84   0.0000       0.306744         8.3469 
  85   0.0000       0.310385         8.4460 
  86   0.0000       0.311746         8.4830 
  87   0.0000       0.316171         8.6034 
  88   0.0000       0.320158         8.7119 
  89   0.0000       0.327151         8.9022 
  90   0.0000       0.335799         9.1376 
  91   0.0000       0.348561         9.4848 
  92   0.0000       0.350792         9.5455 
  93   0.0000       0.376039        10.2325 
  94   0.0000       0.391491        10.6530 
  95   0.0000       0.407294        11.0830 
  96   0.0000       0.409702        11.1486 
  97   0.0000       0.431048        11.7294 
  98   0.0000       0.442315        12.0360 
  99   0.0000       0.464039        12.6271 
 100   0.0000       0.464297        12.6342 
 101   0.0000       0.468326        12.7438 
 102   0.0000       0.479955        13.0602 
 103   0.0000       0.493741        13.4354 
 104   0.0000       0.496825        13.5193 
 105   0.0000       0.501049        13.6342 
 106   0.0000       0.510418        13.8892 
 107   0.0000       0.511691        13.9238 
 108   0.0000       0.518908        14.1202 
 109   0.0000       0.545566        14.8456 
 110   0.0000       0.555127        15.1058 
 111   0.0000       0.556630        15.1467 
 112   0.0000       0.563225        15.3261 
 113   0.0000       0.577964        15.7272 
 114   0.0000       0.597273        16.2526 
 115   0.0000       0.598760        16.2931 
 116   0.0000       0.608059        16.5461 
 117   0.0000       0.615962        16.7612 
 118   0.0000       0.627945        17.0873 
 119   0.0000       0.643060        17.4986 
 120   0.0000       0.649522        17.6744 
 121   0.0000       0.657954        17.9038 
 122   0.0000       0.672179        18.2909 
 123   0.0000       0.684469        18.6254 
 124   0.0000       0.690263        18.7830 
 125   0.0000       0.697429        18.9780 
 126   0.0000       0.698201        18.9990 
 127   0.0000       0.704917        19.1818 
 128   0.0000       0.711380        19.3576 
 129   0.0000       0.720621        19.6091 
 130   0.0000       0.722431        19.6583 
 131   0.0000       0.730909        19.8890 
 132   0.0000       0.741278        20.1712 
 133   0.0000       0.742216        20.1967 
 134   0.0000       0.744699        20.2643 
 135   0.0000       0.745057        20.2740 
 136   0.0000       0.747871        20.3506 
 137   0.0000       0.788395        21.4533 
 138   0.0000       0.798113        21.7178 
 139   0.0000       0.805393        21.9159 
 140   0.0000       0.806327        21.9413 
 141   0.0000       0.809231        22.0203 
 142   0.0000       0.812666        22.1138 
 143   0.0000       0.832291        22.6478 
 144   0.0000       0.839906        22.8550 
 145   0.0000       0.847091        23.0505 
 146   0.0000       0.864984        23.5374 
 147   0.0000       0.874105        23.7856 
 148   0.0000       0.879079        23.9210 
 149   0.0000       0.884139        24.0586 
 150   0.0000       0.892944        24.2982 
 151   0.0000       0.897212        24.4144 
 152   0.0000       0.907717        24.7002 
 153   0.0000       0.910674        24.7807 
 154   0.0000       0.919493        25.0207 
 155   0.0000       0.920628        25.0516 
 156   0.0000       0.928680        25.2707 
 157   0.0000       0.958107        26.0714 
 158   0.0000       0.965435        26.2708 
 159   0.0000       0.966709        26.3055 
 160   0.0000       0.969371        26.3779 
 161   0.0000       0.989970        26.9384 
 162   0.0000       0.992092        26.9962 
 163   0.0000       1.001553        27.2536 
 164   0.0000       1.004384        27.3307 
 165   0.0000       1.012981        27.5646 
 166   0.0000       1.020631        27.7728 
 167   0.0000       1.034314        28.1451 
 168   0.0000       1.036093        28.1935 
 169   0.0000       1.036272        28.1984 
 170   0.0000       1.043093        28.3840 
 171   0.0000       1.044657        28.4266 
 172   0.0000       1.053731        28.6735 
 173   0.0000       1.061295        28.8793 
 174   0.0000       1.068016        29.0622 
 175   0.0000       1.068521        29.0759 
 176   0.0000       1.097531        29.8653 
 177   0.0000       1.099910        29.9301 
 178   0.0000       1.105576        30.0843 
 179   0.0000       1.110113        30.2077 
 180   0.0000       1.125706        30.6320 
 181   0.0000       1.147180        31.2164 
 182   0.0000       1.161659        31.6104 
 183   0.0000       1.168067        31.7847 
 184   0.0000       1.200925        32.6788 
 185   0.0000       1.211132        32.9566 
 186   0.0000       1.230220        33.4760 
 187   0.0000       1.232695        33.5433 
 188   0.0000       1.236163        33.6377 
 189   0.0000       1.256464        34.1901 
 190   0.0000       1.282901        34.9095 
 191   0.0000       1.290749        35.1231 
 192   0.0000       1.314237        35.7622 
 193   0.0000       1.325524        36.0693 
 194   0.0000       1.329789        36.1854 
 195   0.0000       1.344312        36.5806 
 196   0.0000       1.370409        37.2907 
 197   0.0000       1.381449        37.5911 
 198   0.0000       1.395017        37.9603 
 199   0.0000       1.413463        38.4623 
 200   0.0000       1.425717        38.7957 
 201   0.0000       1.452954        39.5369 
 202   0.0000       1.482427        40.3389 
 203   0.0000       1.491460        40.5847 
 204   0.0000       1.516556        41.2676 
 205   0.0000       1.525559        41.5126 
 206   0.0000       1.547389        42.1066 
 207   0.0000       1.564219        42.5646 
 208   0.0000       1.575283        42.8656 
 209   0.0000       1.581410        43.0324 
 210   0.0000       1.613015        43.8924 
 211   0.0000       1.614989        43.9461 
 212   0.0000       1.633246        44.4429 
 213   0.0000       1.650589        44.9148 
 214   0.0000       1.675128        45.5825 
 215   0.0000       1.684633        45.8412 
 216   0.0000       1.713214        46.6189 
 217   0.0000       1.722189        46.8631 
 218   0.0000       1.732619        47.1469 
 219   0.0000       1.733894        47.1817 
 220   0.0000       1.742246        47.4089 
 221   0.0000       1.768824        48.1322 
 222   0.0000       1.770876        48.1880 
 223   0.0000       1.782051        48.4921 
 224   0.0000       1.790087        48.7108 
 225   0.0000       1.804903        49.1139 
 226   0.0000       1.805776        49.1377 
 227   0.0000       1.812567        49.3225 
 228   0.0000       1.832784        49.8726 
 229   0.0000       1.841391        50.1068 
 230   0.0000       1.872607        50.9562 
 231   0.0000       1.876383        51.0590 
 232   0.0000       1.888154        51.3793 
 233   0.0000       1.895409        51.5767 
 234   0.0000       1.914262        52.0897 
 235   0.0000       1.915455        52.1222 
 236   0.0000       1.926368        52.4191 
 237   0.0000       1.929215        52.4966 
 238   0.0000       1.932298        52.5805 
 239   0.0000       1.937473        52.7213 
 240   0.0000       1.943465        52.8844 
 241   0.0000       1.956835        53.2482 
 242   0.0000       1.970421        53.6179 
 243   0.0000       1.977923        53.8220 
 244   0.0000       1.994152        54.2636 
 245   0.0000       2.014931        54.8291 
 246   0.0000       2.027615        55.1742 
 247   0.0000       2.041903        55.5630 
 248   0.0000       2.042613        55.5823 
 249   0.0000       2.048503        55.7426 
 250   0.0000       2.056364        55.9565 
 251   0.0000       2.070667        56.3457 
 252   0.0000       2.088722        56.8370 
 253   0.0000       2.095877        57.0317 
 254   0.0000       2.103836        57.2483 
 255   0.0000       2.106217        57.3131 
 256   0.0000       2.112623        57.4874 
 257   0.0000       2.117797        57.6282 
 258   0.0000       2.130341        57.9695 
 259   0.0000       2.144419        58.3526 
 260   0.0000       2.162814        58.8531 
 261   0.0000       2.172868        59.1267 
 262   0.0000       2.175876        59.2086 
 263   0.0000       2.186111        59.4871 
 264   0.0000       2.186762        59.5048 
 265   0.0000       2.189100        59.5684 
 266   0.0000       2.201083        59.8945 
 267   0.0000       2.230751        60.7018 
 268   0.0000       2.234970        60.8166 
 269   0.0000       2.239926        60.9515 
 270   0.0000       2.245703        61.1087 
 271   0.0000       2.249259        61.2054 
 272   0.0000       2.258174        61.4480 
 273   0.0000       2.263146        61.5833 
 274   0.0000       2.264874        61.6304 
 275   0.0000       2.279346        62.0242 
 276   0.0000       2.288136        62.2633 
 277   0.0000       2.313428        62.9516 
 278   0.0000       2.318358        63.0857 
 279   0.0000       2.338752        63.6407 
 280   0.0000       2.341129        63.7054 
 281   0.0000       2.348475        63.9053 
 282   0.0000       2.364685        64.3464 
 283   0.0000       2.373244        64.5793 
 284   0.0000       2.377789        64.7029 
 285   0.0000       2.405450        65.4556 
 286   0.0000       2.415216        65.7214 
 287   0.0000       2.429734        66.1164 
 288   0.0000       2.432661        66.1961 
 289   0.0000       2.435126        66.2632 
 290   0.0000       2.439950        66.3944 
 291   0.0000       2.447450        66.5985 
 292   0.0000       2.471540        67.2540 
 293   0.0000       2.479510        67.4709 
 294   0.0000       2.490240        67.7629 
 295   0.0000       2.494978        67.8918 
 296   0.0000       2.524634        68.6988 
 297   0.0000       2.528512        68.8043 
 298   0.0000       2.532383        68.9096 
 299   0.0000       2.549171        69.3665 
 300   0.0000       2.556391        69.5629 
 301   0.0000       2.570071        69.9352 
 302   0.0000       2.572987        70.0145 
 303   0.0000       2.589973        70.4767 
 304   0.0000       2.593648        70.5768 
 305   0.0000       2.605152        70.8898 
 306   0.0000       2.616652        71.2027 
 307   0.0000       2.620162        71.2982 
 308   0.0000       2.625863        71.4534 
 309   0.0000       2.630024        71.5666 
 310   0.0000       2.635290        71.7099 
 311   0.0000       2.664676        72.5095 
 312   0.0000       2.676197        72.8230 
 313   0.0000       2.683713        73.0275 
 314   0.0000       2.686075        73.0918 
 315   0.0000       2.696923        73.3870 
 316   0.0000       2.699321        73.4523 
 317   0.0000       2.702311        73.5336 
 318   0.0000       2.703098        73.5550 
 319   0.0000       2.719918        74.0127 
 320   0.0000       2.734520        74.4101 
 321   0.0000       2.741472        74.5992 
 322   0.0000       2.762933        75.1832 
 323   0.0000       2.779673        75.6388 
 324   0.0000       2.784311        75.7649 
 325   0.0000       2.800209        76.1976 
 326   0.0000       2.803599        76.2898 
 327   0.0000       2.813687        76.5643 
 328   0.0000       2.827405        76.9376 
 329   0.0000       2.840123        77.2837 
 330   0.0000       2.848470        77.5108 
 331   0.0000       2.860550        77.8395 
 332   0.0000       2.870386        78.1072 
 333   0.0000       2.875970        78.2591 
 334   0.0000       2.911460        79.2249 
 335   0.0000       2.918098        79.4055 
 336   0.0000       2.932112        79.7868 
 337   0.0000       2.945135        80.1412 
 338   0.0000       2.978925        81.0607 
 339   0.0000       2.981816        81.1393 
 340   0.0000       2.996593        81.5414 
 341   0.0000       3.020164        82.1829 
 342   0.0000       3.026777        82.3628 
 343   0.0000       3.056923        83.1831 
 344   0.0000       3.069514        83.5257 
 345   0.0000       3.077017        83.7299 
 346   0.0000       3.079231        83.7901 
 347   0.0000       3.100721        84.3749 
 348   0.0000       3.124035        85.0093 
 349   0.0000       3.135209        85.3134 
 350   0.0000       3.143262        85.5325 
 351   0.0000       3.147921        85.6593 
 352   0.0000       3.174110        86.3719 
 353   0.0000       3.188895        86.7742 
 354   0.0000       3.218749        87.5866 
 355   0.0000       3.231860        87.9434 
 356   0.0000       3.241229        88.1983 
 357   0.0000       3.251330        88.4732 
 358   0.0000       3.274900        89.1146 
 359   0.0000       3.291647        89.5703 
 360   0.0000       3.303093        89.8817 
 361   0.0000       3.313781        90.1726 
 362   0.0000       3.317957        90.2862 
 363   0.0000       3.319654        90.3324 
 364   0.0000       3.330978        90.6405 
 365   0.0000       3.342070        90.9424 
 366   0.0000       3.353188        91.2449 
 367   0.0000       3.391733        92.2937 
 368   0.0000       3.403959        92.6264 
 369   0.0000       3.418270        93.0159 
 370   0.0000       3.424250        93.1786 
 371   0.0000       3.433774        93.4377 
 372   0.0000       3.438437        93.5646 
 373   0.0000       3.466850        94.3378 
 374   0.0000       3.477125        94.6174 
 375   0.0000       3.477371        94.6241 
 376   0.0000       3.481725        94.7425 
 377   0.0000       3.486986        94.8857 
 378   0.0000       3.503517        95.3355 
 379   0.0000       3.510998        95.5391 
 380   0.0000       3.526870        95.9710 
 381   0.0000       3.545459        96.4768 
 382   0.0000       3.552767        96.6757 
 383   0.0000       3.569416        97.1288 
 384   0.0000       3.590246        97.6956 
 385   0.0000       3.599010        97.9340 
 386   0.0000       3.614008        98.3422 
 387   0.0000       3.659414        99.5777 
 388   0.0000       3.669320        99.8473 
 389   0.0000       3.673692        99.9662 
 390   0.0000       3.749876       102.0393 
 391   0.0000       3.763528       102.4108 
 392   0.0000       3.766476       102.4910 
 393   0.0000       3.784895       102.9922 
 394   0.0000       3.815933       103.8368 
 395   0.0000       3.819061       103.9219 
 396   0.0000       3.835995       104.3827 
 397   0.0000       3.838819       104.4596 
 398   0.0000       3.856435       104.9389 
 399   0.0000       3.865772       105.1930 
 400   0.0000       3.868592       105.2697 
 401   0.0000       3.908028       106.3428 
 402   0.0000       3.919876       106.6652 
 403   0.0000       3.939491       107.1990 
 404   0.0000       4.006106       109.0117 
 405   0.0000       4.023144       109.4753 
 406   0.0000       4.043304       110.0239 
 407   0.0000       4.046080       110.0994 
 408   0.0000       4.056967       110.3957 
 409   0.0000       4.101894       111.6182 
 410   0.0000       4.111426       111.8776 
 411   0.0000       4.116647       112.0197 
 412   0.0000       4.150966       112.9535 
 413   0.0000       4.175149       113.6116 
 414   0.0000       4.190647       114.0333 
 415   0.0000       4.249101       115.6239 
 416   0.0000       4.301916       117.0611 
 417   0.0000       4.303115       117.0937 
 418   0.0000       4.316946       117.4701 
 419   0.0000       4.318859       117.5221 
 420   0.0000       4.335206       117.9669 
 421   0.0000       4.385881       119.3459 
 422   0.0000       4.404833       119.8616 
 423   0.0000       4.462606       121.4337 
 424   0.0000       4.498016       122.3973 
 425   0.0000       4.539373       123.5226 
 426   0.0000       4.545629       123.6929 
 427   0.0000       4.620275       125.7241 
 428   0.0000       4.661628       126.8494 
 429   0.0000       4.665269       126.9484 
 430   0.0000       4.690712       127.6408 
 431   0.0000       4.729152       128.6868 
 432   0.0000       4.744860       129.1142 
 433   0.0000       4.762910       129.6054 
 434   0.0000       4.827873       131.3731 
 435   0.0000       4.852066       132.0314 
 436   0.0000       4.878654       132.7549 
 437   0.0000       4.898795       133.3030 
 438   0.0000       4.902829       133.4128 
 439   0.0000       4.983470       135.6071 
 440   0.0000       5.009507       136.3156 
 441   0.0000       5.019535       136.5885 
 442   0.0000       5.044844       137.2772 
 443   0.0000       5.063822       137.7936 
 444   0.0000       5.077559       138.1674 
 445   0.0000       5.092552       138.5754 
 446   0.0000       5.116233       139.2198 
 447   0.0000       5.138800       139.8339 
 448   0.0000       5.157508       140.3429 
 449   0.0000       5.180362       140.9648 
 450   0.0000       5.199410       141.4831 
 451   0.0000       5.215116       141.9105 
 452   0.0000       5.230173       142.3202 
 453   0.0000       5.235643       142.4691 
 454   0.0000       5.271938       143.4567 
 455   0.0000       5.339178       145.2864 
 456   0.0000       5.351030       145.6089 
 457   0.0000       5.354574       145.7054 
 458   0.0000       5.360868       145.8766 
 459   0.0000       5.365396       145.9998 
 460   0.0000       5.371272       146.1597 
 461   0.0000       5.392966       146.7501 
 462   0.0000       5.436711       147.9404 
 463   0.0000       5.439780       148.0239 
 464   0.0000       5.446512       148.2071 
 465   0.0000       5.480310       149.1268 
 466   0.0000       5.487876       149.3327 
 467   0.0000       5.502551       149.7320 
 468   0.0000       5.519974       150.2061 
 469   0.0000       5.538579       150.7124 
 470   0.0000       5.548715       150.9882 
 471   0.0000       5.553783       151.1261 
 472   0.0000       5.564384       151.4146 
 473   0.0000       5.584410       151.9595 
 474   0.0000       5.620343       152.9373 
 475   0.0000       5.653376       153.8362 
 476   0.0000       5.660285       154.0242 
 477   0.0000       5.694963       154.9678 
 478   0.0000       5.723845       155.7537 
 479   0.0000       5.734015       156.0305 
 480   0.0000       5.763135       156.8229 
 481   0.0000       5.777352       157.2098 
 482   0.0000       5.801069       157.8551 
 483   0.0000       5.806164       157.9937 
 484   0.0000       5.808885       158.0678 
 485   0.0000       5.829263       158.6223 
 486   0.0000       5.841568       158.9571 
 487   0.0000       5.868154       159.6806 
 488   0.0000       5.873429       159.8241 
 489   0.0000       5.874552       159.8547 
 490   0.0000       5.896380       160.4486 
 491   0.0000       5.906337       160.7196 
 492   0.0000       5.920041       161.0925 
 493   0.0000       5.921390       161.1292 
 494   0.0000       5.952599       161.9785 
 495   0.0000       5.964556       162.3038 
 496   0.0000       5.968576       162.4132 
 497   0.0000       5.983062       162.8074 
 498   0.0000       5.990577       163.0119 
 499   0.0000       6.008441       163.4980 
 500   0.0000       6.015005       163.6766 
 501   0.0000       6.022276       163.8745 
 502   0.0000       6.040020       164.3573 
 503   0.0000       6.046851       164.5432 
 504   0.0000       6.063270       164.9900 
 505   0.0000       6.069709       165.1652 
 506   0.0000       6.084284       165.5618 
 507   0.0000       6.101602       166.0330 
 508   0.0000       6.106393       166.1634 
 509   0.0000       6.112826       166.3385 
 510   0.0000       6.128585       166.7673 
 511   0.0000       6.134789       166.9361 
 512   0.0000       6.135972       166.9683 
 513   0.0000       6.173285       167.9836 
 514   0.0000       6.187743       168.3770 
 515   0.0000       6.200235       168.7170 
 516   0.0000       6.203893       168.8165 
 517   0.0000       6.219371       169.2377 
 518   0.0000       6.223692       169.3553 
 519   0.0000       6.240563       169.8144 
 520   0.0000       6.255069       170.2091 
 521   0.0000       6.259727       170.3358 
 522   0.0000       6.261948       170.3963 
 523   0.0000       6.263317       170.4335 
 524   0.0000       6.273600       170.7133 
 525   0.0000       6.278550       170.8480 
 526   0.0000       6.284258       171.0033 
 527   0.0000       6.296087       171.3252 
 528   0.0000       6.323119       172.0608 
 529   0.0000       6.327761       172.1871 
 530   0.0000       6.344255       172.6360 
 531   0.0000       6.369392       173.3200 
 532   0.0000       6.397553       174.0863 
 533   0.0000       6.399333       174.1347 
 534   0.0000       6.404251       174.2685 
 535   0.0000       6.404604       174.2781 
 536   0.0000       6.412117       174.4826 
 537   0.0000       6.419308       174.6782 
 538   0.0000       6.438876       175.2107 
 539   0.0000       6.442694       175.3146 
 540   0.0000       6.449847       175.5093 
 541   0.0000       6.492820       176.6786 
 542   0.0000       6.501509       176.9151 
 543   0.0000       6.512088       177.2029 
 544   0.0000       6.535603       177.8428 
 545   0.0000       6.546670       178.1440 
 546   0.0000       6.554645       178.3610 
 547   0.0000       6.577170       178.9739 
 548   0.0000       6.583137       179.1363 
 549   0.0000       6.596861       179.5097 
 550   0.0000       6.599455       179.5803 
 551   0.0000       6.605789       179.7527 
 552   0.0000       6.623953       180.2469 
 553   0.0000       6.640010       180.6838 
 554   0.0000       6.652401       181.0210 
 555   0.0000       6.666566       181.4065 
 556   0.0000       6.672170       181.5590 
 557   0.0000       6.693360       182.1356 
 558   0.0000       6.702885       182.3948 
 559   0.0000       6.714309       182.7056 
 560   0.0000       6.715590       182.7405 
 561   0.0000       6.732825       183.2095 
 562   0.0000       6.744705       183.5328 
 563   0.0000       6.806258       185.2077 
 564   0.0000       6.819540       185.5691 
 565   0.0000       6.823006       185.6634 
 566   0.0000       6.885531       187.3648 
 567   0.0000       6.893172       187.5727 
 568   0.0000       6.895841       187.6454 
 569   0.0000       6.924676       188.4300 
 570   0.0000       6.935040       188.7120 
 571   0.0000       6.945230       188.9893 
 572   0.0000       6.981879       189.9866 
 573   0.0000       6.996223       190.3769 
 574   0.0000       7.010128       190.7553 
 575   0.0000       7.013549       190.8484 
 576   0.0000       7.037023       191.4871 
 577   0.0000       7.050440       191.8522 
 578   0.0000       7.098614       193.1631 
 579   0.0000       7.118593       193.7068 
 580   0.0000       7.139789       194.2835 
 581   0.0000       7.143640       194.3883 
 582   0.0000       7.150943       194.5871 
 583   0.0000       7.163516       194.9292 
 584   0.0000       7.194450       195.7709 
 585   0.0000       7.199061       195.8964 
 586   0.0000       7.233442       196.8320 
 587   0.0000       7.270524       197.8410 
 588   0.0000       7.279090       198.0741 
 589   0.0000       7.293116       198.4558 
 590   0.0000       7.322745       199.2620 
 591   0.0000       7.324312       199.3047 
 592   0.0000       7.359096       200.2512 
 593   0.0000       7.361989       200.3299 
 594   0.0000       7.385747       200.9764 
 595   0.0000       7.393016       201.1742 
 596   0.0000       7.405574       201.5159 
 597   0.0000       7.428010       202.1264 
 598   0.0000       7.437300       202.3792 
 599   0.0000       7.443335       202.5434 
 600   0.0000       7.464629       203.1229 
 601   0.0000       7.495170       203.9539 
 602   0.0000       7.498585       204.0469 
 603   0.0000       7.507226       204.2820 
 604   0.0000       7.508947       204.3288 
 605   0.0000       7.515723       204.5132 
 606   0.0000       7.539142       205.1505 
 607   0.0000       7.590502       206.5481 
 608   0.0000       7.602084       206.8632 
 609   0.0000       7.616228       207.2481 
 610   0.0000       7.617555       207.2842 
 611   0.0000       7.631764       207.6709 
 612   0.0000       7.663791       208.5423 
 613   0.0000       7.682680       209.0564 
 614   0.0000       7.700759       209.5483 
 615   0.0000       7.717457       210.0027 
 616   0.0000       7.717946       210.0160 
 617   0.0000       7.726835       210.2579 
 618   0.0000       7.742082       210.6728 
 619   0.0000       7.759152       211.1373 
 620   0.0000       7.779878       211.7012 
 621   0.0000       7.796009       212.1402 
 622   0.0000       7.828507       213.0245 
 623   0.0000       7.853719       213.7105 
 624   0.0000       7.872778       214.2292 
 625   0.0000       7.877620       214.3609 
 626   0.0000       7.877806       214.3660 
 627   0.0000       7.897670       214.9065 
 628   0.0000       7.899624       214.9597 
 629   0.0000       7.921100       215.5441 
 630   0.0000       7.925464       215.6628 
 631   0.0000       7.943229       216.1462 
 632   0.0000       7.949677       216.3217 
 633   0.0000       7.956828       216.5163 
 634   0.0000       7.959415       216.5867 
 635   0.0000       7.970323       216.8835 
 636   0.0000       8.028440       218.4649 
 637   0.0000       8.047796       218.9917 
 638   0.0000       8.063935       219.4308 
 639   0.0000       8.082762       219.9431 
 640   0.0000       8.103399       220.5047 
 641   0.0000       8.112316       220.7473 
 642   0.0000       8.130002       221.2286 
 643   0.0000       8.147042       221.6923 
 644   0.0000       8.166810       222.2302 
 645   0.0000       8.186767       222.7732 
 646   0.0000       8.190704       222.8804 
 647   0.0000       8.212342       223.4692 
 648   0.0000       8.224255       223.7934 
 649   0.0000       8.225487       223.8269 
 650   0.0000       8.257200       224.6898 
 651   0.0000       8.265009       224.9023 
 652   0.0000       8.286982       225.5002 
 653   0.0000       8.298711       225.8194 
 654   0.0000       8.303291       225.9440 
 655   0.0000       8.331540       226.7127 
 656   0.0000       8.334591       226.7958 
 657   0.0000       8.340599       226.9592 
 658   0.0000       8.343728       227.0444 
 659   0.0000       8.351583       227.2581 
 660   0.0000       8.368520       227.7190 
 661   0.0000       8.370206       227.7649 
 662   0.0000       8.371287       227.7943 
 663   0.0000       8.385777       228.1886 
 664   0.0000       8.389289       228.2841 
 665   0.0000       8.407546       228.7809 
 666   0.0000       8.407923       228.7912 
 667   0.0000       8.408117       228.7965 
 668   0.0000       8.417560       229.0535 
 669   0.0000       8.420221       229.1259 
 670   0.0000       8.430425       229.4035 
 671   0.0000       8.457705       230.1458 
 672   0.0000       8.459595       230.1973 
 673   0.0000       8.480266       230.7598 
 674   0.0000       8.487984       230.9698 
 675   0.0000       8.491640       231.0693 
 676   0.0000       8.505664       231.4509 
 677   0.0000       8.530247       232.1198 
 678   0.0000       8.557808       232.8698 
 679   0.0000       8.570459       233.2140 
 680   0.0000       8.598116       233.9666 
 681   0.0000       8.598844       233.9864 
 682   0.0000       8.598938       233.9890 
 683   0.0000       8.620049       234.5635 
 684   0.0000       8.630052       234.8357 
 685   0.0000       8.643402       235.1989 
 686   0.0000       8.662038       235.7060 
 687   0.0000       8.686909       236.3828 
 688   0.0000       8.715470       237.1600 
 689   0.0000       8.734653       237.6820 
 690   0.0000       8.752146       238.1580 
 691   0.0000       8.766984       238.5618 
 692   0.0000       8.799793       239.4545 
 693   0.0000       8.803264       239.5490 
 694   0.0000       8.806589       239.6395 
 695   0.0000       8.844715       240.6769 
 696   0.0000       8.880415       241.6484 
 697   0.0000       8.895897       242.0697 
 698   0.0000       8.916538       242.6313 
 699   0.0000       8.936881       243.1849 
 700   0.0000       8.941698       243.3160 
 701   0.0000       9.013675       245.2746 
 702   0.0000       9.043557       246.0877 
 703   0.0000       9.066259       246.7054 
 704   0.0000       9.115315       248.0403 
 705   0.0000       9.231981       251.2150 
 706   0.0000       9.235508       251.3109 
 707   0.0000       9.319827       253.6054 
 708   0.0000       9.398627       255.7497 
 709   0.0000       9.444656       257.0021 
 710   0.0000       9.509594       258.7692 
 711   0.0000       9.533669       259.4243 
 712   0.0000       9.613437       261.5949 
 713   0.0000       9.629782       262.0397 
 714   0.0000       9.632484       262.1132 
 715   0.0000       9.640709       262.3370 
 716   0.0000       9.657263       262.7875 
 717   0.0000       9.689018       263.6516 
 718   0.0000       9.695520       263.8285 
 719   0.0000       9.700205       263.9560 
 720   0.0000       9.728123       264.7157 
 721   0.0000       9.748082       265.2588 
 722   0.0000       9.755514       265.4610 
 723   0.0000       9.782594       266.1979 
 724   0.0000       9.785900       266.2879 
 725   0.0000       9.832115       267.5455 
 726   0.0000       9.840006       267.7602 
 727   0.0000       9.870270       268.5837 
 728   0.0000       9.956255       270.9235 
 729   0.0000       9.956685       270.9352 
 730   0.0000       9.979396       271.5532 
 731   0.0000       9.996956       272.0310 
 732   0.0000      10.026190       272.8265 
 733   0.0000      10.044438       273.3230 
 734   0.0000      10.061136       273.7774 
 735   0.0000      10.100225       274.8411 
 736   0.0000      10.153666       276.2953 
 737   0.0000      10.164941       276.6021 
 738   0.0000      10.172081       276.7964 
 739   0.0000      10.186620       277.1920 
 740   0.0000      10.252381       278.9815 
 741   0.0000      10.324419       280.9417 
 742   0.0000      10.375606       282.3346 
 743   0.0000      10.420311       283.5511 
 744   0.0000      10.446679       284.2686 
 745   0.0000      10.457171       284.5541 
 746   0.0000      10.457912       284.5742 
 747   0.0000      10.463825       284.7351 
 748   0.0000      10.480012       285.1756 
 749   0.0000      10.483950       285.2828 
 750   0.0000      10.493654       285.5468 
 751   0.0000      10.590380       288.1789 
 752   0.0000      10.598456       288.3987 
 753   0.0000      10.604769       288.5704 
 754   0.0000      10.607741       288.6513 
 755   0.0000      10.656375       289.9747 
 756   0.0000      10.705930       291.3232 
 757   0.0000      10.717859       291.6478 
 758   0.0000      10.805431       294.0307 
 759   0.0000      10.817533       294.3600 
 760   0.0000      10.859805       295.5103 
 761   0.0000      10.868144       295.7372 
 762   0.0000      11.028767       300.1080 
 763   0.0000      11.236553       305.7622 
 764   0.0000      11.266064       306.5652 
 765   0.0000      11.348995       308.8218 
 766   0.0000      11.577149       315.0302 
 767   0.0000      11.582618       315.1791 
 768   0.0000      11.666056       317.4495 
 769   0.0000      11.678270       317.7819 
 770   0.0000      11.689144       318.0778 
 771   0.0000      11.714031       318.7550 
 772   0.0000      11.785654       320.7040 
 773   0.0000      11.842530       322.2516 
 774   0.0000      12.011578       326.8517 
 775   0.0000      12.055854       328.0565 
 776   0.0000      12.205946       332.1407 
 777   0.0000      12.532548       341.0280 
 778   0.0000      12.666070       344.6613 
 779   0.0000      12.839215       349.3728 
 780   0.0000      13.091351       356.2338 
 781   0.0000      13.093871       356.3024 
 782   0.0000      13.197021       359.1092 
 783   0.0000      13.247827       360.4917 
 784   0.0000      13.284972       361.5025 
 785   0.0000      13.740849       373.9075 
 786   0.0000      13.908496       378.4694 
 787   0.0000      13.952817       379.6755 
 788   0.0000      15.505868       421.9361 
 789   0.0000      16.094600       437.9563 
 790   0.0000      27.902592       759.2681 
 791   0.0000      28.393761       772.6335 
 792   0.0000      28.441019       773.9195 
 793   0.0000      28.758452       782.5573 
 794   0.0000      28.966484       788.2181 
 795   0.0000      29.051568       790.5334 
 796   0.0000      29.254610       796.0584 
 797   0.0000      37.447928      1019.0099 
 798   0.0000      47.360097      1288.7338 
 799   0.0000      47.765530      1299.7662 
 800   0.0000     146.980673      3999.5474 
 801   0.0000     147.448211      4012.2698 
 802   0.0000     147.482599      4013.2055 
 803   0.0000     147.761292      4020.7892 
 804   0.0000     147.972431      4026.5345 
 805   0.0000     148.103441      4030.0995 
 806   0.0000     148.283569      4035.0010 
 807   0.0000     196.666839      5351.5768 
 808   0.0000     252.281673      6864.9333 
 809   0.0000     252.800431      6879.0495 

                    ********************************
                    * MULLIKEN POPULATION ANALYSIS *
                    ********************************

-----------------------
MULLIKEN ATOMIC CHARGES
-----------------------
   0 C :    0.124244
   1 C :   -0.093086
   2 C :   -0.090911
   3 C :   -0.048724
   4 C :   -0.086871
   5 C :   -0.104499
   6 C :   -0.123516
   7 H :    0.046730
   8 H :    0.053601
   9 H :    0.057516
  10 H :    0.053009
  11 H :    0.055619
  12 H :    0.052320
  13 H :    0.056176
  14 H :    0.048393
  15 N :    0.612935
  16 O :    0.193444
  17 O :    0.193622
Sum of atomic charges:    1.0000000

--------------------------------
MULLIKEN REDUCED ORBITAL CHARGES
--------------------------------
  0 C s       :     3.322405  s :     3.322405
      pz      :     0.763515  p :     2.380383
      px      :     0.867755
      py      :     0.749113
      dz2     :     0.037784  d :     0.149295
      dxz     :     0.027033
      dyz     :     0.044265
      dx2y2   :     0.021269
      dxy     :     0.018945
      f0      :     0.006530  f :     0.022159
      f+1     :     0.002481
      f-1     :     0.003310
      f+2     :     0.003474
      f-2     :     0.003140
      f+3     :     0.000999
      f-3     :     0.002225
      g0      :     0.000227  g :     0.001514
      g+1     :     0.000114
      g-1     :     0.000299
      g+2     :     0.000212
      g-2     :     0.000208
      g+3     :     0.000119
      g-3     :     0.000099
      g+4     :     0.000153
      g-4     :     0.000083
  1 C s       :     3.359256  s :     3.359256
      pz      :     0.810312  p :     2.621558
      px      :     0.940444
      py      :     0.870802
      dz2     :     0.028907  d :     0.095902
      dxz     :     0.028269
      dyz     :     0.019767
      dx2y2   :     0.009768
      dxy     :     0.009192
      f0      :     0.004811  f :     0.015314
      f+1     :     0.002242
      f-1     :     0.002104
      f+2     :     0.002819
      f-2     :     0.002583
      f+3     :     0.000296
      f-3     :     0.000460
      g0      :     0.000212  g :     0.001056
      g+1     :     0.000127
      g-1     :     0.000227
      g+2     :     0.000153
      g-2     :     0.000164
      g+3     :     0.000059
      g-3     :     0.000082
      g+4     :     0.000011
      g-4     :     0.000021
  2 C s       :     3.318568  s :     3.318568
      pz      :     0.860591  p :     2.638154
      px      :     0.919956
      py      :     0.857608
      dz2     :     0.018324  d :     0.117686
      dxz     :     0.024735
      dyz     :     0.044103
      dx2y2   :     0.015456
      dxy     :     0.015068
      f0      :     0.003992  f :     0.015390
      f+1     :     0.002529
      f-1     :     0.002278
      f+2     :     0.001735
      f-2     :     0.001963
      f+3     :     0.000757
      f-3     :     0.002136
      g0      :     0.000191  g :     0.001114
      g+1     :     0.000125
      g-1     :     0.000208
      g+2     :     0.000114
      g-2     :     0.000133
      g+3     :     0.000078
      g-3     :     0.000025
      g+4     :     0.000156
      g-4     :     0.000084
  3 C s       :     3.311114  s :     3.311114
      pz      :     0.834600  p :     2.617010
      px      :     0.930954
      py      :     0.851455
      dz2     :     0.024641  d :     0.104802
      dxz     :     0.011767
      dyz     :     0.030000
      dx2y2   :     0.020270
      dxy     :     0.018124
      f0      :     0.003758  f :     0.014719
      f+1     :     0.001320
      f-1     :     0.002112
[...]
      dxz     :     0.073791
      dyz     :     0.171661
      dx2y2   :     0.061239
      dxy     :     0.064286
      f0      :     0.029288  f :     0.111754
      f+1     :     0.014704
      f-1     :     0.019382
      f+2     :     0.013893
      f-2     :     0.014723
      f+3     :     0.009090
      f-3     :     0.010674
      g0      :     0.002293  g :     0.011632
      g+1     :     0.001135
      g-1     :     0.002089
      g+2     :     0.001067
      g-2     :     0.001306
      g+3     :     0.001339
      g-3     :     0.000338
      g+4     :     0.001181
      g-4     :     0.000883
  6 C s       :     2.541936  s :     2.541936
      pz      :     0.895933  p :     2.746609
      px      :     0.926054
      py      :     0.924622
      dz2     :     0.103954  d :     0.361406
      dxz     :     0.054889
      dyz     :     0.098865
      dx2y2   :     0.044525
      dxy     :     0.059173
      f0      :     0.016173  f :     0.074426
      f+1     :     0.013281
      f-1     :     0.013570
      f+2     :     0.009801
      f-2     :     0.009367
      f+3     :     0.008363
      f-3     :     0.003872
      g0      :     0.001179  g :     0.004375
      g+1     :     0.000621
      g-1     :     0.000572
      g+2     :     0.000585
      g-2     :     0.000720
      g+3     :     0.000253
      g-3     :     0.000152
      g+4     :     0.000038
      g-4     :     0.000255
  7 H s       :     0.778255  s :     0.778255
      pz      :     0.066107  p :     0.189498
      px      :     0.057062
      py      :     0.066329
      dz2     :     0.020958  d :     0.066937
      dxz     :     0.010721
      dyz     :     0.012797
      dx2y2   :     0.011167
      dxy     :     0.011294
      f0      :     0.001806  f :     0.009569
      f+1     :     0.000723
      f-1     :     0.002066
      f+2     :     0.001793
      f-2     :     0.001760
      f+3     :     0.000510
      f-3     :     0.000910
  8 H s       :     0.764279  s :     0.764279
      pz      :     0.049650  p :     0.192535
      px      :     0.084845
      py      :     0.058039
      dz2     :     0.006344  d :     0.066880
      dxz     :     0.019613
      dyz     :     0.003842
      dx2y2   :     0.014575
      dxy     :     0.022506
      f0      :     0.000963  f :     0.009320
      f+1     :     0.001422
      f-1     :     0.000284
      f+2     :     0.001205
      f-2     :     0.000973
      f+3     :     0.002067
      f-3     :     0.002406
  9 H s       :     0.761583  s :     0.761583
      pz      :     0.049378  p :     0.193003
      px      :     0.065346
      py      :     0.078278
      dz2     :     0.004994  d :     0.066882
      dxz     :     0.005459
      dyz     :     0.018436
      dx2y2   :     0.024391
      dxy     :     0.013602
      f0      :     0.001122  f :     0.009271
      f+1     :     0.000540
      f-1     :     0.000858
      f+2     :     0.000533
      f-2     :     0.001485
      f+3     :     0.001815
      f-3     :     0.002917
 10 H s       :     0.782654  s :     0.782654
      pz      :     0.042961  p :     0.186989
      px      :     0.057247
      py      :     0.086781
      dz2     :     0.006340  d :     0.064763
      dxz     :     0.004466
      dyz     :     0.020194
      dx2y2   :     0.016978
      dxy     :     0.016785
      f0      :     0.001266  f :     0.009762
      f+1     :     0.000383
      f-1     :     0.001396
      f+2     :     0.001165
      f-2     :     0.001320
      f+3     :     0.001859
      f-3     :     0.002373
 11 H s       :     0.787607  s :     0.787607
      pz      :     0.074440  p :     0.187459
      px      :     0.054466
      py      :     0.058553
      dz2     :     0.020963  d :     0.064311
      dxz     :     0.013189
      dyz     :     0.014585
      dx2y2   :     0.007875
      dxy     :     0.007700
      f0      :     0.002404  f :     0.009760
      f+1     :     0.001252
      f-1     :     0.002032
      f+2     :     0.001655
      f-2     :     0.001607
      f+3     :     0.000434
      f-3     :     0.000375
 12 H s       :     0.788118  s :     0.788118
      pz      :     0.088319  p :     0.186865
      px      :     0.046856
      py      :     0.051690
      dz2     :     0.021105  d :     0.063559
      dxz     :     0.016549
      dyz     :     0.019198
      dx2y2   :     0.003421
      dxy     :     0.003286
      f0      :     0.003259  f :     0.009626
      f+1     :     0.001829
      f-1     :     0.002518
      f+2     :     0.000955
      f-2     :     0.000919
      f+3     :     0.000079
      f-3     :     0.000069
 13 H s       :     0.787346  s :     0.787346
      pz      :     0.043941  p :     0.187272
      px      :     0.056776
      py      :     0.086556
      dz2     :     0.006091  d :     0.064197
      dxz     :     0.004417
      dyz     :     0.020349
      dx2y2   :     0.016756
      dxy     :     0.016584
      f0      :     0.001257  f :     0.009738
      f+1     :     0.000373
      f-1     :     0.001401
      f+2     :     0.001181
      f-2     :     0.001318
      f+3     :     0.001866
      f-3     :     0.002342
 14 H s       :     0.783643  s :     0.783643
      pz      :     0.075153  p :     0.188011
      px      :     0.055184
      py      :     0.057675
      dz2     :     0.021014  d :     0.064972
      dxz     :     0.013371
      dyz     :     0.014950
      dx2y2   :     0.007920
      dxy     :     0.007717
      f0      :     0.002391  f :     0.009792
      f+1     :     0.001244
      f-1     :     0.002035
      f+2     :     0.001683
      f-2     :     0.001624
      f+3     :     0.000434
      f-3     :     0.000379
 15 N s       :     2.892754  s :     2.892754
      pz      :     1.229027  p :     3.226883
      px      :     1.070282
      py      :     0.927574
      dz2     :     0.286881  d :     0.878980
      dxz     :     0.290650
      dyz     :     0.273535
      dx2y2   :     0.015632
      dxy     :     0.012282
      f0      :     0.063601  f :     0.169882
      f+1     :     0.042968
      f-1     :     0.027116
      f+2     :     0.016982
      f-2     :     0.017656
      f+3     :     0.000813
      f-3     :     0.000746
      g0      :     0.007783  g :     0.030592
      g+1     :     0.008269
      g-1     :     0.009198
      g+2     :     0.002479
      g-2     :     0.002248
      g+3     :     0.000301
      g-3     :     0.000288
      g+4     :     0.000013
      g-4     :     0.000013
 16 O s       :     3.364908  s :     3.364908
      pz      :     1.383381  p :     4.064739
      px      :     1.358571
      py      :     1.322787
      dz2     :     0.059333  d :     0.166761
      dxz     :     0.061723
      dyz     :     0.034068
      dx2y2   :     0.007273
      dxy     :     0.004365
      f0      :     0.013284  f :     0.042463
      f+1     :     0.012066
      f-1     :     0.009128
      f+2     :     0.004437
      f-2     :     0.003153
      f+3     :     0.000238
      f-3     :     0.000157
      g0      :     0.001049  g :     0.003440
      g+1     :     0.000767
      g-1     :     0.000558
      g+2     :     0.000519
      g-2     :     0.000410
      g+3     :     0.000076
      g-3     :     0.000057
      g+4     :     0.000003
      g-4     :     0.000002
 17 O s       :     3.364805  s :     3.364805
      pz      :     1.366646  p :     4.063133
      px      :     1.377621
      py      :     1.318865
      dz2     :     0.068367  d :     0.166832
      dxz     :     0.055781
      dyz     :     0.039321
      dx2y2   :     0.001538
      dxy     :     0.001825
      f0      :     0.012799  f :     0.042484
      f+1     :     0.015612
      f-1     :     0.011456
      f+2     :     0.001216
      f-2     :     0.001361
      f+3     :     0.000015
      f-3     :     0.000025
      g0      :     0.001059  g :     0.003444
      g+1     :     0.001123
      g-1     :     0.000869
      g+2     :     0.000182
      g-2     :     0.000197
      g+3     :     0.000006
      g-3     :     0.000008
      g+4     :     0.000000
      g-4     :     0.000000


                      *****************************
                      * MAYER POPULATION ANALYSIS *
                      *****************************

  NA   - Mulliken gross atomic population
  ZA   - Total nuclear charge
  QA   - Mulliken gross atomic charge
  VA   - Mayer's total valence
  BVA  - Mayer's bonded valence
  FA   - Mayer's free valence

  ATOM       NA         ZA         QA         VA         BVA        FA
  0 C      5.8412     6.0000     0.1588     3.5676     3.5676     0.0000
  1 C      6.0510     6.0000    -0.0510     3.6781     3.6781     0.0000
  2 C      6.0658     6.0000    -0.0658     3.8182     3.8182     0.0000
  3 C      5.9904     6.0000     0.0096     3.7648     3.7648     0.0000
  4 C      6.0569     6.0000    -0.0569     3.8188     3.8188     0.0000
  5 C      6.0694     6.0000    -0.0694     3.6984     3.6984     0.0000
  6 C      6.0781     6.0000    -0.0781     3.8285     3.8285    -0.0000
  7 H      0.9411     1.0000     0.0589     1.0109     1.0109    -0.0000
  8 H      0.9294     1.0000     0.0706     0.9998     0.9998     0.0000
  9 H      0.9244     1.0000     0.0756     0.9992     0.9992     0.0000
 10 H      0.9151     1.0000     0.0849     0.9968     0.9968    -0.0000
 11 H      0.9137     1.0000     0.0863     0.9967     0.9967    -0.0000
 12 H      0.9076     1.0000     0.0924     0.9899     0.9899    -0.0000
 13 H      0.9132     1.0000     0.0868     0.9958     0.9958    -0.0000
 14 H      0.9206     1.0000     0.0794     1.0020     1.0020     0.0000
 15 N      6.5915     7.0000     0.4085     4.1907     4.1907     0.0000
 16 O      7.9461     8.0000     0.0539     2.4163     2.4163     0.0000
 17 O      7.9444     8.0000     0.0556     2.4185     2.4185     0.0000

  Mayer bond orders larger than 0.100000
B(  0-C ,  1-C ) :   1.1279 B(  0-C ,  5-C ) :   1.1649 B(  0-C ,  6-C ) :   0.9587 
B(  0-C , 15-N ) :   0.1084 B(  1-C ,  2-C ) :   1.3883 B(  1-C , 10-H ) :   0.9614 
B(  2-C ,  3-C ) :   1.2514 B(  2-C , 11-H ) :   0.9640 B(  3-C ,  4-C ) :   1.2385 
B(  3-C , 12-H ) :   0.9573 B(  3-C , 15-N ) :   0.1144 B(  4-C ,  5-C ) :   1.3817 
B(  4-C , 13-H ) :   0.9632 B(  5-C , 14-H ) :   0.9645 B(  6-C ,  7-H ) :   0.9647 
B(  6-C ,  8-H ) :   0.9366 B(  6-C ,  9-H ) :   0.9320 B( 15-N , 16-O ) :   1.8962 
B( 15-N , 17-O ) :   1.8980 B( 16-O , 17-O ) :   0.3527 

-------
TIMINGS
-------

Total SCF time: 0 days 0 hours 14 min 59 sec 

Total time                  ....     899.867 sec
Sum of individual times     ....     894.293 sec  ( 99.4%)

Fock matrix formation       ....     879.471 sec  ( 97.7%)
  Split-RI-J                ....      51.081 sec  (  5.8% of F)
  Chain of spheres X        ....     777.248 sec  ( 88.4% of F)
  XC integration            ....      50.626 sec  (  5.8% of F)
    Basis function eval.    ....      11.090 sec  ( 21.9% of XC)
    Density eval.           ....      20.170 sec  ( 39.8% of XC)
    XC-Functional eval.     ....       0.872 sec  (  1.7% of XC)
    XC-Potential eval.      ....      16.536 sec  ( 32.7% of XC)
Diagonalization             ....       0.284 sec  (  0.0%)
Density matrix formation    ....       0.141 sec  (  0.0%)
Population analysis         ....       0.247 sec  (  0.0%)
Initial guess               ....       0.508 sec  (  0.1%)
Orbital Transformation      ....       0.000 sec  (  0.0%)
Orbital Orthonormalization  ....       0.413 sec  (  0.0%)
DIIS solution               ....       0.087 sec  (  0.0%)
SOSCF solution              ....       1.653 sec  (  0.2%)
Grid generation             ....      11.902 sec  (  1.3%)

Maximum memory used throughout the entire SCF-calculation: 747.8 MB


-------------------------------------------------------------------------------
                          DFT DISPERSION CORRECTION                            
                                                                               
                                 DFTD4 V2.5                                    
-------------------------------------------------------------------------------
The B3LYP functional is recognized
Active option DFTDOPT                   ...         5   

Starting D4
-------------------------   ----------------
Dispersion correction           -0.021555100
-------------------------   ----------------


-------------------------   --------------------
FINAL SINGLE POINT ENERGY      -476.294583787963
-------------------------   --------------------

                                *** OPTIMIZATION RUN DONE ***

                            ***************************************
                            *     ORCA property calculations      *
                            ***************************************

                                    ---------------------
                                    Active property flags
                                    ---------------------
   (+) Dipole Moment


------------------------------------------------------------------------------
                       ORCA ELECTRIC PROPERTIES CALCULATION
------------------------------------------------------------------------------

Dipole Moment Calculation                       ... on
Quadrupole Moment Calculation                   ... off
Polarizability Calculation                      ... off
GBWName                                         ... e_c_12.gbw
Electron density                                ... e_c_12.scfp
The origin for moment calculation is the CENTER OF MASS  = (-13.705516, -0.811420 -11.134101)

-------------
DIPOLE MOMENT
-------------
                                X             Y             Z
Electronic contribution:    -13.69507      -8.27725     -79.71626
Nuclear contribution   :     11.87975       7.49169      70.32575
                        -----------------------------------------
Total Dipole Moment    :     -1.81532      -0.78556      -9.39051
                        -----------------------------------------
Magnitude (a.u.)       :      9.59657
Magnitude (Debye)      :     24.39253



--------------------
Rotational spectrum 
--------------------
 
Rotational constants in cm-1:     0.153233     0.000711     0.000708 
Rotational constants in MHz :  4593.821503    21.311247    21.219950 

 Dipole components along the rotational axes: 
x,y,z [a.u.] :    -9.595393     0.127487     0.079155 
x,y,z [Debye]:   -24.389552     0.324047     0.201197 

 

-------------------------------------------------------------------------------
                               ORCA SCF HESSIAN
-------------------------------------------------------------------------------

                   --------- SHARK INITIALIZATION DONE ---------

Hessian of the Kohn-Sham DFT energy:
Kohn-Sham wavefunction type                      ... RKS
Hartree-Fock exchange scaling                    ...    0.200
Number of operators                              ...    1
Number of atoms                                  ...   18
Basis set dimensions                             ...  810
Integral neglect threshold                       ... 2.5e-11
Integral primitive cutoff                        ... 2.5e-12

Setting up DFT Hessian calculations              ... 

HESS GRID
---------

General Integration Accuracy     IntAcc      ... 4.629
Radial Grid Type                 RadialGrid  ... OptM3 with GC (2021)
Angular Grid (max. ang.)         AngularGrid ... 5 (Lebedev-434)
Angular grid pruning method      GridPruning ... 4 (adaptive)
Weight generation scheme         WeightScheme... Becke
Basis function cutoff            BFCut       ... 1.0000e-11
Integration weight cutoff        WCut        ... 1.0000e-14
Angular grids for H and He will be reduced by one unit
Partially contracted basis set               ... off
Rotationally invariant grid construction     ... off

Total number of grid points                  ...   137641
Total number of batches                      ...     2161
Average number of points per batch           ...       63
Average number of grid points per atom       ...     7647

Building densities                               ... done   (      0.0 sec)
Calculating rho(r) on the grid                   ... done   (      6.5 sec)
Building xc-kernel on the grid                   ... done   (      0.3 sec)
                                                     done   (     11.8 sec)

Nuclear repulsion Hessian  (SHARK)               ... done   (      0.0 sec)

----------------------------------------------
Forming right-hand sides of CP-SCF equations     ...
----------------------------------------------

One electron integral derivatives  (SHARK)       ... 
IBatch  1 (of  2):                                                 3.4 sec
IBatch  2 (of  2):                                                 0.4 sec
                                                 ... done   (      3.8 sec)
Transforming the overlap derivative matrices     ... done   (      4.8 sec)
Making the Q(x) pseudodensities                  ... done   (      5.4 sec)
Adding the E*S(x)*S(y) terms to the Hessian      ... done   (      2.7 sec)
Calculating energy weighted overlap derivatives  ... done   (      1.5 sec)

Two electron integral derivatives (SHARK-RI)     ... 
IBatch  1 (of  2):                                              8875.2 sec
IBatch  2 (of  2):                                              1099.3 sec
                                                 ... done   (   9974.6 sec)

Exchange-correlation integral derivatives        ... 
IBatch  1 (of  2):                                              1295.6 sec
IBatch  2 (of  2):                                                77.1 sec
                                                 ... done   (   1372.7 sec)

tr(F(y)Q(x)) contribution to the Hessian         ... done   (      3.7 sec)

Response fock operator R(S(x)) (SHARK-RIJCOSX)   ... 
IBatch  1 (of  7):                                               240.7 sec
IBatch  2 (of  7):                                               238.2 sec
IBatch  3 (of  7):                                               240.0 sec
IBatch  4 (of  7):                                               236.1 sec
IBatch  5 (of  7):                                               236.2 sec
IBatch  6 (of  7):                                               238.9 sec
IBatch  7 (of  7):                                               236.3 sec
                                                 ... done   (   1666.5 sec)

XC Response fock operator R(S(x))                ... 
IBatch  1 (of  2):                                               255.7 sec
IBatch  2 (of  2):                                               160.8 sec
                                                 ... done   (    416.5 sec)

tr(F(y)S(x)) contribution to the Hessian         ... 
                                                 ... done   (      2.6 sec)

Transforming and finalizing RHSs                 ... done   (      4.9 sec)

----------------------------------------------
Solving the CP-SCF equations (RIJCOSX)           ...
----------------------------------------------

ERROR - OUT OF MEMORY !!!

    MINIMUM REQUIRED:  1334.1 MB
    MAXCORE:           1024.0 MB

ORCA finished by error termination in SCF Hessian
Calling Command: orca_scfhess e_c_12.scfhess.inp 
[file orca_tools/qcmsg.cpp, line 465]: 
  .... aborting the run

