
                                 *****************
                                 * O   R   C   A *
                                 *****************

           --- An Ab Initio, DFT and Semiempirical electronic structure package ---

                  #######################################################
                  #                        -***-                        #
                  #          Department of theory and spectroscopy      #
                  #               Directorship: Frank Neese             #
                  #        Max Planck Institute fuer Kohlenforschung    #
                  #                Kaiser Wilhelm Platz 1               #
                  #                 D-45470 Muelheim/Ruhr               #
                  #                      Germany                        #
                  #                                                     #
                  #                  All rights reserved                #
                  #                        -***-                        #
                  #######################################################


                         Program Version 4.2.1 -  RELEASE  -


 With contributions from (in alphabetic order):
   Daniel Aravena         : Magnetic Suceptibility
   Michael Atanasov       : Ab Initio Ligand Field Theory (pilot matlab implementation)
   Alexander A. Auer      : GIAO ZORA, VPT2
   Ute Becker             : Parallelization
   Giovanni Bistoni       : ED, misc. LED, open-shell LED, HFLD
   Martin Brehm           : Molecular dynamics
   Dmytro Bykov           : SCF Hessian
   Vijay G. Chilkuri      : MRCI spin determinant printing, contributions to CSF-ICE
   Dipayan Datta          : RHF DLPNO-CCSD density
   Achintya Kumar Dutta   : EOM-CC, STEOM-CC
   Dmitry Ganyushin       : Spin-Orbit,Spin-Spin,Magnetic field MRCI
   Miquel Garcia          : C-PCM Hessian, Gaussian charge scheme
   Yang Guo               : DLPNO-NEVPT2, CIM, IAO-localization
   Andreas Hansen         : Spin unrestricted coupled pair/coupled cluster methods
   Benjamin Helmich-Paris : CASSCF linear response (MC-RPA)
   Lee Huntington         : MR-EOM, pCC
   Robert Izsak           : Overlap fitted RIJCOSX, COSX-SCS-MP3, EOM
   Christian Kollmar      : KDIIS, OOCD, Brueckner-CCSD(T), CCSD density
   Simone Kossmann        : Meta GGA functionals, TD-DFT gradient, OOMP2, MP2 Hessian
   Martin Krupicka        : AUTO-CI
   Lucas Lang             : DCDCAS
   Dagmar Lenk            : GEPOL surface, SMD
   Dimitrios Liakos       : Extrapolation schemes; Compound Job, initial MDCI parallelization
   Dimitrios Manganas     : Further ROCIS development; embedding schemes
   Dimitrios Pantazis     : SARC Basis sets
   Taras Petrenko         : DFT Hessian,TD-DFT gradient, ASA, ECA, R-Raman, ABS, FL, XAS/XES, NRVS
   Peter Pinski           : DLPNO-MP2, DLPNO-MP2 Gradient
   Christoph Reimann      : Effective Core Potentials
   Marius Retegan         : Local ZFS, SOC
   Christoph Riplinger    : Optimizer, TS searches, QM/MM, DLPNO-CCSD(T), (RO)-DLPNO pert. Triples
   Tobias Risthaus        : Range-separated hybrids, TD-DFT gradient, RPA, STAB
   Michael Roemelt        : Original ROCIS implementation
   Masaaki Saitow         : Open-shell DLPNO-CCSD energy and density
   Barbara Sandhoefer     : DKH picture change effects
   Avijit Sen             : IP-ROCIS
   Kantharuban Sivalingam : CASSCF convergence, NEVPT2, FIC-MRCI
   Bernardo de Souza      : ESD, SOC TD-DFT
   Georgi Stoychev        : AutoAux, RI-MP2 NMR
   Willem Van den Heuvel  : Paramagnetic NMR
   Boris Wezisla          : Elementary symmetry handling
   Frank Wennmohs         : Technical directorship


 We gratefully acknowledge several colleagues who have allowed us to
 interface, adapt or use parts of their codes:
   Stefan Grimme, W. Hujo, H. Kruse,             : VdW corrections, initial TS optimization,
                  C. Bannwarth                     DFT functionals, gCP, sTDA/sTD-DF
   Ed Valeev, F. Pavosevic, A. Kumar             : LibInt (2-el integral package), F12 methods
   Garnet Chan, S. Sharma, J. Yang, R. Olivares  : DMRG
   Ulf Ekstrom                                   : XCFun DFT Library
   Mihaly Kallay                                 : mrcc  (arbitrary order and MRCC methods)
   Andreas Klamt, Michael Diedenhofen            : otool_cosmo (COSMO solvation model)
   Jiri Pittner, Ondrej Demel                    : Mk-CCSD
   Frank Weinhold                                : gennbo (NPA and NBO analysis)
   Christopher J. Cramer and Donald G. Truhlar   : smd solvation model
   Lars Goerigk                                  : TD-DFT with DH, B97 family of functionals
   V. Asgeirsson, H. Jonsson                     : NEB implementation
   FAccTs GmbH                                   : IRC, NEB, NEB-TS, Multilevel, MM, QM/MM, CI optimization
   S Lehtola, MJT Oliveira, MAL Marques          : LibXC Library


 Your calculation uses the libint2 library for the computation of 2-el integrals
 For citations please refer to: http://libint.valeyev.net

 Your ORCA version has been built with support for libXC version: 4.2.3
 For citations please refer to: https://tddft.org/programs/libxc/

 This ORCA versions uses:
   CBLAS   interface :  Fast vector & matrix operations
   LAPACKE interface :  Fast linear algebra routines


Your calculation utilizes the atom-pairwise dispersion correction
based on tight binding partial charges (D4)
Cite in your paper:
E.Caldeweyher, C.Bannwarth, S.Grimme, J.Chem.Phys., (2017), 147, 034112.
E.Caldeweyher, S.Ehlert, A.Hansen, H.Neugebauer, S.Grimme, J.Chem.Phys., (2018), in progress.
   

----- Orbital basis set information -----
Your calculation utilizes the basis: def2-SVP
   F. Weigend and R. Ahlrichs, Phys. Chem. Chem. Phys. 7, 3297 (2005).

================================================================================
                                        WARNINGS
                       Please study these warnings very carefully!
================================================================================


WARNING: Geometry Optimization
  ===> : Switching off AutoStart
         For restart on a previous wavefunction, please use MOREAD

INFO   : the flag for use of LIBINT has been found!

================================================================================
                                       INPUT FILE
================================================================================
NAME = products_optfreq.inp
|  1> !B3LYP DEF2-SVP D4 OPT FREQ NOSOSCF
|  2> 
|  3> %scf
|  4> maxIter 2000
|  5> end
|  6> 
|  7> %geom
|  8> maxIter 200
|  9> end
| 10> 
| 11> * xyz 1 1
| 12>    C       -0.98285        2.23360        0.49556
| 13>    C       -2.13806        2.71423       -0.19847
| 14>    C       -3.10001        1.77032       -0.62520
| 15>    C       -2.93616        0.40738       -0.38112
| 16>    C       -1.81049       -0.05060        0.29399
| 17>    C       -0.84248        0.85193        0.72873
| 18>    C        0.11056        3.14198        0.99913
| 19>    H       -3.68672       -0.29628       -0.71778
| 20>    H       -3.99004        2.08693       -1.15388
| 21>    H        0.91923        2.57742        1.51064
| 22>    H        0.57389        3.68529        0.14913
| 23>    H       -0.30405        3.86355        1.73384
| 24>    H        0.02347        0.46498        1.25198
| 25>    H       -1.68655       -1.10944        0.48174
| 26>    N       -2.36332        4.10667       -0.47990
| 27>    O       -1.58316        4.94322       -0.14187
| 28>    O       -3.34783        4.44868       -1.06373
| 29>    H       -6.99345        2.33724        5.45863
| 30> **                         ****END OF INPUT****
================================================================================

                       *****************************
                       * Geometry Optimization Run *
                       *****************************

Geometry optimization settings:
Update method            Update   .... BFGS
Choice of coordinates    CoordSys .... Z-matrix Internals
Initial Hessian          InHess   .... Almoef's Model

Convergence Tolerances:
Energy Change            TolE     ....  5.0000e-06 Eh
Max. Gradient            TolMAXG  ....  3.0000e-04 Eh/bohr
RMS Gradient             TolRMSG  ....  1.0000e-04 Eh/bohr
Max. Displacement        TolMAXD  ....  4.0000e-03 bohr
RMS Displacement         TolRMSD  ....  2.0000e-03 bohr
Strict Convergence                ....  False
------------------------------------------------------------------------------
                        ORCA OPTIMIZATION COORDINATE SETUP
------------------------------------------------------------------------------

The optimization will be done in new redundant internal coordinates
Making redundant internal coordinates   ...  (new redundants) done
Evaluating the initial hessian          ...  (Almloef) done
Evaluating the coordinates              ...  done
Calculating the B-matrix                .... done
Calculating the G-matrix                .... done
Diagonalizing the G-matrix              .... done
The first mode is                       ....  492
The number of degrees of freedom        ....   48

    -----------------------------------------------------------------
                    Redundant Internal Coordinates


    -----------------------------------------------------------------
         Definition                    Initial Value    Approx d2E/dq
    -----------------------------------------------------------------
      1. B(C   1,C   0)                  1.4308         0.537827   
      2. B(C   2,C   1)                  1.4137         0.572800   
      3. B(C   3,C   2)                  1.3943         0.615041   
      4. B(C   4,C   3)                  1.3902         0.624341   
      5. B(C   5,C   0)                  1.4082         0.584345   
      6. B(C   5,C   4)                  1.3931         0.617823   
      7. B(C   6,C   0)                  1.5081         0.404913   
      8. B(H   7,C   3)                  1.0825         0.370152   
      9. B(H   8,C   2)                  1.0825         0.370102   
     10. B(H   9,C   6)                  1.1110         0.333366   
     11. B(H  10,C   6)                  1.1101         0.334447   
     12. B(H  11,C   6)                  1.1101         0.334445   
     13. B(H  12,C   5)                  1.0832         0.369166   
     14. B(H  13,C   4)                  1.0825         0.370193   
     15. B(N  14,C   1)                  1.4383         0.468539   
     16. B(O  15,N  14)                  1.1928         1.034333   
     17. B(O  16,N  14)                  1.1946         1.027420   
     18. B(H  17,O  16)                  7.7647         0.000000   
     19. B(H  17,O  15)                  8.2115         0.000000   
     20. B(H  17,N  14)                  7.7353         0.000000   
     21. B(H  17,H  11)                  7.8072         0.000000   
     22. B(H  17,H   8)                  7.2669         0.000000   
     23. B(H  17,H   7)                  7.4845         0.000000   
     24. B(H  17,C   5)                  7.9002         0.000000   
     25. B(H  17,C   4)                  7.6966         0.000000   
     26. B(H  17,H  13)                  8.0506         0.000000   
     27. B(H  17,C   3)                  7.3681         0.000000   
     28. B(H  17,C   2)                  7.2452         0.000000   
     29. B(H  17,C   1)                  7.4646         0.000000   
     30. B(H  17,C   0)                  7.7955         0.000000   
     31. A(C   6,C   0,H  17)          109.7812         0.089908   
     32. A(C   5,C   0,H  17)           89.1109         0.089987   
     33. A(C   5,C   0,C   6)          117.6086         0.398173   
     34. A(C   1,C   0,H  17)           71.4478         0.089968   
     35. A(C   1,C   0,C   6)          123.0260         0.392422   
     36. A(C   1,C   0,C   5)          119.3655         0.418689   
     37. A(C   0,C   1,H  17)           98.0823         0.090275   
     38. A(C   0,C   1,N  14)          123.1307         0.400032   
     39. A(C   2,C   1,H  17)           75.6662         0.090294   
     40. A(C   0,C   1,C   2)          118.1338         0.417203   
     41. A(C   2,C   1,N  14)          118.7356         0.404498   
     42. A(N  14,C   1,H  17)           95.4691         0.090226   
     43. A(C   3,C   2,H  17)           89.5785         0.090578   
     44. A(C   3,C   2,H   8)          117.9048         0.354068   
     45. A(C   1,C   2,H   8)          120.7703         0.349834   
     46. A(C   1,C   2,C   3)          121.3249         0.427321   
     47. A(H   8,C   2,H  17)           86.8691         0.090216   
     48. A(C   1,C   2,H  17)           93.4369         0.090552   
     49. A(C   2,C   3,H   7)          119.9665         0.354076   
     50. A(C   4,C   3,H   7)          119.8882         0.354978   
     51. A(C   2,C   3,H  17)           79.5138         0.090424   
     52. A(C   2,C   3,C   4)          120.1454         0.433984   
     53. A(C   4,C   3,H  17)           98.4689         0.090429   
     54. A(H   7,C   3,H  17)           92.0027         0.090098   
     55. A(C   3,C   4,H  13)          119.9458         0.354985   
     56. A(C   5,C   4,H  13)          120.0028         0.354354   
     57. A(C   5,C   4,H  17)           93.2978         0.090085   
     58. A(C   3,C   4,H  17)           71.2397         0.090088   
     59. A(C   3,C   4,C   5)          120.0514         0.434336   
     60. A(H  13,C   4,H  17)          105.3186         0.089836   
     61. A(C   0,C   5,H  17)           80.6223         0.089905   
     62. A(C   0,C   5,C   4)          120.9791         0.429200   
     63. A(C   0,C   5,H  12)          120.6738         0.350864   
     64. A(C   4,C   5,H  12)          118.3471         0.354187   
     65. A(C   4,C   5,H  17)           76.5630         0.089916   
     66. A(H  12,C   5,H  17)          113.6014         0.089705   
     67. A(H   9,C   6,H  11)          107.3037         0.284056   
     68. A(C   0,C   6,H  10)          109.9825         0.324673   
     69. A(C   0,C   6,H   9)          112.0484         0.324501   
     70. A(H  10,C   6,H  11)          110.1523         0.284199   
     71. A(H   9,C   6,H  10)          107.3034         0.284056   
     72. A(C   0,C   6,H  11)          109.9821         0.324673   
     73. A(C   3,H   7,H  17)           79.6864         0.089548   
     74. A(C   2,H   8,H  17)           84.5766         0.089657   
     75. A(C   6,H  11,H  17)          120.5769         0.089410   
     76. A(C   4,H  13,H  17)           67.2301         0.089342   
     77. A(O  16,N  14,H  17)           86.9843         0.090118   
     78. A(O  15,N  14,H  17)          109.5341         0.090119   
     79. A(C   1,N  14,H  17)           73.8641         0.089943   
     80. A(O  15,N  14,O  16)          118.4731         0.509108   
     81. A(C   1,N  14,O  16)          120.1224         0.443144   
     82. A(C   1,N  14,O  15)          121.4045         0.443682   
     83. A(N  14,O  15,H  17)           62.5976         0.089753   
     84. A(N  14,O  16,H  17)           84.1779         0.090091   
     85. A(C   0,H  17,H   7)           29.4584         0.089002   
     86. A(C   0,H  17,O  16)           26.7229         0.089003   
     87. A(C   4,H  17,C   5)           10.1392         0.089003   
     88. A(C   3,H  17,C   5)           17.7303         0.089004   
     89. A(H   8,H  17,O  15)           28.1163         0.089002   
     90. A(C   1,H  17,O  16)           17.1101         0.089004   
     91. A(C   3,H  17,O  16)           31.4512         0.089004   
     92. A(C   1,H  17,H   7)           26.4897         0.089003   
     93. A(C   2,H  17,C   5)           20.6346         0.089004   
     94. A(C   1,H  17,C   5)           18.0692         0.089003   
     95. A(C   4,H  17,O  15)           36.5930         0.089002   
     96. A(C   3,H  17,O  15)           34.8899         0.089003   
     97. A(C   0,H  17,C   5)           10.2667         0.089003   
     98. A(C   1,H  17,O  15)           15.9537         0.089003   
     99. A(C   0,H  17,O  15)           20.2793         0.089002   
    100. A(H  11,H  17,N  14)           22.5015         0.089002   
    101. A(H   8,H  17,N  14)           20.2672         0.089003   
    102. A(H   7,H  17,N  14)           35.1641         0.089002   
    103. A(C   3,H  17,C   4)           10.2914         0.089004   
    104. A(C   2,H  17,C   4)           18.2661         0.089005   
    105. A(C   2,H  17,N  14)           18.4837         0.089005   
    106. A(C   1,H  17,C   4)           21.4249         0.089004   
    107. A(C   1,H  17,N  14)           10.6669         0.089004   
    108. A(C   0,H  17,N  14)           18.6933         0.089003   
    109. A(C   0,H  17,C   4)           18.0929         0.089003   
    110. A(H  11,H  17,H  13)           39.0988         0.089001   
    111. A(H   8,H  17,H  13)           31.8190         0.089001   
    112. A(H   7,H  17,H  13)           17.8178         0.089001   
    113. A(C   2,H  17,C   3)           10.9077         0.089007   
    114. A(C   3,H  17,H  13)           15.1828         0.089002   
    115. A(C   2,H  17,H  13)           24.9275         0.089002   
    116. A(C   1,H  17,C   3)           18.9835         0.089005   
    117. A(C   1,H  17,H  13)           28.8761         0.089002   
    118. A(C   0,H  17,H  13)           24.8334         0.089001   
    119. A(C   4,H  17,H  13)            7.4512         0.089001   
    120. A(C   5,H  17,H  13)           15.4519         0.089001   
    121. A(C   0,H  17,C   3)           21.1475         0.089004   
    122. A(H   8,H  17,H  11)           38.5996         0.089001   
    123. A(H   7,H  17,H  11)           45.2931         0.089001   
    124. A(C   5,H  17,H  11)           23.6513         0.089001   
    125. A(C   4,H  17,H  11)           33.2292         0.089002   
    126. A(C   3,H  17,H  11)           36.9891         0.089002   
    127. A(C   2,H  17,H  11)           32.2458         0.089002   
    128. A(C   1,H  17,H  11)           21.7546         0.089002   
    129. A(C   1,H  17,C   2)           10.8968         0.089006   
    130. A(C   3,H  17,N  14)           28.5782         0.089004   
    131. A(C   4,H  17,N  14)           32.0841         0.089003   
    132. A(C   5,H  17,N  14)           28.0336         0.089003   
    133. A(C   0,H  17,H  11)           15.8893         0.089002   
    134. A(C   0,H  17,C   2)           18.1985         0.089005   
    135. A(H   7,H  17,H   8)           18.9807         0.089002   
    136. A(H  13,H  17,N  14)           39.5343         0.089001   
    137. A(C   5,H  17,H   8)           29.1842         0.089002   
    138. A(C   4,H  17,H   8)           25.8947         0.089003   
    139. A(C   3,H  17,H   8)           16.7034         0.089004   
    140. A(C   2,H  17,O  15)           25.5860         0.089003   
    141. A(C   2,H  17,H   8)            8.5542         0.089004   
    142. A(C   1,H  17,H   8)           16.9215         0.089003   
    143. A(C   5,H  17,O  15)           30.4961         0.089002   
    144. A(H   7,H  17,O  15)           42.0756         0.089001   
    145. A(C   0,H  17,H   8)           26.0454         0.089002   
    146. A(H  11,H  17,O  15)           17.8275         0.089001   
    147. A(H  13,H  17,O  15)           43.9383         0.089001   
    148. A(N  14,H  17,O  15)            7.8684         0.089002   
    149. A(C   0,H  17,C   1)           10.4699         0.089004   
    150. A(C   5,H  17,H   7)           25.2827         0.089002   
    151. A(O  15,H  17,O  16)           14.4047         0.089002   
    152. A(C   2,H  17,O  16)           20.5469         0.089005   
    153. A(C   4,H  17,H   7)           16.1726         0.089002   
    154. A(C   4,H  17,O  16)           37.3000         0.089003   
    155. A(C   5,H  17,O  16)           35.1794         0.089003   
    156. A(H   7,H  17,O  16)           36.3947         0.089002   
    157. A(N  14,H  17,O  16)            8.8379         0.089003   
    158. A(H  13,H  17,O  16)           44.5717         0.089001   
    159. A(C   3,H  17,H   7)            8.3109         0.089003   
    160. A(H  11,H  17,O  16)           31.1049         0.089002   
    161. A(H   8,H  17,O  16)           18.3699         0.089002   
    162. A(C   2,H  17,H   7)           16.6854         0.089003   
    163. D(N  14,C   1,C   0,C   6)      0.0012         0.023014   
    164. D(C   2,C   1,C   0,C   6)   -179.9993         0.023014   
    165. D(H  17,C   1,C   0,C   5)     78.0171         0.023014   
    166. D(H  17,C   1,C   0,C   6)   -101.9825         0.023014   
    167. D(N  14,C   1,C   0,H  17)    101.9837         0.023014   
    168. D(C   2,C   1,C   0,C   5)      0.0003         0.023014   
    169. D(N  14,C   1,C   0,C   5)   -179.9991         0.023014   
    170. D(C   2,C   1,C   0,H  17)    -78.0168         0.023014   
    171. D(C   3,C   2,C   1,N  14)    179.9995         0.026261   
    172. D(H  17,C   2,C   1,N  14)    -88.4004         0.026261   
    173. D(H  17,C   2,C   1,C   0)     91.6002         0.026261   
    174. D(H   8,C   2,C   1,C   0)   -179.9997         0.026261   
    175. D(C   3,C   2,C   1,H  17)    -91.6001         0.026261   
    176. D(H   8,C   2,C   1,N  14)     -0.0003         0.026261   
    177. D(H   8,C   2,C   1,H  17)     88.4001         0.026261   
    178. D(C   3,C   2,C   1,C   0)      0.0001         0.026261   
    179. D(H  17,C   3,C   2,H   8)    -86.2329         0.030543   
    180. D(H   7,C   3,C   2,H   8)      0.0005         0.030543   
    181. D(C   4,C   3,C   2,H   8)    179.9994         0.030543   
    182. D(H  17,C   3,C   2,C   1)     93.7673         0.030543   
    183. D(C   4,C   3,C   2,H  17)    -93.7677         0.030543   
    184. D(H   7,C   3,C   2,H  17)     86.2334         0.030543   
    185. D(H   7,C   3,C   2,C   1)   -179.9993         0.030543   
    186. D(C   4,C   3,C   2,C   1)     -0.0004         0.030543   
    187. D(H  17,C   4,C   3,H   7)    -97.2576         0.031539   
    188. D(H  13,C   4,C   3,H   7)     -0.0003         0.031539   
    189. D(C   5,C   4,C   3,H   7)    179.9993         0.031539   
    190. D(C   5,C   4,C   3,H  17)    -82.7431         0.031539   
    191. D(H  13,C   4,C   3,C   2)   -179.9993         0.031539   
    192. D(C   5,C   4,C   3,C   2)      0.0003         0.031539   
    193. D(H  17,C   4,C   3,C   2)     82.7434         0.031539   
    194. D(H  13,C   4,C   3,H  17)     97.2573         0.031539   
    195. D(C   4,C   5,C   0,C   1)     -0.0004         0.027392   
    196. D(H  12,C   5,C   4,H  17)    109.8055         0.030839   
    197. D(H  17,C   5,C   4,C   3)     70.1940         0.030839   
    198. D(H  12,C   5,C   0,C   1)   -179.9998         0.027392   
    199. D(C   0,C   5,C   4,H  13)    179.9996         0.030839   
    200. D(H  17,C   5,C   4,H  13)   -109.8064         0.030839   
    201. D(H  12,C   5,C   4,C   3)    179.9995         0.030839   
    202. D(H  17,C   5,C   0,C   6)    111.9531         0.027392   
    203. D(H  12,C   5,C   0,C   6)     -0.0002         0.027392   
    204. D(C   0,C   5,C   4,H  17)    -70.1940         0.030839   
    205. D(C   4,C   5,C   0,C   6)    179.9993         0.027392   
    206. D(C   0,C   5,C   4,C   3)      0.0001         0.030839   
    207. D(H  12,C   5,C   0,H  17)   -111.9533         0.027392   
    208. D(H  12,C   5,C   4,H  13)     -0.0009         0.030839   
    209. D(H  17,C   5,C   0,C   1)    -68.0466         0.027392   
    210. D(C   4,C   5,C   0,H  17)     68.0462         0.027392   
    211. D(H  11,C   6,C   0,C   5)   -119.2578         0.012998   
    212. D(H  10,C   6,C   0,C   1)    -60.7440         0.012998   
    213. D(H  10,C   6,C   0,H  17)   -140.9859         0.012998   
    214. D(H   9,C   6,C   0,C   5)     -0.0006         0.012998   
    215. D(H   9,C   6,C   0,C   1)    179.9991         0.012998   
    216. D(H   9,C   6,C   0,H  17)     99.7571         0.012998   
    217. D(H  11,C   6,C   0,H  17)    -19.5001         0.012998   
    218. D(H  10,C   6,C   0,C   5)    119.2564         0.012998   
    219. D(H  11,C   6,C   0,C   1)     60.7419         0.012998   
    220. D(H  17,H   7,C   3,C   2)    -79.0443         0.129907   
    221. D(H  17,H   7,C   3,C   4)    100.9567         0.129907   
    222. D(H  17,H   8,C   2,C   1)    -92.1381         0.129863   
    223. D(H  17,H   8,C   2,C   3)     87.8621         0.129863   
    224. D(H  17,H  11,C   6,C   0)     21.3644         0.101556   
    225. D(H  17,H  11,C   6,H   9)   -100.7527         0.101556   
    226. D(H  17,H  11,C   6,H  10)    142.7488         0.101556   
    227. D(H  17,H  13,C   4,C   5)    103.1228         0.129941   
    228. D(H  17,H  13,C   4,C   3)    -76.8776         0.129941   
    229. D(O  15,N  14,C   1,H  17)    103.3673         0.020118   
    230. D(O  16,N  14,C   1,H  17)    -76.6334         0.020118   
    231. D(O  16,N  14,C   1,C   2)      0.0026         0.020118   
    232. D(H  17,N  14,C   1,C   0)   -103.3645         0.020118   
    233. D(H  17,N  14,C   1,C   2)     76.6360         0.020118   
    234. D(O  15,N  14,C   1,C   2)   -179.9967         0.020118   
    235. D(O  15,N  14,C   1,C   0)      0.0027         0.020118   
    236. D(O  16,N  14,C   1,C   0)   -179.9980         0.020118   
    237. D(H  17,O  15,N  14,O  16)     97.4068         0.117109   
    238. D(H  17,O  15,N  14,C   1)    -82.5939         0.117109   
    239. D(H  17,O  16,N  14,C   1)     69.3707         0.115279   
    240. D(H  17,O  16,N  14,O  15)   -110.6300         0.115279   
    241. D(H   7,H  17,C   1,C   0)    -96.6597         0.001500   
    242. D(C   1,H  17,C   5,C   4)    -95.1894         0.001500   
    243. D(C   5,H  17,C   1,C   2)     87.7461         0.001500   
    244. D(C   4,H  17,C   1,N  14)    177.3592         0.001500   
    245. D(O  15,H  17,C   4,H  13)    169.5443         0.001500   
    246. D(O  15,H  17,C   4,C   5)     47.1932         0.001500   
    247. D(C   4,H  17,C   1,C   0)    -58.0192         0.001500   
    248. D(C   3,H  17,C   1,C   2)     29.7843         0.001500   
    249. D(H  11,H  17,C   4,C   5)     16.3175         0.001500   
    250. D(C   2,H  17,C   1,N  14)    118.2955         0.001500   
    251. D(C   0,H  17,C   1,N  14)   -124.6216         0.001500   
    252. D(C   0,H  17,C   1,C   2)    117.0829         0.001500   
    253. D(H   7,H  17,C   4,C   3)     26.5256         0.001500   
    254. D(C   5,H  17,C   4,H  13)    122.3511         0.001500   
    255. D(O  16,H  17,C   0,C   6)    100.7000         0.001500   
    256. D(O  16,H  17,C   0,C   1)    -18.6565         0.001500   
    257. D(C   1,H  17,C   4,C   5)     57.7399         0.001500   
    258. D(O  15,H  17,C   0,C   5)   -173.1422         0.001500   
    259. D(N  14,H  17,C   0,C   6)     90.9802         0.001500   
    260. D(O  16,H  17,C   3,C   2)     -1.1756         0.001500   
    261. D(O  15,H  17,C   3,H   7)   -147.0456         0.001500   
    262. D(N  14,H  17,C   0,C   1)    -28.3763         0.001500   
    263. D(H  13,H  17,C   0,C   6)   -137.9597         0.001500   
    264. D(N  14,H  17,C   3,C   4)    101.3152         0.001500   
    265. D(H  13,H  17,C   0,C   5)    -18.8182         0.001500   
    266. D(N  14,H  17,C   0,C   5)   -149.8783         0.001500   
    267. D(C   0,H  17,C   4,C   3)    -92.6933         0.001500   
    268. D(O  15,H  17,C   0,C   1)    -51.6402         0.001500   
    269. D(C   1,H  17,C   4,H  13)   -179.9090         0.001500   
    270. D(O  15,H  17,C   0,C   6)     67.7163         0.001500   
    271. D(C   2,H  17,C   4,H  13)   -148.7555         0.001500   
    272. D(O  16,H  17,C   0,C   5)   -140.1586         0.001500   
    273. D(H  13,H  17,C   0,C   1)    102.6838         0.001500   
    274. D(H   7,H  17,C   4,C   5)    147.2015         0.001500   
    275. D(H   8,H  17,C   4,C   3)    -21.3244         0.001500   
    276. D(C   2,H  17,C   1,C   0)   -117.0829         0.001500   
    277. D(H  11,H  17,C   4,H  13)    138.6686         0.001500   
    278. D(C   3,H  17,C   1,C   0)    -87.2986         0.001500   
    279. D(N  14,H  17,C   4,C   3)    -62.0160         0.001500   
    280. D(C   3,H  17,C   1,N  14)    148.0798         0.001500   
    281. D(H  13,H  17,C   3,C   4)    -26.1865         0.001500   
    282. D(C   4,H  17,C   1,C   2)     59.0637         0.001500   
    283. D(O  16,H  17,C   4,H  13)   -166.4052         0.001500   
    284. D(C   5,H  17,C   1,C   0)    -29.3367         0.001500   
    285. D(C   1,H  17,C   5,H  12)    149.4477         0.001500   
    286. D(C   5,H  17,C   1,N  14)   -153.9584         0.001500   
    287. D(C   2,H  17,C   5,H  12)   -178.1397         0.001500   
    288. D(H   7,H  17,C   1,C   2)     20.4231         0.001500   
    289. D(H  13,H  17,C   3,C   2)   -145.4480         0.001500   
    290. D(H  11,H  17,C   0,C   6)      9.3771         0.001500   
    291. D(H  11,H  17,C   0,C   5)    128.5186         0.001500   
    292. D(H   8,H  17,C   3,H   7)    -92.9236         0.001500   
    293. D(H  11,H  17,C   0,C   1)   -109.9794         0.001500   
    294. D(H   8,H  17,C   3,C   4)    146.4581         0.001500   
    295. D(H   8,H  17,C   3,C   2)     27.1966         0.001500   
    296. D(H   8,H  17,C   0,C   6)    142.7752         0.001500   
    297. D(H   7,H  17,C   3,C   4)   -120.6183         0.001500   
    298. D(H   7,H  17,C   3,C   2)    120.1202         0.001500   
    299. D(H   8,H  17,C   0,C   5)    -98.0833         0.001500   
    300. D(H   8,H  17,C   0,C   1)     23.4187         0.001500   
    301. D(C   4,H  17,C   3,H   7)    120.6183         0.001500   
    302. D(H   7,H  17,C   0,C   6)   -176.3742         0.001500   
    303. D(H   7,H  17,C   0,C   5)    -57.2328         0.001500   
    304. D(C   0,H  17,O  16,N  14)    -20.6213         0.001500   
    305. D(C   1,H  17,C   3,H   7)   -149.8721         0.001500   
    306. D(H   7,H  17,C   0,C   1)     64.2693         0.001500   
    307. D(C   5,H  17,C   0,C   6)   -119.1415         0.001500   
    308. D(C   0,H  17,C   3,C   4)     59.3019         0.001500   
    309. D(C   5,H  17,C   0,C   1)    121.5020         0.001500   
    310. D(C   4,H  17,C   0,C   6)   -146.7507         0.001500   
    311. D(O  15,H  17,N  14,C   1)    118.2246         0.001500   
    312. D(H  13,H  17,N  14,O  16)    120.5529         0.001500   
    313. D(O  16,H  17,C   2,C   1)     56.8932         0.001500   
    314. D(C   4,H  17,C   0,C   5)    -27.6092         0.001500   
    315. D(C   4,H  17,C   0,C   1)     93.8928         0.001500   
    316. D(N  14,H  17,C   2,H   8)    -89.7276         0.001500   
    317. D(C   3,H  17,C   0,C   6)   -176.3977         0.001500   
    318. D(C   3,H  17,C   0,C   5)    -57.2562         0.001500   
    319. D(C   4,H  17,N  14,O  15)   -120.0403         0.001500   
    320. D(H  13,H  17,C   2,C   3)     20.6358         0.001500   
    321. D(C   3,H  17,C   0,C   1)     64.2458         0.001500   
    322. D(H  11,H  17,C   2,H   8)   -133.7019         0.001500   
    323. D(C   2,H  17,C   0,C   6)    151.9672         0.001500   
    324. D(H  11,H  17,C   2,C   3)    108.3210         0.001500   
    325. D(C   1,H  17,N  14,O  16)    122.5746         0.001500   
    326. D(H  11,H  17,C   2,C   1)    -13.0380         0.001500   
    327. D(C   2,H  17,C   0,C   5)    -88.8914         0.001500   
    328. D(H  13,H  17,C   2,C   1)   -100.7232         0.001500   
    329. D(C   4,H  17,N  14,O  16)    120.7588         0.001500   
    330. D(H  13,H  17,C   2,H   8)    138.6129         0.001500   
    331. D(N  14,H  17,C   2,C   1)     30.9362         0.001500   
    332. D(N  14,H  17,C   2,C   3)    152.2953         0.001500   
    333. D(H   8,H  17,N  14,C   1)    -57.1001         0.001500   
    334. D(O  15,H  17,C   2,C   1)     21.7875         0.001500   
    335. D(O  15,H  17,C   2,C   3)    143.1465         0.001500   
    336. D(O  15,H  17,C   2,H   8)    -98.8764         0.001500   
    337. D(H   8,H  17,C   2,C   3)   -117.9771         0.001500   
    338. D(O  16,H  17,C   2,C   3)    178.2522         0.001500   
    339. D(O  16,H  17,C   2,H   8)    -63.7707         0.001500   
    340. D(C   0,H  17,C   3,C   2)    -59.9596         0.001500   
    341. D(C   3,H  17,O  15,N  14)     33.0499         0.001500   
    342. D(C   0,H  17,C   3,H   7)    179.9202         0.001500   
    343. D(C   1,H  17,C   3,C   2)    -29.7520         0.001500   
    344. D(C   1,H  17,C   3,C   4)     89.5095         0.001500   
    345. D(C   1,H  17,O  16,N  14)    -32.0170         0.001500   
    346. D(C   2,H  17,C   3,C   4)    119.2615         0.001500   
    347. D(C   2,H  17,C   3,H   7)   -120.1202         0.001500   
    348. D(C   4,H  17,C   3,C   2)   -119.2615         0.001500   
    349. D(H  11,H  17,O  16,N  14)     11.3718         0.001500   
    350. D(C   5,H  17,C   3,C   2)    -89.4485         0.001500   
    351. D(C   5,H  17,C   3,C   4)     29.8130         0.001500   
    352. D(C   5,H  17,C   3,H   7)    150.4313         0.001500   
    353. D(H   8,H  17,C   2,C   1)    120.6638         0.001500   
    354. D(C   2,H  17,C   0,C   1)     32.6106         0.001500   
    355. D(O  15,H  17,H  13,C   4)     -8.9695         0.001500   
    356. D(H   7,H  17,C   2,H   8)     92.1627         0.001500   
    357. D(N  14,H  17,H  13,C   4)      0.8436         0.001500   
    358. D(H  11,H  17,C   3,C   2)    -57.3354         0.001500   
    359. D(H  11,H  17,C   3,C   4)     61.9261         0.001500   
    360. D(H  11,H  17,C   3,H   7)   -177.4556         0.001500   
    361. D(H  11,H  17,H  13,C   4)    -35.0186         0.001500   
    362. D(H   7,H  17,C   2,C   3)    -25.8145         0.001500   
    363. D(H  13,H  17,C   3,H   7)     94.4318         0.001500   
    364. D(N  14,H  17,C   3,C   2)    -17.9463         0.001500   
    365. D(C   1,H  17,C   0,C   6)    119.3565         0.001500   
    366. D(N  14,H  17,C   3,H   7)   -138.0665         0.001500   
    367. D(O  15,H  17,C   3,C   2)    -26.9255         0.001500   
    368. D(O  15,H  17,C   3,C   4)     92.3360         0.001500   
    369. D(H   7,H  17,C   2,C   1)   -147.1735         0.001500   
    370. D(C   5,H  17,C   2,H   8)    177.7596         0.001500   
    371. D(O  16,H  17,C   3,C   4)    118.0859         0.001500   
    372. D(O  16,H  17,C   3,H   7)   -121.2957         0.001500   
    373. D(C   1,H  17,C   0,C   5)   -121.5020         0.001500   
    374. D(C   0,H  17,C   4,C   5)     27.9826         0.001500   
    375. D(C   0,H  17,C   4,H  13)    150.3337         0.001500   
    376. D(C   1,H  17,C   4,C   3)    -62.9360         0.001500   
    377. D(C   5,H  17,C   2,C   3)     59.7824         0.001500   
    378. D(C   0,H  17,H  13,C   4)    -21.4687         0.001500   
    379. D(C   2,H  17,C   4,C   3)    -31.7824         0.001500   
    380. D(C   2,H  17,C   4,C   5)     88.8935         0.001500   
    381. D(O  16,H  17,H  11,C   6)    -74.4828         0.001500   
    382. D(C   3,H  17,C   4,C   5)    120.6759         0.001500   
    383. D(C   3,H  17,C   4,H  13)   -116.9730         0.001500   
    384. D(C   5,H  17,C   4,C   3)   -120.6759         0.001500   
    385. D(C   5,H  17,C   2,C   1)    -61.5766         0.001500   
    386. D(C   4,H  17,C   2,H   8)    147.7963         0.001500   
    387. D(H   8,H  17,H  11,C   6)    -44.7556         0.001500   
    388. D(H   7,H  17,C   4,H  13)    -90.4475         0.001500   
    389. D(C   4,H  17,C   2,C   3)     29.8192         0.001500   
    390. D(H   8,H  17,C   4,C   5)     99.3515         0.001500   
    391. D(H   8,H  17,C   4,H  13)   -138.2974         0.001500   
    392. D(H  11,H  17,C   4,C   3)   -104.3583         0.001500   
    393. D(C   4,H  17,C   2,C   1)    -91.5398         0.001500   
    394. D(C   4,H  17,H  11,C   6)     -0.7409         0.001500   
    395. D(H  13,H  17,C   4,C   3)    116.9730         0.001500   
    396. D(H  13,H  17,C   4,C   5)   -122.3511         0.001500   
    397. D(C   3,H  17,H  11,C   6)    -17.4587         0.001500   
    398. D(N  14,H  17,C   4,C   5)     58.6599         0.001500   
    399. D(N  14,H  17,C   4,H  13)   -178.9891         0.001500   
    400. D(O  15,H  17,C   4,C   3)    -73.4827         0.001500   
    401. D(C   3,H  17,C   2,H   8)    117.9771         0.001500   
    402. D(C   3,H  17,C   2,C   1)   -121.3591         0.001500   
    403. D(O  16,H  17,C   4,C   3)    -49.4321         0.001500   
    404. D(O  16,H  17,C   4,C   5)     71.2438         0.001500   
    405. D(O  16,H  17,H   8,C   2)     92.5660         0.001500   
    406. D(C   0,H  17,C   5,C   4)   -125.1583         0.001500   
    407. D(C   0,H  17,C   5,H  12)    119.4788         0.001500   
    408. D(C   1,H  17,C   5,C   0)     29.9689         0.001500   
    409. D(C   1,H  17,C   2,H   8)   -120.6638         0.001500   
    410. D(C   1,H  17,C   2,C   3)    121.3591         0.001500   
    411. D(C   2,H  17,C   5,C   0)     62.3815         0.001500   
    412. D(C   2,H  17,C   5,C   4)    -62.7768         0.001500   
    413. D(H  13,H  17,H   8,C   2)    -31.9052         0.001500   
    414. D(C   3,H  17,C   5,C   0)     94.8566         0.001500   
    415. D(C   3,H  17,C   5,C   4)    -30.3017         0.001500   
    416. D(C   3,H  17,C   5,H  12)   -145.6646         0.001500   
    417. D(H  11,H  17,H   8,C   2)     38.1907         0.001500   
    418. D(C   0,H  17,C   2,H   8)   -151.8655         0.001500   
    419. D(C   0,H  17,C   2,C   3)     90.1574         0.001500   
    420. D(C   3,H  17,H   8,C   2)    -35.5513         0.001500   
    421. D(C   0,H  17,C   2,C   1)    -31.2016         0.001500   
    422. D(C   0,H  17,H   8,C   2)     19.5968         0.001500   
    423. D(O  16,H  17,C   1,N  14)     26.1078         0.001500   
    424. D(O  16,H  17,H   7,C   3)     48.7139         0.001500   
    425. D(O  15,H  17,H   7,C   3)     27.6669         0.001500   
    426. D(O  16,H  17,C   1,C   2)    -92.1877         0.001500   
    427. D(O  16,H  17,C   1,C   0)    150.7294         0.001500   
    428. D(H   8,H  17,H   7,C   3)     61.9491         0.001500   
    429. D(O  15,H  17,C   1,N  14)    -26.0301         0.001500   
    430. D(O  15,H  17,C   1,C   2)   -144.3256         0.001500   
    431. D(C   2,H  17,H   7,C   3)     34.7553         0.001500   
    432. D(C   1,H  17,H   7,C   3)     21.4728         0.001500   
    433. D(O  15,H  17,C   1,C   0)     98.5916         0.001500   
    434. D(C   0,H  17,H   7,C   3)     -0.0586         0.001500   
    435. D(O  16,H  17,C   5,H  12)    149.4815         0.001500   
    436. D(N  14,H  17,C   1,C   2)   -118.2955         0.001500   
    437. D(O  16,H  17,C   5,C   4)    -95.1556         0.001500   
    438. D(O  16,H  17,C   5,C   0)     30.0027         0.001500   
    439. D(N  14,H  17,C   1,C   0)    124.6216         0.001500   
    440. D(O  15,H  17,C   5,H  12)    124.1565         0.001500   
    441. D(O  15,H  17,C   5,C   4)   -120.4805         0.001500   
    442. D(H  13,H  17,C   1,N  14)    177.3348         0.001500   
    443. D(C   4,H  17,H   7,C   3)    -33.5034         0.001500   
    444. D(C   5,H  17,H   7,C   3)    -20.6018         0.001500   
    445. D(O  15,H  17,C   5,C   0)      4.6777         0.001500   
    446. D(H  11,H  17,H   7,C   3)      2.1538         0.001500   
    447. D(H  13,H  17,H   7,C   3)    -58.5780         0.001500   
    448. D(N  14,H  17,H   7,C   3)     33.7149         0.001500   
    449. D(N  14,H  17,C   5,H  12)    139.4910         0.001500   
    450. D(H  13,H  17,C   1,C   2)     59.0392         0.001500   
    451. D(N  14,H  17,C   5,C   4)   -105.1461         0.001500   
    452. D(C   1,H  17,H   8,C   2)     33.9642         0.001500   
    453. D(N  14,H  17,C   5,C   0)     20.0122         0.001500   
    454. D(C   4,H  17,H   8,C   2)    -22.4874         0.001500   
    455. D(C   5,H  17,H   8,C   2)     -1.6190         0.001500   
    456. D(H   7,H  17,H   8,C   2)    -61.8999         0.001500   
    457. D(H  13,H  17,C   1,C   0)    -58.0436         0.001500   
    458. D(H  13,H  17,C   5,H  12)    -91.0833         0.001500   
    459. D(N  14,H  17,H   8,C   2)     66.2371         0.001500   
    460. D(O  15,H  17,H   8,C   2)     64.8803         0.001500   
    461. D(H  13,H  17,C   5,C   4)     24.2796         0.001500   
    462. D(C   0,H  17,H  11,C   6)    -13.9998         0.001500   
    463. D(C   1,H  17,H  11,C   6)    -41.4376         0.001500   
    464. D(C   2,H  17,H  11,C   6)    -34.8302         0.001500   
    465. D(H  11,H  17,C   1,N  14)    -80.6558         0.001500   
    466. D(H  13,H  17,C   5,C   0)    149.4379         0.001500   
    467. D(C   5,H  17,H  11,C   6)      6.3412         0.001500   
    468. D(H   7,H  17,H  11,C   6)    -17.9760         0.001500   
    469. D(H  11,H  17,C   5,H  12)     87.2055         0.001500   
    470. D(H  13,H  17,H  11,C   6)      7.0640         0.001500   
    471. D(N  14,H  17,H  11,C   6)    -69.9427         0.001500   
    472. D(O  15,H  17,H  11,C   6)    -88.4959         0.001500   
    473. D(H  11,H  17,C   1,C   2)    161.0486         0.001500   
    474. D(H  11,H  17,C   5,C   4)   -157.4315         0.001500   
    475. D(C   1,H  17,H  13,C   4)      0.0688         0.001500   
    476. D(C   2,H  17,H  13,C   4)     22.6890         0.001500   
    477. D(C   3,H  17,H  13,C   4)     37.4409         0.001500   
    478. D(C   5,H  17,H  13,C   4)    -33.9302         0.001500   
    479. D(H   7,H  17,H  13,C   4)     65.5382         0.001500   
    480. D(H   8,H  17,H  13,C   4)     33.4389         0.001500   
    481. D(H  11,H  17,C   5,C   0)    -32.2733         0.001500   
    482. D(H  11,H  17,C   1,C   0)     43.9658         0.001500   
    483. D(H   8,H  17,C   5,H  12)   -177.4564         0.001500   
    484. D(O  16,H  17,H  13,C   4)     11.7103         0.001500   
    485. D(C   0,H  17,N  14,C   1)     27.8126         0.001500   
    486. D(C   0,H  17,N  14,O  15)    -90.4120         0.001500   
    487. D(C   0,H  17,N  14,O  16)    150.3872         0.001500   
    488. D(C   1,H  17,N  14,O  15)   -118.2246         0.001500   
    489. D(H   8,H  17,C   5,C   4)    -62.0935         0.001500   
    490. D(C   2,H  17,N  14,C   1)    -31.6705         0.001500   
    491. D(C   2,H  17,N  14,O  15)   -149.8951         0.001500   
    492. D(C   2,H  17,N  14,O  16)     90.9041         0.001500   
    493. D(C   3,H  17,N  14,C   1)    -21.0729         0.001500   
    494. D(C   3,H  17,N  14,O  15)   -139.2975         0.001500   
    495. D(C   3,H  17,N  14,O  16)    101.5017         0.001500   
    496. D(C   4,H  17,N  14,C   1)     -1.8158         0.001500   
    497. D(H   8,H  17,C   1,N  14)     92.2178         0.001500   
    498. D(H   8,H  17,C   5,C   0)     63.0648         0.001500   
    499. D(C   5,H  17,N  14,C   1)     16.8418         0.001500   
    500. D(C   5,H  17,N  14,O  15)   -101.3828         0.001500   
    501. D(C   5,H  17,N  14,O  16)    139.4164         0.001500   
    502. D(H   7,H  17,N  14,C   1)    -30.7282         0.001500   
    503. D(H   7,H  17,N  14,O  15)   -148.9528         0.001500   
    504. D(H   7,H  17,N  14,O  16)     91.8463         0.001500   
    505. D(H   7,H  17,C   5,H  12)   -136.0505         0.001500   
    506. D(H   8,H  17,N  14,O  15)   -175.3247         0.001500   
    507. D(H   8,H  17,N  14,O  16)     65.4745         0.001500   
    508. D(H  11,H  17,N  14,C   1)     72.8613         0.001500   
    509. D(H  11,H  17,N  14,O  15)    -45.3633         0.001500   
    510. D(H  11,H  17,N  14,O  16)   -164.5641         0.001500   
    511. D(H  13,H  17,N  14,C   1)     -2.0217         0.001500   
    512. D(H  13,H  17,N  14,O  15)   -120.2463         0.001500   
    513. D(H   8,H  17,C   1,C   2)    -26.0777         0.001500   
    514. D(H   7,H  17,C   5,C   4)    -20.6876         0.001500   
    515. D(O  15,H  17,N  14,O  16)   -119.2008         0.001500   
    516. D(O  16,H  17,N  14,C   1)   -122.5746         0.001500   
    517. D(O  16,H  17,N  14,O  15)    119.2008         0.001500   
    518. D(C   0,H  17,O  15,N  14)     67.6212         0.001500   
    519. D(C   1,H  17,O  15,N  14)     36.3956         0.001500   
    520. D(C   2,H  17,O  15,N  14)     21.6056         0.001500   
    521. D(H   7,H  17,C   5,C   0)    104.4706         0.001500   
    522. D(C   4,H  17,O  15,N  14)     50.4740         0.001500   
    523. D(C   5,H  17,O  15,N  14)     65.2178         0.001500   
    524. D(H   7,H  17,O  15,N  14)     26.3115         0.001500   
    525. D(H   8,H  17,O  15,N  14)      3.4348         0.001500   
    526. D(H  11,H  17,O  15,N  14)    117.1884         0.001500   
    527. D(H  13,H  17,O  15,N  14)     52.4177         0.001500   
    528. D(O  16,H  17,O  15,N  14)    -32.6230         0.001500   
    529. D(H   8,H  17,C   1,C   0)   -143.1605         0.001500   
    530. D(C   4,H  17,C   5,H  12)   -115.3629         0.001500   
    531. D(C   2,H  17,O  16,N  14)    -64.5799         0.001500   
    532. D(C   3,H  17,O  16,N  14)    -63.9461         0.001500   
    533. D(C   4,H  17,O  16,N  14)    -48.8702         0.001500   
    534. D(C   5,H  17,O  16,N  14)    -32.0526         0.001500   
    535. D(H   7,H  17,O  16,N  14)    -75.9609         0.001500   
    536. D(H   8,H  17,O  16,N  14)    -89.6283         0.001500   
    537. D(C   4,H  17,C   5,C   0)    125.1583         0.001500   
    538. D(H  13,H  17,O  16,N  14)    -51.3596         0.001500   
    539. D(O  15,H  17,O  16,N  14)     28.7092         0.001500   
    540. D(H   7,H  17,C   1,N  14)    138.7187         0.001500   
    -----------------------------------------------------------------

Number of atoms                         .... 18
Number of degrees of freedom            .... 540

         *************************************************************
         *                GEOMETRY OPTIMIZATION CYCLE   1            *
         *************************************************************
---------------------------------
CARTESIAN COORDINATES (ANGSTROEM)
---------------------------------
  C     -0.982850    2.233600    0.495560
  C     -2.138060    2.714230   -0.198470
  C     -3.100010    1.770320   -0.625200
  C     -2.936160    0.407380   -0.381120
  C     -1.810490   -0.050600    0.293990
  C     -0.842480    0.851930    0.728730
  C      0.110560    3.141980    0.999130
  H     -3.686720   -0.296280   -0.717780
  H     -3.990040    2.086930   -1.153880
  H      0.919230    2.577420    1.510640
  H      0.573890    3.685290    0.149130
  H     -0.304050    3.863550    1.733840
  H      0.023470    0.464980    1.251980
  H     -1.686550   -1.109440    0.481740
  N     -2.363320    4.106670   -0.479900
  O     -1.583160    4.943220   -0.141870
  O     -3.347830    4.448680   -1.063730
  H     -6.993450    2.337240    5.458630

----------------------------
CARTESIAN COORDINATES (A.U.)
----------------------------
  NO LB      ZA    FRAG     MASS         X           Y           Z
   0 C     6.0000    0    12.011   -1.857317    4.220892    0.936473
   1 C     6.0000    0    12.011   -4.040348    5.129151   -0.375054
   2 C     6.0000    0    12.011   -5.858170    3.345420   -1.181457
   3 C     6.0000    0    12.011   -5.548538    0.769837   -0.720212
   4 C     6.0000    0    12.011   -3.421330   -0.095620    0.555561
   5 C     6.0000    0    12.011   -1.592056    1.609914    1.377100
   6 C     6.0000    0    12.011    0.208928    5.937482    1.888082
   7 H     1.0000    0     1.008   -6.966891   -0.559888   -1.356408
   8 H     1.0000    0     1.008   -7.540083    3.943726   -2.180517
   9 H     1.0000    0     1.008    1.737093    4.870618    2.854696
  10 H     1.0000    0     1.008    1.084495    6.964189    0.281815
  11 H     1.0000    0     1.008   -0.574571    7.301051    3.276483
  12 H     1.0000    0     1.008    0.044352    0.878685    2.365899
  13 H     1.0000    0     1.008   -3.187118   -2.096538    0.910357
  14 N     7.0000    0    14.007   -4.466028    7.760482   -0.906880
  15 O     8.0000    0    15.999   -2.991739    9.341332   -0.268095
  16 O     8.0000    0    15.999   -6.326482    8.406787   -2.010158
  17 H     1.0000    0     1.008  -13.215705    4.416744   10.315316

--------------------------------
INTERNAL COORDINATES (ANGSTROEM)
--------------------------------
 C      0   0   0     0.000000000000     0.00000000     0.00000000
 C      1   0   0     1.430801517297     0.00000000     0.00000000
 C      2   1   0     1.413652143740   118.13376753     0.00000000
 C      3   2   1     1.394283799124   121.32490576     0.00000000
 C      4   3   2     1.390198597827   120.14535431     0.00000000
 C      5   4   3     1.393055141981   120.05142060     0.00000000
 C      1   2   3     1.508072411193   123.02596762   180.00066331
 H      4   3   2     1.082505272412   119.96648800   180.00065683
 H      3   2   1     1.082542301899   120.77027137   180.00025925
 H      7   1   2     1.110998489018   112.04844498   179.99905749
 H      7   1   2     1.110117311368   109.98246149   299.25604054
 H      7   1   2     1.110118687844   109.98213916    60.74187782
 H      6   5   4     1.083231400717   118.34711713   179.99954858
 H      5   4   3     1.082475557091   119.94580652   180.00074279
 N      2   1   3     1.438344209882   123.13065431   180.00054878
 O     15   2   1     1.192782381241   121.40447822     0.00000000
 O     15   2   1     1.194607989719   120.12242769   180.00202258
 H      3   2   1     7.245223308422    93.43693698    91.60015931

---------------------------
INTERNAL COORDINATES (A.U.)
---------------------------
 C      0   0   0     0.000000000000     0.00000000     0.00000000
 C      1   0   0     2.703823019691     0.00000000     0.00000000
 C      2   1   0     2.671415400299   118.13376753     0.00000000
 C      3   2   1     2.634814533308   121.32490576     0.00000000
 C      4   3   2     2.627094621654   120.14535431     0.00000000
 C      5   4   3     2.632492707795   120.05142060     0.00000000
 C      1   2   3     2.849843847276   123.02596762   180.00066331
 H      4   3   2     2.045638503385   119.96648800   180.00065683
 H      3   2   1     2.045708478973   120.77027137   180.00025925
 H      7   1   2     2.099482879444   112.04844498   179.99905749
 H      7   1   2     2.097817695011   109.98246149   299.25604054
 H      7   1   2     2.097820296173   109.98213916    60.74187782
 H      6   5   4     2.047010687020   118.34711713   179.99954858
 H      5   4   3     2.045582349566   119.94580652   180.00074279
 N      2   1   3     2.718076642988   123.13065431   180.00054878
 O     15   2   1     2.254032037913   121.40447822     0.00000000
 O     15   2   1     2.257481937963   120.12242769   180.00202258
 H      3   2   1    13.691487832020    93.43693698    91.60015931

---------------------
BASIS SET INFORMATION
---------------------
There are 4 groups of distinct atoms

 Group   1 Type C   : 7s4p1d contracted to 3s2p1d pattern {511/31/1}
 Group   2 Type H   : 4s1p contracted to 2s1p pattern {31/1}
 Group   3 Type N   : 7s4p1d contracted to 3s2p1d pattern {511/31/1}
 Group   4 Type O   : 7s4p1d contracted to 3s2p1d pattern {511/31/1}

Atom   0C    basis set group =>   1
Atom   1C    basis set group =>   1
Atom   2C    basis set group =>   1
Atom   3C    basis set group =>   1
Atom   4C    basis set group =>   1
Atom   5C    basis set group =>   1
Atom   6C    basis set group =>   1
Atom   7H    basis set group =>   2
Atom   8H    basis set group =>   2
Atom   9H    basis set group =>   2
Atom  10H    basis set group =>   2
Atom  11H    basis set group =>   2
Atom  12H    basis set group =>   2
Atom  13H    basis set group =>   2
Atom  14N    basis set group =>   3
Atom  15O    basis set group =>   4
Atom  16O    basis set group =>   4
Atom  17H    basis set group =>   2
------------------------------------------------------------------------------
                           ORCA GTO INTEGRAL CALCULATION
------------------------------------------------------------------------------

                         BASIS SET STATISTICS AND STARTUP INFO

 # of primitive gaussian shells          ...  160
 # of primitive gaussian functions       ...  296
 # of contracted shells                  ...   84
 # of contracted basis functions         ...  180
 Highest angular momentum                ...    2
 Maximum contraction depth               ...    5
 Integral package used                   ... LIBINT
 Integral threshhold            Thresh   ...  2.500e-11
 Primitive cut-off              TCut     ...  2.500e-12


------------------------------ INTEGRAL EVALUATION ----------------------------


 * One electron integrals 
 Pre-screening matrix                    ... done
 Shell pair data                         ... done (   0.003 sec)

Timings:
 Total evaluation time               ...     0.004 sec (   0.000 min)
 One electron matrix time            ...     0.082 sec (   0.001 min) =2050.0%
 Schwartz matrix evaluation time     ...     0.543 sec (   0.009 min) =13575.0%

-------------------------------------------------------------------------------
                                 ORCA SCF
-------------------------------------------------------------------------------

------------
SCF SETTINGS
------------
Hamiltonian:
 Density Functional     Method          .... DFT(GTOs)
 Exchange Functional    Exchange        .... B88
   X-Alpha parameter    XAlpha          ....  0.666667
   Becke's b parameter  XBeta           ....  0.004200
 Correlation Functional Correlation     .... LYP
 LDA part of GGA corr.  LDAOpt          .... VWN-5
 Gradients option       PostSCFGGA      .... off
 Hybrid DFT is turned on
   Fraction HF Exchange ScalHFX         ....  0.200000
   Scaling of DF-GGA-X  ScalDFX         ....  0.720000
   Scaling of DF-GGA-C  ScalDFC         ....  0.810000
   Scaling of DF-LDA-C  ScalLDAC        ....  1.000000
   Perturbative correction              ....  0.000000
   Density functional embedding theory  .... OFF
   NL short-range parameter             ....  4.800000


General Settings:
 Integral files         IntName         .... products_optfreq
 Hartree-Fock type      HFTyp           .... RHF
 Total Charge           Charge          ....    1
 Multiplicity           Mult            ....    1
 Number of Electrons    NEL             ....   72
 Basis Dimension        Dim             ....  180
 Nuclear Repulsion      ENuc            ....    510.5379053004 Eh

Convergence Acceleration:
 DIIS                   CNVDIIS         .... on
   Start iteration      DIISMaxIt       ....    12
   Startup error        DIISStart       ....  0.200000
   # of expansion vecs  DIISMaxEq       ....     5
   Bias factor          DIISBfac        ....   1.050
   Max. coefficient     DIISMaxC        ....  10.000
 Newton-Raphson         CNVNR           .... off
 SOSCF                  CNVSOSCF        .... off
 Level Shifting         CNVShift        .... on
   Level shift para.    LevelShift      ....    0.2500
   Turn off err/grad.   ShiftErr        ....    0.0010
 Zerner damping         CNVZerner       .... off
 Static damping         CNVDamp         .... on
   Fraction old density DampFac         ....    0.7000
   Max. Damping (<1)    DampMax         ....    0.9800
   Min. Damping (>=0)   DampMin         ....    0.0000
   Turn off err/grad.   DampErr         ....    0.1000
 Fernandez-Rico         CNVRico         .... off

SCF Procedure:
 Maximum # iterations   MaxIter         ....  2000
 SCF integral mode      SCFMode         .... Direct
   Integral package                     .... LIBINT
 Reset frequency        DirectResetFreq ....    20
 Integral Threshold     Thresh          ....  2.500e-11 Eh
 Primitive CutOff       TCut            ....  2.500e-12 Eh

Convergence Tolerance:
 Convergence Check Mode ConvCheckMode   .... Total+1el-Energy
 Convergence forced     ConvForced      .... 0
 Energy Change          TolE            ....  1.000e-08 Eh
 1-El. energy change                    ....  1.000e-05 Eh
 DIIS Error             TolErr          ....  5.000e-07


Diagonalization of the overlap matrix:
Smallest eigenvalue                        ... 2.539e-04
Time for diagonalization                   ...    0.014 sec
Threshold for overlap eigenvalues          ... 1.000e-08
Number of eigenvalues below threshold      ... 0
Time for construction of square roots      ...    0.026 sec
Total time needed                          ...    0.040 sec

-------------------
DFT GRID GENERATION
-------------------

General Integration Accuracy     IntAcc      ...  4.340
Radial Grid Type                 RadialGrid  ... Gauss-Chebyshev
Angular Grid (max. acc.)         AngularGrid ... Lebedev-110
Angular grid pruning method      GridPruning ... 3 (G Style)
Weight generation scheme         WeightScheme... Becke
Basis function cutoff            BFCut       ...    1.0000e-11
Integration weight cutoff        WCut        ...    1.0000e-14
Grids for H and He will be reduced by one unit

# of grid points (after initial pruning)     ...  23078 (   0.0 sec)
# of grid points (after weights+screening)   ...  21438 (   0.2 sec)
nearest neighbour list constructed           ...    0.0 sec
Grid point re-assignment to atoms done       ...    0.0 sec
Grid point division into batches done        ...    0.1 sec
Reduced shell lists constructed in    1.0 sec

Total number of grid points                  ...    21438
Total number of batches                      ...      345
Average number of points per batch           ...       62
Average number of grid points per atom       ...     1191
Average number of shells per batch           ...    54.61 (65.01%)
Average number of basis functions per batch  ...   115.42 (64.12%)
Average number of large shells per batch     ...    41.83 (76.60%)
Average number of large basis fcns per batch ...    87.65 (75.95%)
Maximum spatial batch extension              ...  18.26, 21.99, 20.05 au
Average spatial batch extension              ...   3.80,  3.77,  4.02 au

Time for grid setup =    1.304 sec

------------------------------
INITIAL GUESS: MODEL POTENTIAL
------------------------------
Loading Hartree-Fock densities                     ... done
Calculating cut-offs                               ... done
Setting up the integral package                    ... done
Initializing the effective Hamiltonian             ... done
Starting the Coulomb interaction                   ... done (   0.9 sec)
Reading the grid                                   ... done
Mapping shells                                     ... done
Starting the XC term evaluation                    ... done (   1.0 sec)
  promolecular density results
     # of electrons  =     73.008722548
     EX              =    -61.307702011
     EC              =     -2.484663533
     EX+EC           =    -63.792365544
Transforming the Hamiltonian                       ... done (   0.0 sec)
Diagonalizing the Hamiltonian                      ... done (   0.0 sec)
Back transforming the eigenvectors                 ... done (   0.0 sec)
Now organizing SCF variables                       ... done
                      ------------------
                      INITIAL GUESS DONE (   3.7 sec)
                      ------------------
--------------
SCF ITERATIONS
--------------
ITER       Energy         Delta-E        Max-DP      RMS-DP      [F,P]     Damp
               ***  Starting incremental Fock matrix formation  ***
  0   -475.1700138027   0.000000000000 0.22603141  0.00379807  0.2006522 0.7000
  1   -475.3863585257  -0.216344723075 0.14946584  0.00251397  0.0778509 0.7000
                               ***Turning on DIIS***
  2   -475.3503969433   0.035961582472 0.37549726  0.00636945  0.0607928 0.0000
  3   -475.2250267637   0.125370179526 0.01992406  0.00057662  0.2191115 0.7000
  4   -475.2660302762  -0.041003512461 0.01705951  0.00059469  0.1928237 0.7000
  5   -475.3032664047  -0.037236128548 0.01388409  0.00050827  0.1676961 0.7000
  6   -475.3322821704  -0.029015765609 0.01181466  0.00042250  0.1471311 0.7000
  7   -475.3545245193  -0.022242348945 0.03005189  0.00109377  0.1301689 0.7000
  8   -475.3890363536  -0.034511834337 0.07386115  0.00285814  0.0822502 0.0000
  9   -475.4400152892  -0.050978935566 0.01527103  0.00040852  0.0110610 0.0000
 10   -475.4407385635  -0.000723274263 0.02368782  0.00044862  0.0104136 0.0000
 11   -475.4429771148  -0.002238551289 0.12442595  0.00241834  0.0143801 0.0000
 12   -475.5014385747  -0.058461459911 0.41384054  0.00456636  0.0444847 0.0000
 13   -475.3007261261   0.200712448526 0.06354255  0.00078031  0.2990078 0.7000
 14   -475.2049052114   0.095820914706 0.06460847  0.00090655  0.3160965 0.7000
 15   -475.0910880110   0.113817200397 0.05065706  0.00080493  0.2984237 0.7000
 16   -474.9899457665   0.101142244569 0.04800471  0.00071834  0.2552693 0.7000
 17   -474.9506934020   0.039252364489 0.14843509  0.00194385  0.2484914 0.7000
 18   -475.2558742321  -0.305180830119 0.17210126  0.00194694  0.1630062 0.7000
 19   -475.4591794140  -0.203305181929 0.41239976  0.00451965  0.0670722 0.0000
               *** Restarting incremental Fock matrix formation ***
                                   *** Resetting DIIS ***
 20   -475.4183174316   0.040861982406 0.81851081  0.00910462  0.0905031 0.0000
 21   -474.4913653796   0.926952052050 0.03285110  0.00051955  0.3502594 0.7000
 22   -474.5425879738  -0.051222594191 0.03293900  0.00055643  0.3194624 0.7000
 23   -474.5915000418  -0.048912068035 0.02819094  0.00050170  0.2876357 0.7000
 24   -474.6333556631  -0.041855621330 0.02399705  0.00043968  0.2725977 0.7000
 25   -474.6714600295  -0.038104366373 0.21468649  0.00349464  0.2641638 0.7000
 26   -475.2661285426  -0.594668513117 0.15042402  0.00199940  0.1026776 0.7000
 27   -475.4350838266  -0.168955284017 0.35105051  0.00442062  0.0489115 0.0000
 28   -475.3190677001   0.116016126564 0.00567051  0.00020064  0.1752927 0.7000
 29   -475.3285002732  -0.009432573087 0.00696916  0.00024241  0.1730958 0.7000
 30   -475.3393011809  -0.010800907703 0.00951742  0.00024824  0.1701699 0.7000
 31   -475.3494792477  -0.010178066841 0.00751011  0.00020915  0.1675945 0.7000
 32   -475.3580123030  -0.008533055299 0.24111071  0.00292144  0.1638798 0.7000
 33   -475.4813140345  -0.123301731538 0.51448150  0.00641309  0.0655947 0.0000
 34   -474.4930834118   0.988230622783 0.02487292  0.00049532  0.3178598 0.7000
 35   -474.5421256533  -0.049042241545 0.03545456  0.00069696  0.2921138 0.7000
 36   -474.5939095510  -0.051783897687 0.03768159  0.00071514  0.2769970 0.7000
 37   -474.6338211846  -0.039911633596 0.04725134  0.00080052  0.2701231 0.7000
 38   -474.6598325547  -0.026011370135 0.21258231  0.00378907  0.2702634 0.7000
 39   -475.2414769725  -0.581644417751 0.14880902  0.00205953  0.1032132 0.7000
               *** Restarting incremental Fock matrix formation ***
                                   *** Resetting DIIS ***
 40   -475.3789448431  -0.137467870642 0.34722114  0.00525144  0.0987411 0.0000
 41   -475.3663647055   0.012580137619 0.05977166  0.00236315  0.0849021 0.0000
 42   -475.4218874163  -0.055522710805 0.04869740  0.00132348  0.0447215 0.0000
 43   -475.4268492163  -0.004961799988 0.01749795  0.00058899  0.0557759 0.0000
 44   -475.4342230740  -0.007373857742 0.01542596  0.00080624  0.0318253 0.0000
 45   -475.4399170602  -0.005693986203 0.08378763  0.00139310  0.0094452 0.0000
 46   -475.4595536733  -0.019636613043 0.39959719  0.00500268  0.0471669 0.0000
 47   -475.3739200932   0.085633580106 0.07473947  0.00088554  0.2600407 0.7000
 48   -475.2754087007   0.098511392466 0.08087819  0.00106285  0.3179382 0.7000
 49   -475.1369590646   0.138449636060 0.06692197  0.00097053  0.3422833 0.7000
 50   -474.9986981668   0.138260897877 0.05914640  0.00081298  0.3221074 0.7000
 51   -474.8928696561   0.105828510651 0.07930290  0.00074057  0.2767363 0.7000
 52   -474.8122510000   0.080618656125 0.15118199  0.00189738  0.2624888 0.7000
 53   -475.1642194496  -0.351968449647 0.18512335  0.00214968  0.2340186 0.7000
 54   -475.4267165448  -0.262497095211 0.44455107  0.00488580  0.0945365 0.0000
 55   -475.3689629818   0.057753563042 0.00680139  0.00025270  0.1303335 0.7000
 56   -475.3759943363  -0.007031354543 0.00743338  0.00028999  0.1254630 0.7000
 57   -475.3835999473  -0.007605610934 0.00693359  0.00026018  0.1198949 0.7000
 58   -475.3903393066  -0.006739359350 0.00823544  0.00027018  0.1144094 0.7000
 59   -475.3981440497  -0.007804743052 0.22672151  0.00260537  0.1027711 0.7000
               *** Restarting incremental Fock matrix formation ***
                                   *** Resetting DIIS ***
 60   -475.5127845309  -0.114640481181 0.45434735  0.00575835  0.0474855 0.0000
 61   -474.8827017218   0.630082809073 0.02331616  0.00042295  0.2926186 0.7000
 62   -474.8940608594  -0.011359137586 0.03083385  0.00053921  0.3223612 0.7000
 63   -474.9015454284  -0.007484569008 0.02836106  0.00050141  0.3632672 0.7000
 64   -474.9048905761  -0.003345147679 0.02338490  0.00043235  0.4014434 0.7000
 65   -474.9066173320  -0.001726755942 0.19443276  0.00318601  0.4318862 0.7000
 66   -475.3197937033  -0.413176371307 0.13728663  0.00185556  0.1515913 0.7000
 67   -475.4336374876  -0.113843784263 0.32064434  0.00451181  0.0991973 0.0000
 68   -475.3563457035   0.077291784082 0.01075960  0.00040019  0.1541946 0.7000
 69   -475.3726276038  -0.016281900345 0.01422345  0.00050961  0.1378997 0.7000
 70   -475.3902810669  -0.017653463038 0.01563772  0.00048310  0.1166926 0.7000
 71   -475.4052671082  -0.014986041310 0.04029007  0.00131003  0.0942780 0.0000
 72   -475.4390215232  -0.033754415006 0.53755108  0.00643398  0.0416171 0.0000
 73   -475.2865095837   0.152511939444 0.04981115  0.00068884  0.4340024 0.7000
 74   -475.2023636110   0.084145972791 0.05409856  0.00084518  0.4573485 0.7000
 75   -475.0981533264   0.104210284551 0.04419585  0.00078660  0.4412940 0.7000
 76   -475.0048662795   0.093287046862 0.03798541  0.00065624  0.3891959 0.7000
 77   -474.9275320763   0.077334203247 0.11354966  0.00166214  0.3252035 0.7000
 78   -475.1338739727  -0.206341896435 0.18863946  0.00229910  0.2549213 0.7000
 79   -475.4167621460  -0.282888173279 0.45069793  0.00512665  0.0979242 0.0000
               *** Restarting incremental Fock matrix formation ***
                                   *** Resetting DIIS ***
 80   -475.3865153695   0.030246776509 0.25236345  0.00295350  0.1338066 0.7000
 81   -475.4953259601  -0.108810590634 0.50582643  0.00637147  0.0675889 0.0000
 82   -474.5810217529   0.914304207255 0.02792829  0.00040139  0.2908201 0.7000
 83   -474.6147707901  -0.033749037170 0.04038503  0.00053877  0.2835198 0.7000
 84   -474.6514718991  -0.036701109069 0.04255991  0.00056021  0.2752675 0.7000
 85   -474.6841084541  -0.032636555023 0.05609561  0.00066913  0.2678902 0.7000
 86   -474.7089173291  -0.024808874990 0.21357467  0.00368208  0.2678239 0.7000
 87   -475.2583527563  -0.549435427183 0.14962550  0.00204069  0.1032585 0.7000
 88   -475.3899329293  -0.131580173000 0.34917441  0.00452491  0.0938499 0.0000
 89   -475.2445466931   0.145386236215 0.00930752  0.00028131  0.1774173 0.7000
 90   -475.2648875303  -0.020340837151 0.01747123  0.00039940  0.1709545 0.7000
 91   -475.2898359340  -0.024948403769 0.01609023  0.00038118  0.1697080 0.7000
 92   -475.3132296998  -0.023393765788 0.01189720  0.00038310  0.1623921 0.7000
 93   -475.3353798462  -0.022150146393 0.23750772  0.00293394  0.1474251 0.7000
 94   -475.4819298350  -0.146549988842 0.50757365  0.00661233  0.0593852 0.0000
 95   -474.5880192097   0.893910625352 0.03350502  0.00053066  0.2858139 0.7000
 96   -474.6274824399  -0.039463230177 0.03461448  0.00066691  0.2712029 0.7000
 97   -474.6650762983  -0.037593858405 0.03077449  0.00064620  0.2557131 0.7000
 98   -474.6927106733  -0.027634375031 0.03972593  0.00070361  0.2441972 0.7000
 99   -474.7052660537  -0.012555380434 0.19379676  0.00367734  0.2509576 0.7000
               *** Restarting incremental Fock matrix formation ***
                                   *** Resetting DIIS ***
100   -475.2521969666  -0.546930912903 0.45230389  0.00690874  0.0851376 0.0000
101   -475.0150101223   0.237186844385 0.02195233  0.00059723  0.3572470 0.7000
102   -475.0813966937  -0.066386571452 0.02405355  0.00069291  0.3319395 0.7000
103   -475.1498282656  -0.068431571889 0.02019547  0.00064193  0.3044610 0.7000
104   -475.2077393637  -0.057911098102 0.02063427  0.00056029  0.2759925 0.7000
105   -475.2543238259  -0.046584462170 0.24766312  0.00308006  0.2474618 0.7000
106   -475.4649113757  -0.210587549797 0.49886202  0.00677262  0.0605564 0.0000
107   -474.5504153431   0.914496032563 0.04305219  0.00062568  0.3024616 0.7000
108   -474.5983021797  -0.047886836631 0.06384654  0.00084717  0.2686992 0.7000
109   -474.6437742338  -0.045472054028 0.06528592  0.00084412  0.2544078 0.7000
110   -474.6748640939  -0.031089860083 0.06417404  0.00080552  0.2427945 0.7000
111   -474.6931985049  -0.018334411096 0.18962639  0.00371640  0.2355163 0.7000
112   -475.2460827215  -0.552884216559 0.44253510  0.00679845  0.0811112 0.0000
113   -474.9595578208   0.286524900688 0.01714720  0.00048141  0.2883771 0.7000
114   -475.0196182966  -0.060060475740 0.02636951  0.00062171  0.2734985 0.7000
115   -475.0879204379  -0.068302141371 0.03230874  0.00066999  0.2632113 0.7000
116   -475.1505902721  -0.062669834173 0.02596989  0.00058824  0.2562303 0.7000
117   -475.2033885527  -0.052798280644 0.23356819  0.00319382  0.2420315 0.7000
118   -475.4280645580  -0.224676005251 0.14992609  0.00211266  0.1047443 0.7000
119   -475.3799940194   0.048070538619 0.11544261  0.00152018  0.1100911 0.7000
               *** Restarting incremental Fock matrix formation ***
                                   *** Resetting DIIS ***
120   -475.2769420444   0.103051974929 0.13206392  0.00201498  0.1240595 0.7000
121   -475.4491255599  -0.172183515464 0.30815212  0.00403175  0.0368244 0.0000
122   -475.3008915904   0.148233969524 0.00940342  0.00018082  0.2260455 0.7000
123   -475.3107207657  -0.009829175266 0.00969524  0.00018967  0.2130937 0.7000
124   -475.3204915078  -0.009770742128 0.00810183  0.00016034  0.2003713 0.7000
125   -475.3286658149  -0.008174307089 0.00682745  0.00011996  0.1900957 0.7000
126   -475.3345538855  -0.005888070679 0.22860375  0.00297528  0.1815584 0.7000
127   -475.5022079484  -0.167654062858 0.49767213  0.00636089  0.0404988 0.0000
128   -474.5954570365   0.906750911863 0.02178950  0.00034330  0.2873706 0.7000
129   -474.6162537734  -0.020796736889 0.02190048  0.00039871  0.2819897 0.7000
130   -474.6374995272  -0.021245753732 0.01988187  0.00038293  0.2780189 0.7000
131   -474.6557410425  -0.018241515321 0.02475397  0.00040466  0.2751731 0.7000
132   -474.6701556313  -0.014414588769 0.20816284  0.00376339  0.2726633 0.7000
133   -475.2436945105  -0.573538879280 0.46343318  0.00669762  0.0900643 0.0000
134   -475.0403349425   0.203359567987 0.01493811  0.00047120  0.3622175 0.7000
135   -475.0896693835  -0.049334440940 0.01623361  0.00055549  0.3419048 0.7000
136   -475.1411895771  -0.051520193647 0.01512313  0.00051505  0.3213499 0.7000
137   -475.1853860047  -0.044196427570 0.01555534  0.00045053  0.3015288 0.7000
138   -475.2229639148  -0.037577910122 0.22706441  0.00317784  0.2809648 0.7000
139   -475.4571243815  -0.234160466681 0.49865508  0.00665642  0.0565477 0.0000
               *** Restarting incremental Fock matrix formation ***
                                   *** Resetting DIIS ***
140   -474.4946294981   0.962494883417 0.22649386  0.00411760  0.3186559 0.7000
141   -475.1805069334  -0.685877435264 0.15240109  0.00209757  0.1080149 0.7000
142   -475.3496569965  -0.169150063168 0.10668077  0.00136830  0.1133880 0.7000
143   -475.3859120926  -0.036255096098 0.07467654  0.00099849  0.1598280 0.7000
144   -475.3854477219   0.000464370762 0.05227358  0.00074319  0.1813452 0.7000
145   -475.3755847396   0.009862982306 0.03659150  0.00054817  0.1925486 0.7000
146   -475.3650454056   0.010539333966 0.02561405  0.00052232  0.1979965 0.7000
147   -475.3647478155   0.000297590073 0.03142334  0.00076440  0.1882755 0.7000
148   -475.3803459650  -0.015598149488 0.04615958  0.00102605  0.1500310 0.7000
149   -475.4038791252  -0.023533160220 0.84126282  0.00906034  0.0890522 0.0000
150   -474.4763495885   0.927529536755 0.03183700  0.00038563  0.3349114 0.7000
151   -474.5123151206  -0.035965532117 0.03057987  0.00039575  0.3226099 0.7000
152   -474.5480287376  -0.035713617025 0.02396305  0.00033054  0.3105759 0.7000
153   -474.5782662981  -0.030237560491 0.02757828  0.00035848  0.3010678 0.7000
154   -474.6083444797  -0.030078181577 0.22697701  0.00358546  0.2897939 0.7000
155   -475.2410224387  -0.632677958984 0.15888391  0.00204133  0.1159022 0.7000
156   -475.4197958522  -0.178773413517 0.37072911  0.00450047  0.0677755 0.0000
157   -475.2840355551   0.135760297119 0.00528687  0.00016235  0.1921530 0.7000
158   -475.2939708618  -0.009935306693 0.00617788  0.00018901  0.1863042 0.7000
159   -475.3051221838  -0.011151322039 0.00721334  0.00017386  0.1798079 0.7000
               *** Restarting incremental Fock matrix formation ***
                                   *** Resetting DIIS ***
160   -475.3149715712  -0.009849387444 0.19574319  0.00313906  0.1718397 0.7000
161   -475.4823635911  -0.167392019912 0.49814196  0.00656470  0.0509763 0.0000
162   -474.5740665949   0.908296996296 0.02178352  0.00048746  0.2641317 0.7000
163   -474.6117591074  -0.037692512552 0.02344327  0.00058776  0.2543522 0.7000
164   -474.6486446078  -0.036885500360 0.02212621  0.00055214  0.2438697 0.7000
165   -474.6772080524  -0.028563444612 0.02997641  0.00056803  0.2407309 0.7000
166   -474.6887648893  -0.011556836941 0.19980863  0.00375949  0.2517183 0.7000
167   -475.2515175975  -0.562752708195 0.44841560  0.00686930  0.0838312 0.0000
168   -474.9919667145   0.259550883059 0.01490154  0.00047167  0.3199420 0.7000
169   -475.0484675786  -0.056500864154 0.02040494  0.00057157  0.3004087 0.7000
170   -475.1105433874  -0.062075808780 0.02258352  0.00056529  0.2824558 0.7000
171   -475.1656746275  -0.055131240155 0.01876125  0.00050243  0.2671307 0.7000
172   -475.2115569744  -0.045882346816 0.24715325  0.00316160  0.2498032 0.7000
173   -475.4445569615  -0.232999987187 0.50601746  0.00708410  0.0903429 0.0000
174   -474.5739449184   0.870612043102 0.04319006  0.00068898  0.2702195 0.7000
175   -474.6216551275  -0.047710209069 0.05983386  0.00085926  0.2504210 0.7000
176   -474.6641381558  -0.042483028302 0.06088639  0.00082867  0.2388227 0.7000
177   -474.6923133282  -0.028175172357 0.06324710  0.00079619  0.2409741 0.7000
178   -474.7044237267  -0.012110398497 0.18432388  0.00373703  0.2508353 0.7000
179   -475.2430978263  -0.538674099602 0.43008906  0.00678750  0.0802894 0.0000
               *** Restarting incremental Fock matrix formation ***
                                   *** Resetting DIIS ***
180   -474.9512797951   0.291818031203 0.22589233  0.00518743  0.3205897 0.7000
181   -475.2576293309  -0.306349535827 0.50016299  0.00792381  0.0500887 0.0000
182   -474.2949888494   0.962640481521 0.03921788  0.00102072  0.3111731 0.7000
183   -474.3922059373  -0.097217087963 0.03789613  0.00113556  0.3172904 0.7000
184   -474.4704026779  -0.078196740577 0.02684116  0.00097997  0.3212121 0.7000
185   -474.5295179870  -0.059115309069 0.02290586  0.00082158  0.3176507 0.7000
186   -474.5727798429  -0.043261855965 0.26214399  0.00396942  0.3124550 0.7000
187   -475.1981917207  -0.625411877767 0.46534498  0.00699164  0.0908565 0.0000
188   -474.9916990861   0.206492634622 0.01658161  0.00053090  0.3681351 0.7000
189   -475.0529151204  -0.061216034289 0.02000294  0.00064595  0.3437043 0.7000
190   -475.1181946656  -0.065279545249 0.01942447  0.00061630  0.3196205 0.7000
191   -475.1744470948  -0.056252429141 0.01784949  0.00054369  0.2961225 0.7000
192   -475.2211782823  -0.046731187563 0.25578297  0.00317324  0.2715153 0.7000
193   -475.4535728700  -0.232394587632 0.49813744  0.00683516  0.0619425 0.0000
194   -474.5169792849   0.936593585028 0.04229433  0.00063574  0.3308006 0.7000
195   -474.5722228348  -0.055243549857 0.06629954  0.00088818  0.2917956 0.7000
196   -474.6273100422  -0.055087207433 0.06899272  0.00089032  0.2483224 0.7000
197   -474.6656755836  -0.038365541398 0.06635291  0.00083606  0.2391419 0.7000
198   -474.6888801073  -0.023204523677 0.19515241  0.00372934  0.2334616 0.7000
199   -475.2467853450  -0.557905237662 0.43844466  0.00681450  0.0796262 0.0000
               *** Restarting incremental Fock matrix formation ***
                                   *** Resetting DIIS ***
200   -474.9527032555   0.294082089488 0.22519574  0.00567158  0.2941497 0.7000
201   -475.1819977252  -0.229294469758 0.50208984  0.00791087  0.0642416 0.0000
202   -474.6045902250   0.577407500251 0.03827004  0.00071666  0.2784122 0.7000
203   -474.6626112171  -0.058020992127 0.04031621  0.00076671  0.2613263 0.7000
204   -474.7229827375  -0.060371520403 0.03556288  0.00069690  0.2428016 0.7000
205   -474.7771587955  -0.054176058033 0.03933006  0.00094801  0.2261459 0.7000
206   -474.8429162108  -0.065757415262 0.17951278  0.00286771  0.2195414 0.7000
207   -475.3140609422  -0.471144731349 0.41886544  0.00616659  0.0708462 0.0000
208   -475.2268395951   0.087221347056 0.00969012  0.00022566  0.2088165 0.7000
209   -475.2441358495  -0.017296254357 0.01023340  0.00025456  0.1961471 0.7000
210   -475.2631605104  -0.019024660938 0.00849361  0.00023713  0.1836043 0.7000
211   -475.2802980743  -0.017137563891 0.00665010  0.00022000  0.1737316 0.7000
212   -475.2954897083  -0.015191633963 0.22727381  0.00298412  0.1665979 0.7000
213   -475.4981448628  -0.202655154556 0.49210421  0.00637520  0.0277042 0.0000
214   -474.6688276876   0.829317175210 0.01918396  0.00029171  0.2750710 0.7000
[...]
1787   -475.2304114097  -0.607411381816 0.47223423  0.00677005  0.0936905 0.0000
1788   -475.0792698932   0.151141516528 0.01473081  0.00037145  0.3223291 0.7000
1789   -475.1172540633  -0.037984170129 0.01556719  0.00042339  0.3006034 0.7000
1790   -475.1580502383  -0.040796174990 0.01401162  0.00039425  0.2789067 0.7000
1791   -475.1940344303  -0.035984192036 0.01183769  0.00037045  0.2601709 0.7000
1792   -475.2255837565  -0.031549326182 0.21876542  0.00309541  0.2447534 0.7000
1793   -475.4714645286  -0.245880772051 0.51134258  0.00669385  0.0423515 0.0000
1794   -474.6493096478   0.822154880776 0.02928703  0.00043390  0.2517179 0.7000
1795   -474.6762406383  -0.026930990534 0.04094384  0.00055878  0.2447971 0.7000
1796   -474.7025775862  -0.026336947854 0.04214569  0.00056369  0.2371565 0.7000
1797   -474.7228166508  -0.020239064654 0.03746181  0.00051626  0.2312992 0.7000
1798   -474.7386255389  -0.015808888043 0.18333658  0.00362945  0.2265584 0.7000
1799   -475.2669849903  -0.528359451415 0.42778535  0.00673353  0.0752162 0.0000
               *** Restarting incremental Fock matrix formation ***
                                   *** Resetting DIIS ***
1800   -474.9765306228   0.290454367503 0.22577566  0.00474388  0.3013589 0.7000
1801   -475.3243268238  -0.347796201054 0.49780300  0.00783589  0.0493524 0.0000
1802   -474.3692751390   0.955051684879 0.03001540  0.00087635  0.3299682 0.7000
1803   -474.4372345963  -0.067959457376 0.02994375  0.00097658  0.3277862 0.7000
1804   -474.4917395211  -0.054504924728 0.02357583  0.00084767  0.3272459 0.7000
1805   -474.5306075388  -0.038868017769 0.01955551  0.00067813  0.3246277 0.7000
1806   -474.5592220097  -0.028614470825 0.26805240  0.00415313  0.3206229 0.7000
1807   -475.1931777985  -0.633955788881 0.45442614  0.00713625  0.0863118 0.0000
1808   -474.9357711351   0.257406663405 0.01983380  0.00058059  0.3839360 0.7000
1809   -475.0074484416  -0.071677306506 0.02387586  0.00071386  0.3608334 0.7000
1810   -475.0832426518  -0.075794210169 0.02141250  0.00067326  0.3378210 0.7000
1811   -475.1480899406  -0.064847288768 0.01935841  0.00058713  0.3133458 0.7000
1812   -475.2014836132  -0.053393672650 0.25978524  0.00325430  0.2866976 0.7000
1813   -475.4454418999  -0.243958286702 0.49972956  0.00685989  0.0599211 0.0000
1814   -474.4809651739   0.964476726029 0.04179475  0.00065215  0.3473311 0.7000
1815   -474.5419775029  -0.061012328980 0.06778611  0.00092454  0.3080212 0.7000
1816   -474.6043410986  -0.062363595736 0.07116928  0.00092516  0.2584309 0.7000
1817   -474.6480780362  -0.043736937539 0.06764326  0.00085903  0.2478213 0.7000
1818   -474.6752207069  -0.027142670754 0.20042835  0.00377568  0.2401428 0.7000
1819   -475.2424100667  -0.567189359772 0.44882147  0.00685947  0.0838985 0.0000
               *** Restarting incremental Fock matrix formation ***
                                   *** Resetting DIIS ***
1820   -474.9376973995   0.304712667158 0.20981792  0.00569606  0.3010070 0.7000
1821   -475.1775968460  -0.239899446491 0.49989660  0.00795004  0.0635350 0.0000
1822   -474.5797138771   0.597882968932 0.03298515  0.00074242  0.2709545 0.7000
1823   -474.6419137826  -0.062199905468 0.03558054  0.00080331  0.2561056 0.7000
1824   -474.7055662471  -0.063652464585 0.03194247  0.00072951  0.2396625 0.7000
1825   -474.7623798802  -0.056813633072 0.03919871  0.00092962  0.2246333 0.7000
1826   -474.8276355290  -0.065255648758 0.17960074  0.00295469  0.2199713 0.7000
1827   -475.3066957324  -0.479060203477 0.41906847  0.00621453  0.0710926 0.0000
1828   -475.2086481058   0.098047626667 0.01147824  0.00025108  0.2229200 0.7000
1829   -475.2284972771  -0.019849171290 0.01203477  0.00028183  0.2078053 0.7000
1830   -475.2501942323  -0.021696955256 0.01005083  0.00025963  0.1929304 0.7000
1831   -475.2696082901  -0.019414057760 0.00750601  0.00023696  0.1811171 0.7000
1832   -475.2866170257  -0.017008735634 0.22511250  0.00300444  0.1726814 0.7000
1833   -475.4907755560  -0.204158530263 0.49464885  0.00655653  0.0472741 0.0000
1834   -474.6390155797   0.851759976287 0.02960668  0.00039638  0.2752335 0.7000
1835   -474.6650208107  -0.026005230953 0.02928868  0.00045668  0.2621022 0.7000
1836   -474.6911480122  -0.026127201559 0.02481434  0.00044096  0.2488722 0.7000
1837   -474.7128760227  -0.021728010447 0.02818061  0.00043296  0.2422239 0.7000
1838   -474.7287121678  -0.015836145160 0.18805283  0.00357261  0.2411510 0.7000
1839   -475.2676267719  -0.538914604123 0.43805503  0.00659596  0.0793556 0.0000
               *** Restarting incremental Fock matrix formation ***
                                   *** Resetting DIIS ***
1840   -475.0647690633   0.202857708650 0.22790692  0.00411087  0.3283411 0.7000
1841   -475.3807925423  -0.316023479058 0.49727533  0.00763622  0.0551012 0.0000
1842   -474.4267810782   0.954011464146 0.03584479  0.00086479  0.2775259 0.7000
1843   -474.4987879255  -0.072006847295 0.04212832  0.00103871  0.2668363 0.7000
1844   -474.5567201989  -0.057932273414 0.03990119  0.00095140  0.2693155 0.7000
1845   -474.5924474412  -0.035727242293 0.03732091  0.00080996  0.2798405 0.7000
1846   -474.6110992907  -0.018651849469 0.21907989  0.00411755  0.2880819 0.7000
1847   -475.2052364504  -0.594137159775 0.44724366  0.00717465  0.0832552 0.0000
1848   -474.8457576922   0.359478758268 0.02336345  0.00060836  0.3557432 0.7000
1849   -474.9326583235  -0.086900631354 0.03310075  0.00080001  0.3363851 0.7000
1850   -475.0298289745  -0.097170650957 0.03568225  0.00081164  0.3206677 0.7000
1851   -475.1150131261  -0.085184151617 0.02660296  0.00070547  0.3028384 0.7000
1852   -475.1841851572  -0.069172031112 0.25866542  0.00327374  0.2773450 0.7000
1853   -475.4278124924  -0.243627335142 0.50028599  0.00700595  0.0854513 0.0000
1854   -474.4900865101   0.937725982257 0.05005057  0.00073900  0.3372909 0.7000
1855   -474.5544771303  -0.064390620178 0.07646060  0.00101620  0.2907796 0.7000
1856   -474.6141627002  -0.059685569944 0.07540179  0.00097757  0.2500985 0.7000
1857   -474.6517931642  -0.037630463993 0.07268160  0.00090598  0.2360588 0.7000
1858   -474.6702912181  -0.018498053903 0.18465798  0.00379450  0.2452944 0.7000
1859   -475.2352530147  -0.564961796530 0.43086864  0.00685975  0.0761500 0.0000
               *** Restarting incremental Fock matrix formation ***
                                   *** Resetting DIIS ***
1860   -474.9288726004   0.306380414291 0.22630440  0.00573436  0.2951375 0.7000
1861   -475.1818149947  -0.252942394293 0.50193568  0.00795394  0.0631025 0.0000
1862   -474.4722932458   0.709521748819 0.02437741  0.00081652  0.2788139 0.7000
1863   -474.5575351114  -0.085241865589 0.02752007  0.00089121  0.2694194 0.7000
1864   -474.6406214720  -0.083086360626 0.03112030  0.00080331  0.2571652 0.7000
1865   -474.7124150412  -0.071793569137 0.02542830  0.00090250  0.2429367 0.7000
1866   -474.7898462139  -0.077431172700 0.19000264  0.00294890  0.2364008 0.7000
1867   -475.2966920761  -0.506845862190 0.44333957  0.00627751  0.0815245 0.0000
1868   -475.2174702359   0.079221840212 0.00840772  0.00021989  0.1995392 0.7000
1869   -475.2350950811  -0.017624845202 0.00914768  0.00025181  0.1924300 0.7000
1870   -475.2545417464  -0.019446665317 0.00826460  0.00023453  0.1848976 0.7000
1871   -475.2719509246  -0.017409178182 0.00644873  0.00022520  0.1780822 0.7000
1872   -475.2878494506  -0.015898525992 0.22500614  0.00297799  0.1703991 0.7000
1873   -475.4863967842  -0.198547333681 0.49689310  0.00669534  0.0541592 0.0000
1874   -474.6267751635   0.859621620716 0.03392609  0.00047347  0.2761389 0.7000
1875   -474.6585679318  -0.031792768238 0.03350272  0.00053464  0.2610195 0.7000
1876   -474.6891387224  -0.030570790658 0.02562735  0.00049302  0.2501632 0.7000
1877   -474.7128772609  -0.023738538461 0.02160004  0.00048625  0.2474126 0.7000
1878   -474.7258602823  -0.012983021391 0.21151928  0.00360032  0.2509541 0.7000
1879   -475.2649100786  -0.539049796368 0.43146151  0.00668091  0.0764760 0.0000
               *** Restarting incremental Fock matrix formation ***
                                   *** Resetting DIIS ***
1880   -475.0452347397   0.219675338891 0.25731659  0.00416702  0.3304507 0.7000
1881   -475.3791040768  -0.333869337048 0.49563139  0.00767808  0.0559575 0.0000
1882   -474.4445464640   0.934557612752 0.04441385  0.00079768  0.2852827 0.7000
1883   -474.5041104762  -0.059564012171 0.05805834  0.00093071  0.2797044 0.7000
1884   -474.5527106380  -0.048600161772 0.05588543  0.00085588  0.2821628 0.7000
1885   -474.5834808248  -0.030770186790 0.04912439  0.00073606  0.2851825 0.7000
1886   -474.6011801445  -0.017699319714 0.20541555  0.00418402  0.2878140 0.7000
1887   -475.1974692144  -0.596289069910 0.43996474  0.00717985  0.0801486 0.0000
1888   -474.8340912613   0.363377953077 0.02513991  0.00067012  0.3698673 0.7000
1889   -474.9289743802  -0.094883118880 0.03563610  0.00088458  0.3495443 0.7000
1890   -475.0329336255  -0.103959245286 0.03492105  0.00086485  0.3310906 0.7000
1891   -475.1215060091  -0.088572383650 0.02436654  0.00073482  0.3078930 0.7000
1892   -475.1917755342  -0.070269525032 0.22644772  0.00322450  0.2784187 0.7000
1893   -475.4336007501  -0.241825215903 0.50057608  0.00678254  0.0735631 0.0000
1894   -474.4725958350   0.961004915089 0.03337291  0.00066492  0.3264471 0.7000
1895   -474.5386535569  -0.066057721919 0.04917741  0.00095686  0.2916721 0.7000
1896   -474.6043938487  -0.065740291762 0.04796002  0.00093261  0.2612684 0.7000
1897   -474.6481722289  -0.043778380224 0.04585811  0.00084915  0.2500183 0.7000
1898   -474.6733895892  -0.025217360359 0.19370561  0.00379001  0.2422020 0.7000
1899   -475.2425686880  -0.569179098717 0.45197976  0.00682934  0.0852132 0.0000
               *** Restarting incremental Fock matrix formation ***
                                   *** Resetting DIIS ***
1900   -474.9604659070   0.282102780978 0.22560752  0.00519371  0.2897391 0.7000
1901   -475.2660521857  -0.305586278686 0.50001884  0.00771831  0.0495547 0.0000
1902   -474.3044531415   0.961599044124 0.03560805  0.00093611  0.3105880 0.7000
1903   -474.4009300723  -0.096476930734 0.03445598  0.00102778  0.3114107 0.7000
1904   -474.4843801437  -0.083450071454 0.02366328  0.00087841  0.3097481 0.7000
1905   -474.5532068519  -0.068826708135 0.01941854  0.00072636  0.3000586 0.7000
1906   -474.6098009865  -0.056594134637 0.24607235  0.00372311  0.2875919 0.7000
1907   -475.2246859767  -0.614884990239 0.47173214  0.00682409  0.0934882 0.0000
1908   -475.0610696865   0.163616290292 0.01491419  0.00039084  0.3332212 0.7000
1909   -475.1023034551  -0.041233768653 0.01568599  0.00044816  0.3111999 0.7000
1910   -475.1465388737  -0.044235418621 0.01428506  0.00041903  0.2892732 0.7000
1911   -475.1854807899  -0.038941916193 0.01253647  0.00039320  0.2700728 0.7000
1912   -475.2194678427  -0.033987052766 0.23332856  0.00312305  0.2535802 0.7000
1913   -475.4644584162  -0.244990573548 0.49900284  0.00679011  0.0505787 0.0000
1914   -474.6308084282   0.833649988037 0.03429797  0.00049692  0.2425288 0.7000
1915   -474.6627742226  -0.031965794418 0.04858319  0.00064812  0.2355654 0.7000
1916   -474.6930636420  -0.030289419431 0.05007927  0.00065590  0.2281798 0.7000
1917   -474.7150804489  -0.022016806803 0.04632498  0.00061025  0.2228524 0.7000
1918   -474.7300097493  -0.014929300440 0.17894397  0.00366968  0.2216435 0.7000
1919   -475.2605971778  -0.530587428459 0.41753594  0.00676647  0.0708476 0.0000
               *** Restarting incremental Fock matrix formation ***
                                   *** Resetting DIIS ***
1920   -474.9591527446   0.301444433112 0.22708346  0.00512961  0.3019318 0.7000
1921   -475.2715014600  -0.312348715345 0.49969549  0.00783153  0.0503491 0.0000
1922   -474.3095922323   0.961909227637 0.03692867  0.00096869  0.3130225 0.7000
1923   -474.4009825664  -0.091390334005 0.03572822  0.00107284  0.3165290 0.7000
1924   -474.4761662312  -0.075183664874 0.02508778  0.00092143  0.3182280 0.7000
1925   -474.5346970494  -0.058530818138 0.02023464  0.00075852  0.3129814 0.7000
1926   -474.5796598747  -0.044962825300 0.26075624  0.00393881  0.3057068 0.7000
1927   -475.2052501952  -0.625590320502 0.46747547  0.00697420  0.0917361 0.0000
1928   -475.0033788846   0.201871310581 0.01570503  0.00048719  0.3605910 0.7000
1929   -475.0590923297  -0.055713445161 0.01784524  0.00058209  0.3374239 0.7000
1930   -475.1186508693  -0.059558539512 0.01574960  0.00055283  0.3145787 0.7000
1931   -475.1704106500  -0.051759780696 0.01612167  0.00049989  0.2929004 0.7000
1932   -475.2141423242  -0.043731674282 0.25391676  0.00318909  0.2709571 0.7000
1933   -475.4541864166  -0.240044092396 0.49860141  0.00687589  0.0608469 0.0000
1934   -474.5332157934   0.920970623189 0.04305565  0.00064197  0.3128017 0.7000
1935   -474.5860973018  -0.052881508322 0.06516700  0.00087402  0.2733492 0.7000
1936   -474.6373150597  -0.051217757906 0.06695376  0.00087077  0.2513567 0.7000
1937   -474.6729566235  -0.035641563783 0.06353139  0.00080993  0.2399591 0.7000
1938   -474.6947857397  -0.021829116295 0.18829774  0.00372853  0.2324156 0.7000
1939   -475.2476126666  -0.552826926830 0.43728563  0.00681685  0.0789840 0.0000
               *** Restarting incremental Fock matrix formation ***
                                   *** Resetting DIIS ***
1940   -474.9464025697   0.301210096847 0.22527097  0.00568469  0.2867649 0.7000
1941   -475.1847554648  -0.238352895035 0.50197472  0.00793810  0.0633067 0.0000
1942   -474.4948840424   0.689871422355 0.02408993  0.00078385  0.2783954 0.7000
1943   -474.5752811275  -0.080397085075 0.02928322  0.00085579  0.2678769 0.7000
1944   -474.6549978238  -0.079716696310 0.03196489  0.00078008  0.2547697 0.7000
1945   -474.7243630961  -0.069365272261 0.03411164  0.00093415  0.2400829 0.7000
1946   -474.8014846741  -0.077121578072 0.18786852  0.00291771  0.2330391 0.7000
1947   -475.3004738858  -0.498989211624 0.43835993  0.00625605  0.0793888 0.0000
1948   -475.2253948441   0.075079041703 0.00677231  0.00021159  0.2047062 0.7000
1949   -475.2422456983  -0.016850854297 0.00744427  0.00024285  0.1958219 0.7000
1950   -475.2608660033  -0.018620304941 0.00718815  0.00022722  0.1866410 0.7000
1951   -475.2775460983  -0.016680095033 0.00633926  0.00022201  0.1789158 0.7000
1952   -475.2929188034  -0.015372705072 0.22479410  0.00296687  0.1714723 0.7000
1953   -475.4920623909  -0.199143587531 0.49619775  0.00656368  0.0417139 0.0000
1954   -474.6458072997   0.846255091231 0.02972372  0.00042079  0.2757548 0.7000
1955   -474.6733603565  -0.027553056810 0.02955762  0.00048278  0.2625845 0.7000
1956   -474.7002975224  -0.026937165858 0.02245892  0.00044803  0.2492412 0.7000
1957   -474.7214611216  -0.021163599267 0.01863889  0.00041792  0.2390497 0.7000
1958   -474.7342393745  -0.012778252835 0.20465677  0.00357517  0.2387745 0.7000
1959   -475.2692406942  -0.535001319732 0.43999228  0.00667735  0.0801808 0.0000
               *** Restarting incremental Fock matrix formation ***
                                   *** Resetting DIIS ***
1960   -475.0410942754   0.228146418808 0.25094950  0.00417804  0.3220149 0.7000
1961   -475.3809636216  -0.339869346224 0.49557811  0.00766533  0.0556929 0.0000
1962   -474.4504557117   0.930507909958 0.04084909  0.00077103  0.2908093 0.7000
1963   -474.5068198366  -0.056364124967 0.05334578  0.00088895  0.2848643 0.7000
1964   -474.5535897891  -0.046769952480 0.05157700  0.00081354  0.2849288 0.7000
1965   -474.5842570841  -0.030667295001 0.04472072  0.00069332  0.2860494 0.7000
1966   -474.6036419069  -0.019384822784 0.20821687  0.00417711  0.2868908 0.7000
1967   -475.2009213610  -0.597279454096 0.43927829  0.00715612  0.0798621 0.0000
1968   -474.8510546192   0.349866741759 0.02458578  0.00065944  0.3715113 0.7000
1969   -474.9425897945  -0.091535175278 0.03358163  0.00085727  0.3511621 0.7000
1970   -475.0418465209  -0.099256726378 0.03191881  0.00082712  0.3320640 0.7000
1971   -475.1261698082  -0.084323287346 0.02225029  0.00070394  0.3084960 0.7000
1972   -475.1932318563  -0.067062048072 0.22555653  0.00322176  0.2796444 0.7000
1973   -475.4358050171  -0.242573160773 0.50037665  0.00677577  0.0711688 0.0000
1974   -474.4771793551   0.958625661948 0.03326842  0.00066142  0.3245834 0.7000
1975   -474.5425075270  -0.065328171846 0.04858449  0.00094428  0.2898397 0.7000
1976   -474.6073407660  -0.064833239001 0.04717297  0.00092147  0.2608140 0.7000
1977   -474.6508433793  -0.043502613376 0.04495107  0.00083778  0.2498864 0.7000
1978   -474.6763658050  -0.025522425687 0.19368978  0.00378173  0.2421969 0.7000
1979   -475.2439317058  -0.567565900781 0.45194281  0.00682156  0.0852083 0.0000
               *** Restarting incremental Fock matrix formation ***
                                   *** Resetting DIIS ***
1980   -474.9628316854   0.281100020380 0.22503491  0.00509174  0.2892222 0.7000
1981   -475.2820117752  -0.319180089774 0.49951535  0.00768975  0.0506922 0.0000
1982   -474.3204656037   0.961546171543 0.03435932  0.00090687  0.3161421 0.7000
1983   -474.4086990752  -0.088233471528 0.03325346  0.00099772  0.3165895 0.7000
1984   -474.4846701119  -0.075971036713 0.02294866  0.00085260  0.3151069 0.7000
1985   -474.5469396653  -0.062269553409 0.01743761  0.00069182  0.3066880 0.7000
1986   -474.5978457477  -0.050906082338 0.25202007  0.00380529  0.2956846 0.7000
1987   -475.2198685653  -0.622022817643 0.47039996  0.00688101  0.0929482 0.0000
1988   -475.0419201024   0.177948462902 0.01501914  0.00040997  0.3430478 0.7000
1989   -475.0865263046  -0.044606202255 0.01574078  0.00047317  0.3208754 0.7000
1990   -475.1343280817  -0.047801777082 0.01453272  0.00044398  0.2988401 0.7000
1991   -475.1763260537  -0.041997971941 0.01320630  0.00041499  0.2792362 0.7000
1992   -475.2127897221  -0.036463668449 0.24191362  0.00313440  0.2617350 0.7000
1993   -475.4615450787  -0.248755356598 0.50525344  0.00686008  0.0551823 0.0000
1994   -474.6010338466   0.860511232162 0.03819944  0.00056431  0.2623409 0.7000
1995   -474.6397735923  -0.038739745787 0.05454645  0.00073428  0.2505093 0.7000
1996   -474.6759650870  -0.036191494699 0.05585356  0.00073280  0.2380328 0.7000
1997   -474.7014488434  -0.025483756400 0.05185452  0.00067693  0.2288226 0.7000
1998   -474.7177177035  -0.016268860042 0.18137666  0.00370107  0.2258087 0.7000
1999   -475.2547438072  -0.537026103718 0.42321220  0.00679165  0.0730992 0.0000

               *****************************************************
               *                      ERROR                        *
               *        SCF NOT CONVERGED AFTER 2000 CYCLES         *
               *****************************************************


---------------
SCF CONVERGENCE
---------------

  Last Energy change         ...   -5.3703e-01  Tolerance :   1.0000e-08
  Last MAX-Density change    ...    1.8540e-01  Tolerance :   1.0000e-07
  Last RMS-Density change    ...    4.3722e-03  Tolerance :   5.0000e-09
  Last DIIS Error            ...    7.3099e-02  Tolerance :   5.0000e-07

     --------------------------------------------------------------------
                                      ERROR
     This wavefunction IS NOT CONVERGED! 
     And it is 'too far' from meeting the convergence thresholds.
     Aborting ...
     Please restart calculation (with larger maxiter?)
     --------------------------------------------------------------------



ORCA finished by error termination in SCF
Calling Command: orca_scf products_optfreq.gbw b 
[file orca_tools/qcmsg.cpp, line 458]: 
  .... aborting the run

