
                                 *****************
                                 * O   R   C   A *
                                 *****************

                                            #,                                       
                                            ###                                      
                                            ####                                     
                                            #####                                    
                                            ######                                   
                                           ########,                                 
                                     ,,################,,,,,                         
                               ,,#################################,,                 
                          ,,##########################################,,             
                       ,#########################################, ''#####,          
                    ,#############################################,,   '####,        
                  ,##################################################,,,,####,       
                ,###########''''           ''''###############################       
              ,#####''   ,,,,##########,,,,          '''####'''          '####       
            ,##' ,,,,###########################,,,                        '##       
           ' ,,###''''                  '''############,,,                           
         ,,##''                                '''############,,,,        ,,,,,,###''
      ,#''                                            '''#######################'''  
     '                                                          ''''####''''         
             ,#######,   #######,   ,#######,      ##                                
            ,#'     '#,  ##    ##  ,#'     '#,    #''#        ######   ,####,        
            ##       ##  ##   ,#'  ##            #'  '#       #        #'  '#        
            ##       ##  #######   ##           ,######,      #####,   #    #        
            '#,     ,#'  ##    ##  '#,     ,#' ,#      #,         ##   #,  ,#        
             '#######'   ##     ##  '#######'  #'      '#     #####' # '####'        



                  #######################################################
                  #                        -***-                        #
                  #          Department of theory and spectroscopy      #
                  #    Directorship and core code : Frank Neese         #
                  #        Max Planck Institute fuer Kohlenforschung    #
                  #                Kaiser Wilhelm Platz 1               #
                  #                 D-45470 Muelheim/Ruhr               #
                  #                      Germany                        #
                  #                                                     #
                  #                  All rights reserved                #
                  #                        -***-                        #
                  #######################################################



                         Program Version 5.0.4 -  RELEASE  -

 With contributions from (in alphabetic order):
   Daniel Aravena         : Magnetic Suceptibility
   Michael Atanasov       : Ab Initio Ligand Field Theory (pilot matlab implementation)
   Alexander A. Auer      : GIAO ZORA, VPT2 properties, NMR spectrum
   Ute Becker             : Parallelization
   Giovanni Bistoni       : ED, misc. LED, open-shell LED, HFLD
   Martin Brehm           : Molecular dynamics
   Dmytro Bykov           : SCF Hessian
   Vijay G. Chilkuri      : MRCI spin determinant printing, contributions to CSF-ICE
   Dipayan Datta          : RHF DLPNO-CCSD density
   Achintya Kumar Dutta   : EOM-CC, STEOM-CC
   Dmitry Ganyushin       : Spin-Orbit,Spin-Spin,Magnetic field MRCI
   Miquel Garcia          : C-PCM and meta-GGA Hessian, CC/C-PCM, Gaussian charge scheme
   Yang Guo               : DLPNO-NEVPT2, F12-NEVPT2, CIM, IAO-localization
   Andreas Hansen         : Spin unrestricted coupled pair/coupled cluster methods
   Benjamin Helmich-Paris : MC-RPA, TRAH-SCF, COSX integrals
   Lee Huntington         : MR-EOM, pCC
   Robert Izsak           : Overlap fitted RIJCOSX, COSX-SCS-MP3, EOM
   Marcus Kettner         : VPT2
   Christian Kollmar      : KDIIS, OOCD, Brueckner-CCSD(T), CCSD density, CASPT2, CASPT2-K
   Simone Kossmann        : Meta GGA functionals, TD-DFT gradient, OOMP2, MP2 Hessian
   Martin Krupicka        : Initial AUTO-CI
   Lucas Lang             : DCDCAS
   Marvin Lechner         : AUTO-CI (C++ implementation), FIC-MRCC
   Dagmar Lenk            : GEPOL surface, SMD
   Dimitrios Liakos       : Extrapolation schemes; Compound Job, initial MDCI parallelization
   Dimitrios Manganas     : Further ROCIS development; embedding schemes
   Dimitrios Pantazis     : SARC Basis sets
   Anastasios Papadopoulos: AUTO-CI, single reference methods and gradients
   Taras Petrenko         : DFT Hessian,TD-DFT gradient, ASA, ECA, R-Raman, ABS, FL, XAS/XES, NRVS
   Peter Pinski           : DLPNO-MP2, DLPNO-MP2 Gradient
   Christoph Reimann      : Effective Core Potentials
   Marius Retegan         : Local ZFS, SOC
   Christoph Riplinger    : Optimizer, TS searches, QM/MM, DLPNO-CCSD(T), (RO)-DLPNO pert. Triples
   Tobias Risthaus        : Range-separated hybrids, TD-DFT gradient, RPA, STAB
   Michael Roemelt        : Original ROCIS implementation
   Masaaki Saitow         : Open-shell DLPNO-CCSD energy and density
   Barbara Sandhoefer     : DKH picture change effects
   Avijit Sen             : IP-ROCIS
   Kantharuban Sivalingam : CASSCF convergence, NEVPT2, FIC-MRCI
   Bernardo de Souza      : ESD, SOC TD-DFT
   Georgi Stoychev        : AutoAux, RI-MP2 NMR, DLPNO-MP2 response
   Willem Van den Heuvel  : Paramagnetic NMR
   Boris Wezisla          : Elementary symmetry handling
   Frank Wennmohs         : Technical directorship


 We gratefully acknowledge several colleagues who have allowed us to
 interface, adapt or use parts of their codes:
   Stefan Grimme, W. Hujo, H. Kruse, P. Pracht,  : VdW corrections, initial TS optimization,
                  C. Bannwarth, S. Ehlert          DFT functionals, gCP, sTDA/sTD-DF
   Ed Valeev, F. Pavosevic, A. Kumar             : LibInt (2-el integral package), F12 methods
   Garnet Chan, S. Sharma, J. Yang, R. Olivares  : DMRG
   Ulf Ekstrom                                   : XCFun DFT Library
   Mihaly Kallay                                 : mrcc  (arbitrary order and MRCC methods)
   Jiri Pittner, Ondrej Demel                    : Mk-CCSD
   Frank Weinhold                                : gennbo (NPA and NBO analysis)
   Christopher J. Cramer and Donald G. Truhlar   : smd solvation model
   Lars Goerigk                                  : TD-DFT with DH, B97 family of functionals
   V. Asgeirsson, H. Jonsson                     : NEB implementation
   FAccTs GmbH                                   : IRC, NEB, NEB-TS, DLPNO-Multilevel, CI-OPT
                                                   MM, QMMM, 2- and 3-layer-ONIOM, Crystal-QMMM,
                                                   LR-CPCM, SF, NACMEs, symmetry and pop. for TD-DFT,
                                                   nearIR, NL-DFT gradient (VV10), updates on ESD,
                                                   ML-optimized integration grids
   S Lehtola, MJT Oliveira, MAL Marques          : LibXC Library
   Liviu Ungur et al                             : ANISO software


 Your calculation uses the libint2 library for the computation of 2-el integrals
 For citations please refer to: http://libint.valeyev.net

 Your ORCA version has been built with support for libXC version: 5.1.0
 For citations please refer to: https://tddft.org/programs/libxc/

 This ORCA versions uses:
   CBLAS   interface :  Fast vector & matrix operations
   LAPACKE interface :  Fast linear algebra routines
   Shared memory     :  Shared parallel matrices


Your calculation utilizes the atom-pairwise dispersion correction
based on tight binding partial charges (D4)
Cite in your paper:
E.Caldeweyher, C.Bannwarth, S.Grimme, J.Chem.Phys., (2017), 147, 034112.
E.Caldeweyher, S.Ehlert, A.Hansen, H.Neugebauer, S.Grimme, J.Chem.Phys., (2018), in progress.
   

================================================================================

----- Orbital basis set information -----
Your calculation utilizes the basis: def2-SVP
   F. Weigend and R. Ahlrichs, Phys. Chem. Chem. Phys. 7, 3297 (2005).

----- AuxJ basis set information -----
Your calculation utilizes the auxiliary basis: def2/J
   F. Weigend, Phys. Chem. Chem. Phys. 8, 1057 (2006).

================================================================================
                                        WARNINGS
                       Please study these warnings very carefully!
================================================================================


WARNING: Geometry Optimization
  ===> : Switching off AutoStart
         For restart on a previous wavefunction, please use MOREAD

INFO   : the flag for use of the SHARK integral package has been found!

================================================================================
                                       INPUT FILE
================================================================================
NAME = e_c_12.inp
|  1> !B3LYP/G DEF2-SVP OPT FREQ D4 SOSCF
|  2> 
|  3> %geom
|  4> convergence tight
|  5> maxIter 1000
|  6> end
|  7> 
|  8> * xyz 1 1
|  9>    C       -5.63665        0.70431        4.02787
| 10>    C       -6.13702        1.51291        2.96756
| 11>    C       -6.11782        1.05904        1.66011
| 12>    C       -5.59747       -0.21764        1.37020
| 13>    C       -5.09798       -1.03282        2.40765
| 14>    C       -5.11794       -0.57714        3.71655
| 15>    C       -5.66702        1.20968        5.43044
| 16>    H       -5.23704        0.49201        6.14472
| 17>    H       -6.70700        1.43637        5.74022
| 18>    H       -5.11584        2.16719        5.50983
| 19>    H       -6.53917        2.50200        3.19959
| 20>    H       -6.50340        1.68541        0.85333
| 21>    H       -5.58032       -0.57812        0.33942
| 22>    H       -4.69626       -2.02111        2.17564
| 23>    H       -4.73218       -1.20465        4.52279
| 24>    N       -7.14939       -0.92815      -12.15844
| 25>    O       -6.53025       -0.71909      -11.20272
| 26>    O       -7.25199       -1.00004      -13.31020
| 27> **                         ****END OF INPUT****
================================================================================

                       *****************************
                       * Geometry Optimization Run *
                       *****************************

Geometry optimization settings:
Update method            Update   .... BFGS
Choice of coordinates    CoordSys .... Z-matrix Internals
Initial Hessian          InHess   .... Almoef's Model

Convergence Tolerances:
Energy Change            TolE     ....  1.0000e-06 Eh
Max. Gradient            TolMAXG  ....  1.0000e-04 Eh/bohr
RMS Gradient             TolRMSG  ....  3.0000e-05 Eh/bohr
Max. Displacement        TolMAXD  ....  1.0000e-03 bohr
RMS Displacement         TolRMSD  ....  6.0000e-04 bohr
Strict Convergence                ....  False
------------------------------------------------------------------------------
                        ORCA OPTIMIZATION COORDINATE SETUP
------------------------------------------------------------------------------

The optimization will be done in new redundant internal coordinates
Making redundant internal coordinates   ...  (new redundants) done
Evaluating the initial hessian          ...  (Almloef) done
Evaluating the coordinates              ...  done
Calculating the B-matrix                .... done
Calculating the G-matrix                .... done
Diagonalizing the G-matrix              .... done
Small eigenvalue found = 2.156e-02
The first mode is                       ....   40
The number of degrees of freedom        ....   48

    -----------------------------------------------------------------
                    Redundant Internal Coordinates


    -----------------------------------------------------------------
         Definition                    Initial Value    Approx d2E/dq
    -----------------------------------------------------------------
      1. B(C   1,C   0)                  1.4242         0.550947   
      2. B(C   2,C   1)                  1.3841         0.638436   
      3. B(C   3,C   2)                  1.4088         0.583097   
      4. B(C   4,C   3)                  1.4108         0.578868   
      5. B(C   5,C   4)                  1.3861         0.633822   
      6. B(C   5,C   0)                  1.4171         0.565648   
      7. B(C   6,C   0)                  1.4911         0.430886   
      8. B(H   7,C   6)                  1.1001         0.347037   
      9. B(H   8,C   6)                  1.1086         0.336363   
     10. B(H   9,C   6)                  1.1077         0.337470   
     11. B(H  10,C   1)                  1.0926         0.356625   
     12. B(H  11,C   2)                  1.0917         0.357800   
     13. B(H  12,C   3)                  1.0921         0.357294   
     14. B(H  13,C   4)                  1.0918         0.357788   
     15. B(H  14,C   5)                  1.0921         0.357381   
     16. B(N  15,H  12)                 12.6008         0.000000   
     17. B(O  16,H  12)                 11.5820         0.000000   
     18. B(O  16,H  11)                 12.2935         0.000000   
     19. B(O  16,C   3)                 12.6174         0.000000   
     20. B(O  16,N  15)                  1.1578         1.176288   
     21. B(O  17,N  15)                  1.1586         1.172926   
     22. A(C   1,C   0,C   5)          118.5842         0.418061   
     23. A(C   1,C   0,C   6)          120.0450         0.398405   
     24. A(C   5,C   0,C   6)          121.3708         0.400255   
     25. A(C   0,C   1,C   2)          120.8100         0.427201   
     26. A(C   0,C   1,H  10)          119.0222         0.345386   
     27. A(C   2,C   1,H  10)          120.1679         0.354083   
     28. A(C   3,C   2,H  11)          119.8878         0.348892   
     29. A(C   1,C   2,C   3)          119.7798         0.431571   
     30. A(C   1,C   2,H  11)          120.3323         0.354280   
     31. A(C   2,C   3,C   4)          120.2036         0.424060   
     32. A(C   2,C   3,O  16)          102.3433         0.089029   
     33. A(H  12,C   3,O  16)           17.7394         0.089023   
     34. A(C   4,C   3,H  12)          119.8533         0.348381   
     35. A(C   4,C   3,O  16)          137.3906         0.089029   
     36. A(C   2,C   3,H  12)          119.9432         0.348808   
     37. A(C   5,C   4,H  13)          120.2365         0.353843   
     38. A(C   3,C   4,H  13)          119.8059         0.348462   
     39. A(C   3,C   4,C   5)          119.9576         0.430446   
     40. A(C   4,C   5,H  14)          120.2097         0.353775   
     41. A(C   0,C   5,C   4)          120.6649         0.428665   
     42. A(C   0,C   5,H  14)          119.1255         0.347042   
     43. A(H   8,C   6,H   9)          105.6656         0.284850   
     44. A(H   7,C   6,H   9)          108.8394         0.286239   
     45. A(C   0,C   6,H   9)          110.5026         0.328500   
     46. A(H   7,C   6,H   8)          108.5814         0.286093   
     47. A(C   0,C   6,H   8)          110.5641         0.328322   
     48. A(C   0,C   6,H   7)          112.4375         0.330020   
     49. A(O  16,N  15,O  17)          151.5464         0.534679   
     50. A(C   3,O  16,N  15)          150.3749         0.089034   
     51. D(H  10,C   1,C   0,C   5)    179.9649         0.020768   
     52. D(C   2,C   1,C   0,C   6)   -179.9326         0.020768   
     53. D(C   2,C   1,C   0,C   5)     -0.0149         0.020768   
     54. D(H  10,C   1,C   0,C   6)      0.0471         0.020768   
     55. D(C   3,C   2,C   1,H  10)   -179.9979         0.028310   
     56. D(C   3,C   2,C   1,C   0)     -0.0184         0.028310   
     57. D(H  11,C   2,C   1,H  10)      0.0216         0.028310   
     58. D(H  11,C   2,C   1,C   0)   -179.9989         0.028310   
     59. D(O  16,C   3,C   2,H  11)      2.4219         0.025380   
     60. D(H  12,C   3,C   2,H  11)      0.0273         0.025380   
     61. D(H  12,C   3,C   2,C   1)   -179.9533         0.025380   
     62. D(C   4,C   3,C   2,H  11)   -179.9745         0.025380   
     63. D(C   4,C   3,C   2,C   1)      0.0449         0.025380   
     64. D(O  16,C   3,C   2,C   1)   -177.5588         0.025380   
     65. D(C   5,C   4,C   3,C   2)     -0.0378         0.024994   
     66. D(H  13,C   4,C   3,O  16)     -3.4616         0.024994   
     67. D(H  13,C   4,C   3,H  12)     -0.0045         0.024994   
     68. D(H  13,C   4,C   3,C   2)    179.9973         0.024994   
     69. D(C   5,C   4,C   3,O  16)    176.5033         0.024994   
     70. D(C   5,C   4,C   3,H  12)    179.9604         0.024994   
     71. D(H  14,C   5,C   4,H  13)     -0.0234         0.027876   
     72. D(C   0,C   5,C   4,H  13)    179.9688         0.027876   
     73. D(C   0,C   5,C   4,C   3)      0.0040         0.027876   
     74. D(H  14,C   5,C   0,C   6)     -0.0691         0.021934   
     75. D(H  14,C   5,C   0,C   1)   -179.9857         0.021934   
     76. D(H  14,C   5,C   4,C   3)   -179.9882         0.027876   
     77. D(C   4,C   5,C   0,C   6)    179.9387         0.021934   
     78. D(C   4,C   5,C   0,C   1)      0.0221         0.021934   
     79. D(H   8,C   6,C   0,C   1)     59.3220         0.013711   
     80. D(H   7,C   6,C   0,C   5)      0.9489         0.013711   
     81. D(H   7,C   6,C   0,C   1)   -179.1356         0.013711   
     82. D(H   9,C   6,C   0,C   5)    122.7791         0.013711   
     83. D(H   9,C   6,C   0,C   1)    -57.3055         0.013711   
     84. D(H   8,C   6,C   0,C   5)   -120.5934         0.013711   
     85. D(C   3,O  16,N  15,O  17)   -177.9579         0.173205   
     86. D(N  15,O  16,C   3,H  12)     89.0995         0.001500   
     87. D(N  15,O  16,C   3,C   4)     98.9833         0.001500   
     88. D(N  15,O  16,C   3,C   2)    -84.0763         0.001500   
    -----------------------------------------------------------------

Number of atoms                         .... 18
Number of degrees of freedom            .... 88

         *************************************************************
         *                GEOMETRY OPTIMIZATION CYCLE   1            *
         *************************************************************
---------------------------------
CARTESIAN COORDINATES (ANGSTROEM)
---------------------------------
  C     -5.636650    0.704310    4.027870
  C     -6.137020    1.512910    2.967560
  C     -6.117820    1.059040    1.660110
  C     -5.597470   -0.217640    1.370200
  C     -5.097980   -1.032820    2.407650
  C     -5.117940   -0.577140    3.716550
  C     -5.667020    1.209680    5.430440
  H     -5.237040    0.492010    6.144720
  H     -6.707000    1.436370    5.740220
  H     -5.115840    2.167190    5.509830
  H     -6.539170    2.502000    3.199590
  H     -6.503400    1.685410    0.853330
  H     -5.580320   -0.578120    0.339420
  H     -4.696260   -2.021110    2.175640
  H     -4.732180   -1.204650    4.522790
  N     -7.149390   -0.928150  -12.158440
  O     -6.530250   -0.719090  -11.202720
  O     -7.251990   -1.000040  -13.310200

----------------------------
CARTESIAN COORDINATES (A.U.)
----------------------------
  NO LB      ZA    FRAG     MASS         X           Y           Z
   0 C     6.0000    0    12.011  -10.651725    1.330953    7.611571
   1 C     6.0000    0    12.011  -11.597287    2.858986    5.607876
   2 C     6.0000    0    12.011  -11.561004    2.001296    3.137153
   3 C     6.0000    0    12.011  -10.577685   -0.411280    2.589303
   4 C     6.0000    0    12.011   -9.633786   -1.951747    4.549799
   5 C     6.0000    0    12.011   -9.671505   -1.090637    7.023262
   6 C     6.0000    0    12.011  -10.709116    2.285964   10.262044
   7 H     1.0000    0     1.008   -9.896571    0.929764   11.611838
   8 H     1.0000    0     1.008  -12.674393    2.714346   10.847444
   9 H     1.0000    0     1.008   -9.667537    4.095396   10.412070
  10 H     1.0000    0     1.008  -12.357240    4.728095    6.046349
  11 H     1.0000    0     1.008  -12.289645    3.184963    1.612560
  12 H     1.0000    0     1.008  -10.545277   -1.092488    0.641411
  13 H     1.0000    0     1.008   -8.874645   -3.819344    4.111364
  14 H     1.0000    0     1.008   -8.942524   -2.276459    8.546834
  15 N     7.0000    0    14.007  -13.510389   -1.753949  -22.976122
  16 O     8.0000    0    15.999  -12.340384   -1.358883  -21.170073
  17 O     8.0000    0    15.999  -13.704275   -1.889802  -25.152633

--------------------------------
INTERNAL COORDINATES (ANGSTROEM)
--------------------------------
 C      0   0   0     0.000000000000     0.00000000     0.00000000
 C      1   0   0     1.424240637322     0.00000000     0.00000000
 C      2   1   0     1.384121425092   120.80996785     0.00000000
 C      3   2   1     1.408802240558   119.77982964     0.00000000
 C      4   3   2     1.410783893798   120.20355398     0.04492830
 C      5   4   3     1.386095910823   119.95759518   359.96218316
 C      1   2   3     1.491148476410   120.04497673   180.06736583
 H      7   1   2     1.100058611029   112.43745416   180.86435291
 H      7   1   2     1.108562314396   110.56406785    59.32199740
 H      7   1   2     1.107667623703   110.50263250   302.69448335
 H      2   1   3     1.092639726305   119.02215694   179.97975237
 H      3   2   1     1.091744146630   120.33232140   180.00110302
 H      4   3   2     1.092129736478   119.94315441   180.04666698
 H      5   4   3     1.091753050190   119.80589754   179.99726034
 H      6   5   4     1.092063420915   120.20965219   180.01184978
 N     13   4   3    12.600833553595   160.61785263   359.83320720
 O     16  13   4     1.157774218749    27.08393909    93.63071884
 O     16  13   4     1.158553421168   177.15027051   157.31068271

---------------------------
INTERNAL COORDINATES (A.U.)
---------------------------
 C      0   0   0     0.000000000000     0.00000000     0.00000000
 C      1   0   0     2.691424753340     0.00000000     0.00000000
 C      2   1   0     2.615610429518   120.80996785     0.00000000
 C      3   2   1     2.662250411508   119.77982964     0.00000000
 C      4   3   2     2.665995193425   120.20355398     0.04492830
 C      5   4   3     2.619341666803   119.95759518   359.96218316
 C      1   2   3     2.817862245429   120.04497673   180.06736583
 H      7   1   2     2.078809506107   112.43745416   180.86435291
 H      7   1   2     2.094879176595   110.56406785    59.32199740
 H      7   1   2     2.093188456210   110.50263250   302.69448335
 H      2   1   3     2.064789845759   119.02215694   179.97975237
 H      3   2   1     2.063097445442   120.33232140   180.00110302
 H      4   3   2     2.063826104655   119.94315441   180.04666698
 H      5   4   3     2.063114270733   119.80589754   179.99726034
 H      6   5   4     2.063700786402   120.20965219   180.01184978
 N     13   4   3    23.812124475420   160.61785263   359.83320720
 O     16  13   4     2.187876198350    27.08393909    93.63071884
 O     16  13   4     2.189348677525   177.15027051   157.31068271

---------------------
BASIS SET INFORMATION
---------------------
There are 4 groups of distinct atoms

 Group   1 Type C   : 7s4p1d contracted to 3s2p1d pattern {511/31/1}
 Group   2 Type H   : 4s1p contracted to 2s1p pattern {31/1}
 Group   3 Type N   : 7s4p1d contracted to 3s2p1d pattern {511/31/1}
 Group   4 Type O   : 7s4p1d contracted to 3s2p1d pattern {511/31/1}

Atom   0C    basis set group =>   1
Atom   1C    basis set group =>   1
Atom   2C    basis set group =>   1
Atom   3C    basis set group =>   1
Atom   4C    basis set group =>   1
Atom   5C    basis set group =>   1
Atom   6C    basis set group =>   1
Atom   7H    basis set group =>   2
Atom   8H    basis set group =>   2
Atom   9H    basis set group =>   2
Atom  10H    basis set group =>   2
Atom  11H    basis set group =>   2
Atom  12H    basis set group =>   2
Atom  13H    basis set group =>   2
Atom  14H    basis set group =>   2
Atom  15N    basis set group =>   3
Atom  16O    basis set group =>   4
Atom  17O    basis set group =>   4
---------------------------------
AUXILIARY/J BASIS SET INFORMATION
---------------------------------
There are 4 groups of distinct atoms

 Group   1 Type C   : 12s5p4d2f1g contracted to 6s4p3d1f1g pattern {711111/2111/211/2/1}
 Group   2 Type H   : 5s2p1d contracted to 3s1p1d pattern {311/2/1}
 Group   3 Type N   : 12s5p4d2f1g contracted to 6s4p3d1f1g pattern {711111/2111/211/2/1}
 Group   4 Type O   : 12s5p4d2f1g contracted to 6s4p3d1f1g pattern {711111/2111/211/2/1}

Atom   0C    basis set group =>   1
Atom   1C    basis set group =>   1
Atom   2C    basis set group =>   1
Atom   3C    basis set group =>   1
Atom   4C    basis set group =>   1
Atom   5C    basis set group =>   1
Atom   6C    basis set group =>   1
Atom   7H    basis set group =>   2
Atom   8H    basis set group =>   2
Atom   9H    basis set group =>   2
Atom  10H    basis set group =>   2
Atom  11H    basis set group =>   2
Atom  12H    basis set group =>   2
Atom  13H    basis set group =>   2
Atom  14H    basis set group =>   2
Atom  15N    basis set group =>   3
Atom  16O    basis set group =>   4
Atom  17O    basis set group =>   4
------------------------------------------------------------------------------
                           ORCA GTO INTEGRAL CALCULATION
                           -- RI-GTO INTEGRALS CHOSEN --
------------------------------------------------------------------------------
------------------------------------------------------------------------------
                   ___                                                        
                  /   \      - P O W E R E D   B Y -                         
                 /     \                                                     
                 |  |  |   _    _      __       _____    __    __             
                 |  |  |  | |  | |    /  \     |  _  \  |  |  /  |          
                  \  \/   | |  | |   /    \    | | | |  |  | /  /          
                 / \  \   | |__| |  /  /\  \   | |_| |  |  |/  /          
                |  |  |   |  __  | /  /__\  \  |    /   |      \           
                |  |  |   | |  | | |   __   |  |    \   |  |\   \          
                \     /   | |  | | |  |  |  |  | |\  \  |  | \   \       
                 \___/    |_|  |_| |__|  |__|  |_| \__\ |__|  \__/        
                                                                              
                      - O R C A' S   B I G   F R I E N D -                    
                                      &                                       
                       - I N T E G R A L  F E E D E R -                       
                                                                              
 v1 FN, 2020, v2 2021                                                         
------------------------------------------------------------------------------


Reading SHARK input file e_c_12.SHARKINP.tmp ... ok
----------------------
SHARK INTEGRAL PACKAGE
----------------------

Number of atoms                             ...     18
Number of basis functions                   ...    180
Number of shells                            ...     84
Maximum angular momentum                    ...      2
Integral batch strategy                     ... SHARK/LIBINT Hybrid
RI-J (if used) integral strategy            ... SPLIT-RIJ (Revised 2003 algorithm where possible)
Printlevel                                  ...      1
Contraction scheme used                     ... SEGMENTED contraction
Coulomb Range Separation                    ... NOT USED
Exchange Range Separation                   ... NOT USED
Finite Nucleus Model                        ... NOT USED
Auxiliary Coulomb fitting basis             ... AVAILABLE
   # of basis functions in Aux-J            ...    578
   # of shells in Aux-J                     ...    190
   Maximum angular momentum in Aux-J        ...      4
Auxiliary J/K fitting basis                 ... NOT available
Auxiliary Correlation fitting basis         ... NOT available
Auxiliary 'external' fitting basis          ... NOT available
Integral threshold                          ...     2.500000e-11
Primitive cut-off                           ...     2.500000e-12
Primitive pair pre-selection threshold      ...     2.500000e-12

Calculating pre-screening integrals         ... done (  0.1 sec) Dimension = 84
Organizing shell pair data                  ... done (  0.1 sec)
Shell pair information
Total number of shell pairs                 ...      3570
Shell pairs after pre-screening             ...      2301
Total number of primitive shell pairs       ...     13034
Primitive shell pairs kept                  ...      6359
          la=0 lb=0:    721 shell pairs
          la=1 lb=0:    837 shell pairs
          la=1 lb=1:    262 shell pairs
          la=2 lb=0:    279 shell pairs
          la=2 lb=1:    168 shell pairs
          la=2 lb=2:     34 shell pairs

Calculating one electron integrals          ... done (  0.0 sec)
Calculating RI/J V-Matrix + Cholesky decomp.... done (  0.0 sec)
Calculating Nuclear repulsion               ... done (  0.0 sec) ENN=    373.807530160792 Eh

SHARK setup successfully completed in   0.6 seconds

Maximum memory used throughout the entire GTOINT-calculation: 19.3 MB
-------------------------------------------------------------------------------
                                 ORCA SCF
-------------------------------------------------------------------------------

------------
SCF SETTINGS
------------
Hamiltonian:
 Density Functional     Method          .... DFT(GTOs)
 Exchange Functional    Exchange        .... B88
   X-Alpha parameter    XAlpha          ....  0.666667
   Becke's b parameter  XBeta           ....  0.004200
 Correlation Functional Correlation     .... LYP
 LDA part of GGA corr.  LDAOpt          .... VWN-3
 Gradients option       PostSCFGGA      .... off
 Hybrid DFT is turned on
   Fraction HF Exchange ScalHFX         ....  0.200000
   Scaling of DF-GGA-X  ScalDFX         ....  0.720000
   Scaling of DF-GGA-C  ScalDFC         ....  0.810000
   Scaling of DF-LDA-C  ScalLDAC        ....  1.000000
   Perturbative correction              ....  0.000000
   Density functional embedding theory  .... OFF
   NL short-range parameter             ....  4.800000
 RI-approximation to the Coulomb term is turned on
   Number of AuxJ basis functions       .... 578
   RIJ-COSX (HFX calculated with COS-X)).... on


General Settings:
 Integral files         IntName         .... e_c_12
 Hartree-Fock type      HFTyp           .... RHF
 Total Charge           Charge          ....    1
 Multiplicity           Mult            ....    1
 Number of Electrons    NEL             ....   72
 Basis Dimension        Dim             ....  180
 Nuclear Repulsion      ENuc            ....    373.8075301608 Eh

Convergence Acceleration:
 DIIS                   CNVDIIS         .... on
   Start iteration      DIISMaxIt       ....    12
   Startup error        DIISStart       ....  0.200000
   # of expansion vecs  DIISMaxEq       ....     5
   Bias factor          DIISBfac        ....   1.050
   Max. coefficient     DIISMaxC        ....  10.000
 Trust-Rad. Augm. Hess. CNVTRAH         .... auto
   Auto Start mean grad. ratio tolernc. ....  1.125000
   Auto Start start iteration           ....    20
   Auto Start num. interpolation iter.  ....    10
   Max. Number of Micro iterations      ....    16
   Max. Number of Macro iterations      .... Maxiter - #DIIS iter
   Number of Davidson start vectors     ....     2
   Converg. threshold I  (grad. norm)   ....   1.000e-05
   Converg. threshold II (energy diff.) ....   1.000e-08
   Grad. Scal. Fac. for Micro threshold ....   0.100
   Minimum threshold for Micro iter.    ....   0.010
   NR start threshold (gradient norm)   ....   0.001
   Initial trust radius                 ....   0.400
   Minimum AH scaling param. (alpha)    ....   1.000
   Maximum AH scaling param. (alpha)    .... 1000.000
   Orbital update algorithm             .... Taylor
   White noise on init. David. guess    .... on
   Maximum white noise                  ....   0.010
   Quad. conv. algorithm                .... NR
 SOSCF                  CNVSOSCF        .... on
   Start iteration      SOSCFMaxIt      ....   150
   Startup grad/error   SOSCFStart      ....  0.003300
 Level Shifting         CNVShift        .... on
   Level shift para.    LevelShift      ....    0.2500
   Turn off err/grad.   ShiftErr        ....    0.0010
 Zerner damping         CNVZerner       .... off
 Static damping         CNVDamp         .... on
   Fraction old density DampFac         ....    0.7000
   Max. Damping (<1)    DampMax         ....    0.9800
   Min. Damping (>=0)   DampMin         ....    0.0000
   Turn off err/grad.   DampErr         ....    0.1000
 Fernandez-Rico         CNVRico         .... off

SCF Procedure:
 Maximum # iterations   MaxIter         ....   125
 SCF integral mode      SCFMode         .... Direct
   Integral package                     .... SHARK and LIBINT hybrid scheme
 Reset frequency        DirectResetFreq ....    20
 Integral Threshold     Thresh          ....  2.500e-11 Eh
 Primitive CutOff       TCut            ....  2.500e-12 Eh

Convergence Tolerance:
 Convergence Check Mode ConvCheckMode   .... Total+1el-Energy
 Convergence forced     ConvForced      .... 0
 Energy Change          TolE            ....  1.000e-08 Eh
 1-El. energy change                    ....  1.000e-05 Eh
 Orbital Gradient       TolG            ....  1.000e-05
 Orbital Rotation angle TolX            ....  1.000e-05
 DIIS Error             TolErr          ....  5.000e-07


Diagonalization of the overlap matrix:
Smallest eigenvalue                        ... 3.142e-04
Time for diagonalization                   ...    0.009 sec
Threshold for overlap eigenvalues          ... 1.000e-08
Number of eigenvalues below threshold      ... 0
Time for construction of square roots      ...    0.006 sec
Total time needed                          ...    0.015 sec

Time for model grid setup =    0.656 sec

------------------------------
INITIAL GUESS: MODEL POTENTIAL
------------------------------
Loading Hartree-Fock densities                     ... done
Calculating cut-offs                               ... done
Initializing the effective Hamiltonian             ... done
Setting up the integral package (SHARK)            ... done
Starting the Coulomb interaction                   ... done (   0.4 sec)
Reading the grid                                   ... done
Mapping shells                                     ... done
Starting the XC term evaluation                    ... done (   0.4 sec)
  promolecular density results
     # of electrons  =     72.993658735
     EX              =    -61.285163733
     EC              =     -2.469387903
     EX+EC           =    -63.754551636
Transforming the Hamiltonian                       ... done (   0.0 sec)
Diagonalizing the Hamiltonian                      ... done (   0.0 sec)
Back transforming the eigenvectors                 ... done (   0.0 sec)
Now organizing SCF variables                       ... done
                      ------------------
                      INITIAL GUESS DONE (   1.5 sec)
                      ------------------
-------------------
DFT GRID GENERATION
-------------------

General Integration Accuracy     IntAcc      ... 4.388
Radial Grid Type                 RadialGrid  ... OptM3 with GC (2021)
Angular Grid (max. ang.)         AngularGrid ... 4 (Lebedev-302)
Angular grid pruning method      GridPruning ... 4 (adaptive)
Weight generation scheme         WeightScheme... Becke
Basis function cutoff            BFCut       ... 1.0000e-11
Integration weight cutoff        WCut        ... 1.0000e-14
Angular grids for H and He will be reduced by one unit
Partially contracted basis set               ... off
Rotationally invariant grid construction     ... off

Total number of grid points                  ...    86356
Total number of batches                      ...     1356
Average number of points per batch           ...       63
Average number of grid points per atom       ...     4798
Time for grid setup =    1.809 sec

--------------------
COSX GRID GENERATION
--------------------

GRIDX 1
-------
General Integration Accuracy     IntAcc      ... 3.816
Radial Grid Type                 RadialGrid  ... OptM3 with GC (2021)
Angular Grid (max. ang.)         AngularGrid ... 1 (Lebedev-50)
Angular grid pruning method      GridPruning ... 4 (adaptive)
Weight generation scheme         WeightScheme... Becke
Basis function cutoff            BFCut       ... 1.0000e-11
Integration weight cutoff        WCut        ... 1.0000e-14
Angular grids for H and He will be reduced by one unit
Partially contracted basis set               ... on
Rotationally invariant grid construction     ... off

Total number of grid points                  ...    11045
Total number of batches                      ...      179
Average number of points per batch           ...       61
Average number of grid points per atom       ...      614
UseSFitting                                  ... on

GRIDX 2
-------
General Integration Accuracy     IntAcc      ... 4.020
Radial Grid Type                 RadialGrid  ... OptM3 with GC (2021)
Angular Grid (max. ang.)         AngularGrid ... 2 (Lebedev-110)
Angular grid pruning method      GridPruning ... 4 (adaptive)
Weight generation scheme         WeightScheme... Becke
Basis function cutoff            BFCut       ... 1.0000e-11
Integration weight cutoff        WCut        ... 1.0000e-14
Angular grids for H and He will be reduced by one unit
Partially contracted basis set               ... on
Rotationally invariant grid construction     ... off

Total number of grid points                  ...    24385
Total number of batches                      ...      389
Average number of points per batch           ...       62
Average number of grid points per atom       ...     1355
UseSFitting                                  ... on

GRIDX 3
-------
General Integration Accuracy     IntAcc      ... 4.338
Radial Grid Type                 RadialGrid  ... OptM3 with GC (2021)
Angular Grid (max. ang.)         AngularGrid ... 3 (Lebedev-194)
Angular grid pruning method      GridPruning ... 4 (adaptive)
Weight generation scheme         WeightScheme... Becke
Basis function cutoff            BFCut       ... 1.0000e-11
Integration weight cutoff        WCut        ... 1.0000e-14
Angular grids for H and He will be reduced by one unit
Partially contracted basis set               ... on
Rotationally invariant grid construction     ... off

Total number of grid points                  ...    53757
Total number of batches                      ...      852
Average number of points per batch           ...       63
Average number of grid points per atom       ...     2987
UseSFitting                                  ... on

Time for X-Grid setup             =    2.098 sec

--------------
SCF ITERATIONS
--------------
ITER       Energy         Delta-E        Max-DP      RMS-DP      [F,P]     Damp
               ***  Starting incremental Fock matrix formation  ***
  0   -475.6252834584   0.000000000000 0.31800642  0.00528526  0.2152665 0.7000
  1   -475.6349760750  -0.009692616644 0.07130785  0.00188819  0.1227408 0.7000
                               ***Turning on DIIS***
  2   -475.8083016973  -0.173325622280 0.16358145  0.00397935  0.0311034 0.0000
  3   -475.8489254176  -0.040623720328 0.00977787  0.00022821  0.1171981 0.7000
  4   -475.8589421067  -0.010016689031 0.00908709  0.00023193  0.1052590 0.7000
  5   -475.8679018336  -0.008959726896 0.03020672  0.00078063  0.0941575 0.0000
  6   -475.8927999837  -0.024898150163 0.04126109  0.00105876  0.0584939 0.0000
  7   -475.9068410414  -0.014041057684 0.01574062  0.00053263  0.0198335 0.0000
  8   -475.9084020116  -0.001560970234 0.00650249  0.00017334  0.0103344 0.0000
  9   -475.9086006865  -0.000198674840 0.00288054  0.00006311  0.0041289 0.0000
                      *** Initiating the SOSCF procedure ***
                           *** Shutting down DIIS ***
                      *** Re-Reading the Fockian *** 
                      *** Removing any level shift *** 
ITER      Energy       Delta-E        Grad      Rot      Max-DP    RMS-DP
 10   -475.90863886  -0.0000381753  0.000345  0.000345  0.001080  0.000023
               *** Restarting incremental Fock matrix formation ***
 11   -475.90856331   0.0000755528  0.000323  0.001088  0.001662  0.000029
 12   -475.90855603   0.0000072769  0.001389  0.001077  0.001217  0.000019
 13   -475.90856390  -0.0000078643  0.000230  0.000517  0.000859  0.000016
 14   -475.90856176   0.0000021409  0.000704  0.000419  0.000577  0.000011
 15   -475.90856438  -0.0000026197  0.000037  0.000068  0.000169  0.000003
 16   -475.90856435   0.0000000258  0.000037  0.000055  0.000095  0.000002
 17   -475.90856439  -0.0000000443  0.000007  0.000022  0.000017  0.000001
                 **** Energy Check signals convergence ****
              ***Rediagonalizing the Fockian in SOSCF/NRSCF***

               *****************************************************
               *                     SUCCESS                       *
               *           SCF CONVERGED AFTER  18 CYCLES          *
               *****************************************************

Old exchange energy                            =    -12.281619914 Eh
New exchange energy                            =    -12.281645032 Eh
Exchange energy change after final integration =     -0.000025119 Eh
Total energy after final integration           =   -475.908589514 Eh
Final COS-X integration done in                =     8.452 sec

----------------
TOTAL SCF ENERGY
----------------

Total Energy       :         -475.90858951 Eh          -12950.13109 eV

Components:
Nuclear Repulsion  :          373.80753016 Eh           10171.82002 eV
Electronic Energy  :         -849.71611968 Eh          -23121.95111 eV
One Electron Energy:        -1374.04961067 Eh          -37389.79077 eV
Two Electron Energy:          524.33349099 Eh           14267.83965 eV
Max COSX asymmetry :            0.00000163 Eh               0.00004 eV

Virial components:
Potential Energy   :         -947.03757454 Eh          -25770.20253 eV
Kinetic Energy     :          471.12898502 Eh           12820.07144 eV
Virial Ratio       :            2.01014500


DFT components:
N(Alpha)           :       36.000029887164 electrons
N(Beta)            :       36.000029887164 electrons
N(Total)           :       72.000059774329 electrons
E(X)               :      -48.937852149703 Eh       
E(C)               :       -3.144817839364 Eh       
E(XC)              :      -52.082669989067 Eh       
DFET-embed. en.    :        0.000000000000 Eh       

---------------
SCF CONVERGENCE
---------------

  Last Energy change         ...   -2.1393e-09  Tolerance :   1.0000e-08
  Last MAX-Density change    ...    3.5527e-15  Tolerance :   1.0000e-07
  Last RMS-Density change    ...    4.4470e-17  Tolerance :   5.0000e-09
  Last Orbital Gradient      ...    9.8230e-06  Tolerance :   1.0000e-05
  Last Orbital Rotation      ...    1.4435e-05  Tolerance :   1.0000e-05

             **** THE GBW FILE WAS UPDATED (e_c_12.gbw) ****
             **** DENSITY e_c_12.scfp WAS UPDATED ****
             **** ENERGY FILE WAS UPDATED (e_c_12.en.tmp) ****
             **** THE GBW FILE WAS UPDATED (e_c_12.gbw) ****
             **** DENSITY e_c_12.scfp WAS UPDATED ****
----------------
ORBITAL ENERGIES
----------------

  NO   OCC          E(Eh)            E(eV) 
   0   2.0000     -19.673115      -535.3327 
   1   2.0000     -19.672885      -535.3264 
   2   2.0000     -15.005002      -408.3069 
   3   2.0000     -10.230922      -278.3975 
   4   2.0000     -10.224651      -278.2269 
   5   2.0000     -10.223944      -278.2077 
   6   2.0000     -10.223643      -278.1995 
   7   2.0000     -10.221101      -278.1303 
   8   2.0000     -10.220520      -278.1145 
   9   2.0000     -10.219436      -278.0850 
  10   2.0000      -1.688677       -45.9512 
  11   2.0000      -1.568367       -42.6774 
  12   2.0000      -1.013668       -27.5833 
  13   2.0000      -0.970363       -26.4049 
  14   2.0000      -0.967671       -26.3317 
  15   2.0000      -0.941064       -25.6076 
  16   2.0000      -0.878714       -23.9110 
  17   2.0000      -0.795384       -21.6435 
  18   2.0000      -0.771899       -21.0044 
  19   2.0000      -0.762821       -20.7574 
  20   2.0000      -0.758433       -20.6380 
  21   2.0000      -0.707630       -19.2556 
  22   2.0000      -0.630435       -17.1550 
  23   2.0000      -0.611734       -16.6461 
  24   2.0000      -0.541443       -14.7334 
  25   2.0000      -0.494385       -13.4529 
  26   2.0000      -0.485407       -13.2086 
  27   2.0000      -0.456554       -12.4235 
  28   2.0000      -0.450282       -12.2528 
  29   2.0000      -0.439511       -11.9597 
  30   2.0000      -0.418239       -11.3809 
  31   2.0000      -0.387319       -10.5395 
  32   2.0000      -0.380753       -10.3608 
  33   2.0000      -0.372045       -10.1239 
  34   2.0000      -0.290902        -7.9158 
  35   2.0000      -0.273416        -7.4400 
  36   0.0000      -0.507452       -13.8085 
  37   0.0000      -0.446367       -12.1463 
  38   0.0000      -0.198520        -5.4020 
  39   0.0000      -0.045661        -1.2425 
  40   0.0000      -0.038634        -1.0513 
  41   0.0000       0.026716         0.7270 
  42   0.0000       0.045599         1.2408 
  43   0.0000       0.059157         1.6097 
  44   0.0000       0.084523         2.3000 
  45   0.0000       0.087763         2.3881 
  46   0.0000       0.096804         2.6342 
  47   0.0000       0.112897         3.0721 
  48   0.0000       0.129265         3.5175 
  49   0.0000       0.139433         3.7942 
  50   0.0000       0.145486         3.9589 
  51   0.0000       0.172231         4.6866 
  52   0.0000       0.195833         5.3289 
  53   0.0000       0.253918         6.9095 
  54   0.0000       0.262984         7.1562 
  55   0.0000       0.265024         7.2117 
  56   0.0000       0.289997         7.8912 
  57   0.0000       0.305493         8.3129 
  58   0.0000       0.308392         8.3918 
  59   0.0000       0.324848         8.8396 
  60   0.0000       0.329052         8.9540 
  61   0.0000       0.357525         9.7288 
  62   0.0000       0.383992        10.4490 
  63   0.0000       0.385627        10.4934 
  64   0.0000       0.399362        10.8672 
  65   0.0000       0.409205        11.1350 
  66   0.0000       0.420044        11.4300 
  67   0.0000       0.448864        12.2142 
  68   0.0000       0.454978        12.3806 
  69   0.0000       0.465053        12.6547 
  70   0.0000       0.501674        13.6512 
  71   0.0000       0.505209        13.7474 
  72   0.0000       0.516454        14.0534 
  73   0.0000       0.541647        14.7390 
  74   0.0000       0.557674        15.1751 
  75   0.0000       0.565098        15.3771 
  76   0.0000       0.571185        15.5427 
  77   0.0000       0.573560        15.6074 
  78   0.0000       0.598616        16.2892 
  79   0.0000       0.601186        16.3591 
  80   0.0000       0.601693        16.3729 
  81   0.0000       0.611512        16.6401 
  82   0.0000       0.633197        17.2302 
  83   0.0000       0.640192        17.4205 
  84   0.0000       0.642594        17.4859 
  85   0.0000       0.651253        17.7215 
  86   0.0000       0.655264        17.8306 
  87   0.0000       0.657525        17.8922 
  88   0.0000       0.666102        18.1255 
  89   0.0000       0.678139        18.4531 
  90   0.0000       0.693731        18.8774 
  91   0.0000       0.697565        18.9817 
  92   0.0000       0.703565        19.1450 
  93   0.0000       0.715641        19.4736 
  94   0.0000       0.751864        20.4593 
  95   0.0000       0.779975        21.2242 
  96   0.0000       0.812432        22.1074 
  97   0.0000       0.877763        23.8851 
  98   0.0000       0.927680        25.2435 
  99   0.0000       0.986513        26.8444 
 100   0.0000       1.019270        27.7357 
 101   0.0000       1.027713        27.9655 
 102   0.0000       1.056932        28.7606 
 103   0.0000       1.095459        29.8089 
 104   0.0000       1.176876        32.0244 
 105   0.0000       1.211097        32.9556 
 106   0.0000       1.220618        33.2147 
 107   0.0000       1.234864        33.6024 
 108   0.0000       1.240261        33.7492 
 109   0.0000       1.257715        34.2242 
 110   0.0000       1.274498        34.6809 
 111   0.0000       1.346423        36.6380 
 112   0.0000       1.432293        38.9747 
 113   0.0000       1.468089        39.9487 
 114   0.0000       1.481504        40.3138 
 115   0.0000       1.483910        40.3792 
 116   0.0000       1.485591        40.4250 
 117   0.0000       1.511563        41.1317 
 118   0.0000       1.616221        43.9796 
 119   0.0000       1.646437        44.8018 
 120   0.0000       1.648043        44.8455 
 121   0.0000       1.651038        44.9270 
 122   0.0000       1.689785        45.9814 
 123   0.0000       1.703364        46.3509 
 124   0.0000       1.712391        46.5965 
 125   0.0000       1.713830        46.6357 
 126   0.0000       1.731781        47.1242 
 127   0.0000       1.733354        47.1669 
 128   0.0000       1.747310        47.5467 
 129   0.0000       1.760070        47.8939 
 130   0.0000       1.771825        48.2138 
 131   0.0000       1.792721        48.7824 
 132   0.0000       1.833077        49.8806 
 133   0.0000       1.876485        51.0618 
 134   0.0000       1.912401        52.0391 
 135   0.0000       1.946104        52.9562 
 136   0.0000       1.949057        53.0365 
 137   0.0000       1.989488        54.1367 
 138   0.0000       2.002335        54.4863 
 139   0.0000       2.009804        54.6896 
 140   0.0000       2.074078        56.4385 
 141   0.0000       2.099283        57.1244 
 142   0.0000       2.099915        57.1416 
 143   0.0000       2.111112        57.4463 
 144   0.0000       2.128170        57.9105 
 145   0.0000       2.148168        58.4546 
 146   0.0000       2.148966        58.4763 
 147   0.0000       2.204033        59.9748 
 148   0.0000       2.226907        60.5972 
 149   0.0000       2.250256        61.2326 
 150   0.0000       2.255843        61.3846 
 151   0.0000       2.279635        62.0320 
 152   0.0000       2.283572        62.1392 
 153   0.0000       2.312916        62.9376 
 154   0.0000       2.321578        63.1733 
 155   0.0000       2.411121        65.6099 
 156   0.0000       2.436883        66.3110 
 157   0.0000       2.445578        66.5476 
 158   0.0000       2.490940        67.7819 
 159   0.0000       2.556297        69.5604 
 160   0.0000       2.559416        69.6453 
 161   0.0000       2.575429        70.0810 
 162   0.0000       2.610550        71.0367 
 163   0.0000       2.684432        73.0471 
 164   0.0000       2.688816        73.1664 
 165   0.0000       2.695201        73.3402 
 166   0.0000       2.797629        76.1274 
 167   0.0000       2.806376        76.3654 
 168   0.0000       2.838076        77.2280 
 169   0.0000       2.853663        77.6521 
 170   0.0000       2.890204        78.6465 
 171   0.0000       2.927549        79.6626 
 172   0.0000       2.992160        81.4208 
 173   0.0000       3.022125        82.2362 
 174   0.0000       3.093759        84.1855 
 175   0.0000       3.123750        85.0016 
 176   0.0000       3.211183        87.3807 
 177   0.0000       3.214118        87.4606 
 178   0.0000       3.509741        95.5049 
 179   0.0000       3.576867        97.3315 

                    ********************************
                    * MULLIKEN POPULATION ANALYSIS *
                    ********************************

-----------------------
MULLIKEN ATOMIC CHARGES
-----------------------
   0 C :   -0.054317
   1 C :   -0.006111
   2 C :    0.025779
   3 C :    0.008579
   4 C :    0.025785
   5 C :   -0.004634
   6 C :    0.074458
   7 H :    0.010845
   8 H :    0.027670
   9 H :    0.027025
  10 H :   -0.031673
  11 H :   -0.025227
  12 H :   -0.028236
  13 H :   -0.021165
  14 H :   -0.028777
  15 N :    0.587821
  16 O :    0.206451
  17 O :    0.205728
Sum of atomic charges:    1.0000000

--------------------------------
MULLIKEN REDUCED ORBITAL CHARGES
--------------------------------
  0 C s       :     3.088502  s :     3.088502
      pz      :     0.986466  p :     2.923570
      px      :     0.967046
      py      :     0.970058
      dz2     :     0.010846  d :     0.042245
      dxz     :     0.007340
      dyz     :     0.012328
      dx2y2   :     0.005857
      dxy     :     0.005873
  1 C s       :     3.209369  s :     3.209369
      pz      :     0.935293  p :     2.763054
      px      :     0.976432
      py      :     0.851330
      dz2     :     0.010118  d :     0.033688
      dxz     :     0.006828
      dyz     :     0.009861
      dx2y2   :     0.003470
      dxy     :     0.003410
  2 C s       :     3.157367  s :     3.157367
      pz      :     0.892297  p :     2.781672
      px      :     0.967558
      py      :     0.921817
      dz2     :     0.008450  d :     0.035182
      dxz     :     0.006010
      dyz     :     0.011425
      dx2y2   :     0.004457
      dxy     :     0.004840
  3 C s       :     3.157480  s :     3.157480
      pz      :     0.851478  p :     2.800171
      px      :     0.997738
      py      :     0.950955
      dz2     :     0.009009  d :     0.033769
      dxz     :     0.003813
      dyz     :     0.009819
      dx2y2   :     0.005614
      dxy     :     0.005514
  4 C s       :     3.160393  s :     3.160393
      pz      :     0.958077  p :     2.778908
      px      :     0.962453
      py      :     0.858378
      dz2     :     0.010460  d :     0.034914
      dxz     :     0.007246
      dyz     :     0.010053
      dx2y2   :     0.003621
      dxy     :     0.003534
  5 C s       :     3.204700  s :     3.204700
      pz      :     0.849475  p :     2.765891
      px      :     0.981384
      py      :     0.935032
      dz2     :     0.008418  d :     0.034043
      dxz     :     0.005698
      dyz     :     0.011099
      dx2y2   :     0.004254
      dxy     :     0.004574
  6 C s       :     2.941640  s :     2.941640
      pz      :     0.958107  p :     2.955421
      px      :     1.004968
      py      :     0.992345
      dz2     :     0.007518  d :     0.028481
      dxz     :     0.004809
      dyz     :     0.006496
      dx2y2   :     0.004595
      dxy     :     0.005064
  7 H s       :     0.966224  s :     0.966224
      pz      :     0.008132  p :     0.022931
      px      :     0.006307
      py      :     0.008491
  8 H s       :     0.948934  s :     0.948934
      pz      :     0.005068  p :     0.023396
      px      :     0.012894
      py      :     0.005434
  9 H s       :     0.949575  s :     0.949575
      pz      :     0.004285  p :     0.023401
      px      :     0.007575
      py      :     0.011541
 10 H s       :     1.008898  s :     1.008898
      pz      :     0.003856  p :     0.022775
      px      :     0.006075
      py      :     0.012845
 11 H s       :     1.002468  s :     1.002468
      pz      :     0.009574  p :     0.022759
      px      :     0.005897
      py      :     0.007288
 12 H s       :     1.005519  s :     1.005519
      pz      :     0.013257  p :     0.022717
      px      :     0.004676
      py      :     0.004784
 13 H s       :     0.998378  s :     0.998378
      pz      :     0.003913  p :     0.022787
      px      :     0.006014
      py      :     0.012859
 14 H s       :     1.005995  s :     1.005995
      pz      :     0.009585  p :     0.022782
      px      :     0.005927
      py      :     0.007271
 15 N s       :     3.217385  s :     3.217385
      pz      :     0.945753  p :     3.086726
      px      :     1.067035
      py      :     1.073938
      dz2     :     0.026783  d :     0.108068
      dxz     :     0.032199
      dyz     :     0.036744
      dx2y2   :     0.006130
      dxy     :     0.006212
 16 O s       :     3.876191  s :     3.876191
      pz      :     1.285636  p :     3.884653
      px      :     1.191987
      py      :     1.407029
      dz2     :     0.009910  d :     0.032706
      dxz     :     0.009589
      dyz     :     0.007063
      dx2y2   :     0.003051
      dxy     :     0.003092
 17 O s       :     3.876614  s :     3.876614
      pz      :     1.038074  p :     3.885026
      px      :     1.416096
      py      :     1.430856
      dz2     :     0.013245  d :     0.032632
      dxz     :     0.009435
      dyz     :     0.009719
      dx2y2   :     0.000117
      dxy     :     0.000116


                     *******************************
                     * LOEWDIN POPULATION ANALYSIS *
                     *******************************

----------------------
LOEWDIN ATOMIC CHARGES
----------------------
   0 C :   -0.019213
   1 C :   -0.029569
   2 C :   -0.027727
   3 C :   -0.036694
   4 C :   -0.025428
   5 C :   -0.032249
   6 C :   -0.047543
   7 H :    0.028402
   8 H :    0.036870
   9 H :    0.036456
  10 H :    0.023268
  11 H :    0.023661
  12 H :    0.020050
  13 H :    0.025479
  14 H :    0.024234
  15 N :    0.485499
  16 O :    0.257671
  17 O :    0.256830

-------------------------------
LOEWDIN REDUCED ORBITAL CHARGES
-------------------------------
  0 C s       :     2.862933  s :     2.862933
      pz      :     1.038868  p :     3.052579
      px      :     0.964349
      py      :     1.049361
      dz2     :     0.028023  d :     0.103701
      dxz     :     0.015514
      dyz     :     0.032397
      dx2y2   :     0.013737
      dxy     :     0.014029
  1 C s       :     2.864110  s :     2.864110
      pz      :     1.057732  p :     3.076982
      px      :     0.994334
      py      :     1.024916
      dz2     :     0.029198  d :     0.088476
      dxz     :     0.016084
      dyz     :     0.027834
      dx2y2   :     0.007687
      dxy     :     0.007673
  2 C s       :     2.862049  s :     2.862049
      pz      :     1.053523  p :     3.074487
      px      :     0.981330
      py      :     1.039634
      dz2     :     0.024045  d :     0.091190
      dxz     :     0.013709
      dyz     :     0.031148
      dx2y2   :     0.010723
      dxy     :     0.011565
  3 C s       :     2.867008  s :     2.867008
      pz      :     1.034239  p :     3.082650
      px      :     1.001108
      py      :     1.047303
      dz2     :     0.023993  d :     0.087036
      dxz     :     0.008822
      dyz     :     0.027043
      dx2y2   :     0.013488
      dxy     :     0.013690
  4 C s       :     2.863146  s :     2.863146
      pz      :     1.067745  p :     3.071882
      px      :     0.979282
      py      :     1.024855
      dz2     :     0.029243  d :     0.090400
      dxz     :     0.017120
      dyz     :     0.028190
      dx2y2   :     0.007926
      dxy     :     0.007921
  5 C s       :     2.863547  s :     2.863547
      pz      :     1.049816  p :     3.079414
      px      :     0.995156
      py      :     1.034442
      dz2     :     0.024063  d :     0.089287
      dxz     :     0.013090
      dyz     :     0.031023
      dx2y2   :     0.010233
      dxy     :     0.010879
  6 C s       :     2.834622  s :     2.834622
      pz      :     1.021674  p :     3.139529
      px      :     1.063301
      py      :     1.054553
      dz2     :     0.020115  d :     0.073392
      dxz     :     0.011522
      dyz     :     0.017121
      dx2y2   :     0.011625
      dxy     :     0.013010
  7 H s       :     0.907784  s :     0.907784
      pz      :     0.023812  p :     0.063813
      px      :     0.016405
      py      :     0.023596
  8 H s       :     0.899833  s :     0.899833
      pz      :     0.013903  p :     0.063297
      px      :     0.036156
      py      :     0.013238
  9 H s       :     0.900122  s :     0.900122
      pz      :     0.011896  p :     0.063422
      px      :     0.018998
      py      :     0.032528
 10 H s       :     0.909808  s :     0.909808
      pz      :     0.012153  p :     0.066924
      px      :     0.018043
      py      :     0.036728
 11 H s       :     0.909978  s :     0.909978
      pz      :     0.027459  p :     0.066361
      px      :     0.017368
      py      :     0.021534
 12 H s       :     0.913099  s :     0.913099
      pz      :     0.037733  p :     0.066851
      px      :     0.014212
      py      :     0.014906
 13 H s       :     0.907978  s :     0.907978
      pz      :     0.012381  p :     0.066543
      px      :     0.017692
      py      :     0.036470
 14 H s       :     0.908680  s :     0.908680
      pz      :     0.027634  p :     0.067086
      px      :     0.017778
      py      :     0.021674
 15 N s       :     3.036038  s :     3.036038
      pz      :     1.135578  p :     3.265143
      px      :     1.077718
      py      :     1.051847
      dz2     :     0.061053  d :     0.213320
      dxz     :     0.065450
      dyz     :     0.065177
      dx2y2   :     0.011002
      dxy     :     0.010638
 16 O s       :     3.606180  s :     3.606180
      pz      :     1.387389  p :     4.078327
      px      :     1.279819
      py      :     1.411119
      dz2     :     0.016439  d :     0.057822
      dxz     :     0.022003
      dyz     :     0.010089
      dx2y2   :     0.004847
      dxy     :     0.004443
 17 O s       :     3.606831  s :     3.606831
      pz      :     1.234733  p :     4.078640
      px      :     1.417828
      py      :     1.426080
      dz2     :     0.032374  d :     0.057698
      dxz     :     0.012524
      dyz     :     0.012482
      dx2y2   :     0.000159
      dxy     :     0.000159


                      *****************************
                      * MAYER POPULATION ANALYSIS *
                      *****************************

  NA   - Mulliken gross atomic population
  ZA   - Total nuclear charge
  QA   - Mulliken gross atomic charge
  VA   - Mayer's total valence
  BVA  - Mayer's bonded valence
  FA   - Mayer's free valence

  ATOM       NA         ZA         QA         VA         BVA        FA
  0 C      6.0543     6.0000    -0.0543     4.0000     4.0000    -0.0000
  1 C      6.0061     6.0000    -0.0061     3.8575     3.8575    -0.0000
  2 C      5.9742     6.0000     0.0258     3.8395     3.8395    -0.0000
  3 C      5.9914     6.0000     0.0086     3.8393     3.8393    -0.0000
  4 C      5.9742     6.0000     0.0258     3.8397     3.8397    -0.0000
  5 C      6.0046     6.0000    -0.0046     3.8579     3.8579    -0.0000
  6 C      5.9255     6.0000     0.0745     3.9100     3.9100    -0.0000
  7 H      0.9892     1.0000     0.0108     0.9962     0.9962     0.0000
  8 H      0.9723     1.0000     0.0277     0.9876     0.9876     0.0000
  9 H      0.9730     1.0000     0.0270     0.9879     0.9879     0.0000
 10 H      1.0317     1.0000    -0.0317     0.9853     0.9853     0.0000
 11 H      1.0252     1.0000    -0.0252     0.9759     0.9759    -0.0000
 12 H      1.0282     1.0000    -0.0282     0.9762     0.9762    -0.0000
 13 H      1.0212     1.0000    -0.0212     0.9767     0.9767     0.0000
 14 H      1.0288     1.0000    -0.0288     0.9853     0.9853    -0.0000
 15 N      6.4122     7.0000     0.5878     3.9915     3.9915     0.0000
 16 O      7.7935     8.0000     0.2065     2.5275     2.5275     0.0000
 17 O      7.7943     8.0000     0.2057     2.5262     2.5262    -0.0000

  Mayer bond orders larger than 0.100000
B(  0-C ,  1-C ) :   1.3771 B(  0-C ,  5-C ) :   1.3975 B(  0-C ,  6-C ) :   1.0707 
B(  1-C ,  2-C ) :   1.4001 B(  1-C , 10-H ) :   0.9862 B(  2-C ,  3-C ) :   1.3729 
B(  2-C , 11-H ) :   0.9825 B(  3-C ,  4-C ) :   1.3911 B(  3-C , 12-H ) :   0.9813 
B(  4-C ,  5-C ) :   1.3814 B(  4-C , 13-H ) :   0.9815 B(  5-C , 14-H ) :   0.9827 
B(  6-C ,  7-H ) :   0.9595 B(  6-C ,  8-H ) :   0.9520 B(  6-C ,  9-H ) :   0.9524 
B( 15-N , 16-O ) :   1.9963 B( 15-N , 17-O ) :   1.9951 B( 16-O , 17-O ) :   0.5311 


-------
TIMINGS
-------

Total SCF time: 0 days 0 hours 1 min 36 sec 

Total time                  ....      96.606 sec
Sum of individual times     ....      95.958 sec  ( 99.3%)

Fock matrix formation       ....      90.134 sec  ( 93.3%)
  Split-RI-J                ....       8.208 sec  (  9.1% of F)
  Chain of spheres X        ....      62.988 sec  ( 69.9% of F)
  XC integration            ....      18.750 sec  ( 20.8% of F)
    Basis function eval.    ....       6.932 sec  ( 37.0% of XC)
    Density eval.           ....       5.030 sec  ( 26.8% of XC)
    XC-Functional eval.     ....       1.812 sec  (  9.7% of XC)
    XC-Potential eval.      ....       3.765 sec  ( 20.1% of XC)
Diagonalization             ....       0.117 sec  (  0.1%)
Density matrix formation    ....       0.020 sec  (  0.0%)
Population analysis         ....       0.040 sec  (  0.0%)
Initial guess               ....       0.821 sec  (  0.8%)
Orbital Transformation      ....       0.000 sec  (  0.0%)
Orbital Orthonormalization  ....       0.000 sec  (  0.0%)
DIIS solution               ....       0.192 sec  (  0.2%)
SOSCF solution              ....       0.071 sec  (  0.1%)
Grid generation             ....       4.563 sec  (  4.7%)

Maximum memory used throughout the entire SCF-calculation: 69.1 MB


-------------------------------------------------------------------------------
                          DFT DISPERSION CORRECTION                            
                                                                               
                                 DFTD4 V2.5                                    
-------------------------------------------------------------------------------
Gaussians B3LYP functional is recognized, using regular B3LYP params
Active option DFTDOPT                   ...         5   

Starting D4
-------------------------   ----------------
Dispersion correction           -0.021412696
-------------------------   ----------------


-------------------------   --------------------
FINAL SINGLE POINT ENERGY      -475.930002210574
-------------------------   --------------------

------------------------------------------------------------------------------
                         ORCA SCF GRADIENT CALCULATION
------------------------------------------------------------------------------

 ... reading COSX grid (gridx3)
Gradient of the Kohn-Sham DFT energy:
Kohn-Sham wavefunction type      ... RKS
Hartree-Fock exchange scaling    ...    0.200
Number of operators              ...    1
Number of atoms                  ...   18
Basis set dimensions             ...  180
Integral neglect threshold       ... 2.5e-11
Integral primitive cutoff        ... 2.5e-12
SHARK Integral package           ... ON

Nuc. rep. gradient       (SHARK) ... done (  0.0 sec)
HCore & Overlap gradient (SHARK) ... done (  0.2 sec)
RI-J gradient            (SHARK) ... done (  1.3 sec)
COSX-gradient                    ... done ( 10.1 sec)
Exchange-correlation gradient    ... done
Dispersion correction            ... Starting D4


------------------- 
Dispersion Gradient 
------------------- 
   1  :   -0.000003354    0.000098547    0.000289043
   2  :   -0.000166613    0.000342678   -0.000121776
   3  :   -0.000149749    0.000203311   -0.000441402
   4  :    0.000006619   -0.000148676   -0.000426991
   5  :    0.000159881   -0.000430404   -0.000210143
   6  :    0.000171752   -0.000351871    0.000125175
   7  :   -0.000013539    0.000214617    0.000590843
   8  :    0.000010957    0.000025635    0.000155832
   9  :   -0.000050363    0.000050333    0.000155876
  10  :    0.000030185    0.000086586    0.000143998
  11  :   -0.000084887    0.000187598   -0.000019915
  12  :   -0.000061023    0.000095747   -0.000138553
  13  :    0.000002583   -0.000056993   -0.000163671
  14  :    0.000063776   -0.000160094   -0.000046804
  15  :    0.000083547   -0.000157235    0.000105809
  16  :    0.000003771    0.000000994   -0.000001620
  17  :    0.000010461    0.000004367    0.000037642
  18  :   -0.000014005   -0.000005139   -0.000033341

  |G| =    0.000928915

done

------------------
CARTESIAN GRADIENT
------------------

   1   C   :    0.000290601    0.005281901    0.018460513
   2   C   :   -0.006020024    0.007996407   -0.018373276
   3   C   :   -0.004737072    0.012955674    0.007008745
   4   C   :   -0.001180473    0.000637584   -0.007054869
   5   C   :    0.005167943   -0.006388579    0.017416929
   6   C   :    0.005878902   -0.016168331   -0.008773251
   7   C   :    0.003501229   -0.008691943   -0.006601412
   8   H   :    0.000270909   -0.000902153    0.000094185
   9   H   :   -0.003124716    0.001968043   -0.000849893
  10   H   :    0.000006117    0.003267324   -0.001643341
  11   H   :    0.000263135   -0.000783824   -0.000400850
  12   H   :    0.000332106   -0.000550536    0.000708668
  13   H   :   -0.000034805    0.000274741    0.000541993
  14   H   :   -0.000295251    0.000777487    0.000268728
  15   H   :   -0.000285480    0.000362146   -0.000805211
  16   N   :   -0.092610184   -0.024549574    0.036211851
  17   O   :    0.062215500    0.018495691    0.028648152
  18   O   :    0.030456599    0.006121134   -0.064824140

Difference to translation invariance:
           :    0.0000950381    0.0001031935    0.0000335205

Difference to rotation invariance:
           :    0.0013497504   -0.0007844656   -0.0010952457

Norm of the cartesian gradient     ...    0.1506537472
RMS gradient                       ...    0.0205013783
MAX gradient                       ...    0.0926101836

-------
TIMINGS
-------

Total SCF gradient time            ...       18.273 sec

One electron gradient       ....       0.203 sec  (  1.1%)
RI-J Coulomb gradient       ....       1.318 sec  (  7.2%)
COSX gradient               ....      10.082 sec  ( 55.2%)
XC gradient                 ....       6.022 sec  ( 33.0%)

Maximum memory used throughout the entire SCFGRAD-calculation: 54.8 MB
------------------------------------------------------------------------------
                         ORCA GEOMETRY RELAXATION STEP
------------------------------------------------------------------------------

Reading the OPT-File                    .... done
Getting information on internals        .... done
Copying old internal coords+grads       .... done
Making the new internal coordinates     .... (new redundants).... done
Validating the new internal coordinates .... (new redundants).... done
Calculating the B-matrix                .... done
Calculating the G,G- and P matrices     .... done
Transforming gradient to internals      .... done
Projecting the internal gradient        .... done
Number of atoms                         ....  18
Number of internal coordinates          ....  88
Current Energy                          ....  -475.930002211 Eh
Current gradient norm                   ....     0.150653747 Eh/bohr
Maximum allowed component of the step   ....  0.300
Current trust radius                    ....  0.300
Evaluating the initial hessian          ....  (Almloef) done
Projecting the Hessian                  .... done
Forming the augmented Hessian           .... done
Diagonalizing the augmented Hessian     .... done
Last element of RFO vector              ....  0.984416928
Lowest eigenvalues of augmented Hessian:
 -0.020189144  0.000000018  0.001499685  0.007835932  0.012728716
Length of the computed step             ....  0.178633920
The final length of the internal step   ....  0.178633920
Converting the step to cartesian space:
 Initial RMS(Int)=    0.0190424399
Transforming coordinates:
 Iter   0:  RMS(Cart)=    0.0362418045 RMS(Int)=    1.3396243021
 Iter   1:  RMS(Cart)=    0.0029870273 RMS(Int)=    0.6697916815
 Iter   2:  RMS(Cart)=    0.0003437672 RMS(Int)=    0.0001570874
 Iter   3:  RMS(Cart)=    0.0000585183 RMS(Int)=    0.0000474252
 Iter   4:  RMS(Cart)=    0.0000070869 RMS(Int)=    0.0000045339
 Iter   5:  RMS(Cart)=    0.0000015723 RMS(Int)=    0.0000017115
 Iter   6:  RMS(Cart)=    0.0000004893 RMS(Int)=    0.0000006282
 Iter   7:  RMS(Cart)=    0.0000002026 RMS(Int)=    0.0000002680
 Iter   8:  RMS(Cart)=    0.0000000862 RMS(Int)=    0.0000001144
done
Storing new coordinates                 .... done

                                .--------------------.
          ----------------------|Geometry convergence|-------------------------
          Item                value                   Tolerance       Converged
          ---------------------------------------------------------------------
          RMS gradient        0.0127556540            0.0000300000      NO
          MAX gradient        0.0819029776            0.0001000000      NO
          RMS step            0.0190424399            0.0006000000      NO
          MAX step            0.1476080084            0.0010000000      NO
          ........................................................
          Max(Bonds)      0.0272      Max(Angles)    8.46
          Max(Dihed)        0.45      Max(Improp)    0.00
          ---------------------------------------------------------------------

The optimization has not yet converged - more geometry cycles are needed


    ---------------------------------------------------------------------------
                         Redundant Internal Coordinates
                            (Angstroem and degrees)

        Definition                    Value    dE/dq     Step     New-Value
    ----------------------------------------------------------------------------
     1. B(C   1,C   0)                1.4242  0.015157 -0.0142    1.4100   
     2. B(C   2,C   1)                1.3841 -0.009819  0.0079    1.3920   
     3. B(C   3,C   2)                1.4088  0.009601 -0.0082    1.4006   
     4. B(C   4,C   3)                1.4108  0.013597 -0.0119    1.3989   
     5. B(C   5,C   4)                1.3861 -0.010582  0.0086    1.3946   
     6. B(C   5,C   0)                1.4171  0.012150 -0.0111    1.4059   
     7. B(C   6,C   0)                1.4911 -0.009969  0.0117    1.5028   
     8. B(H   7,C   6)                1.1001  0.000754 -0.0011    1.0990   
     9. B(H   8,C   6)                1.1086  0.003095 -0.0046    1.1040   
    10. B(H   9,C   6)                1.1077  0.002710 -0.0040    1.1037   
    11. B(H  10,C   1)                1.0926 -0.000894  0.0013    1.0939   
    12. B(H  11,C   2)                1.0917 -0.001145  0.0015    1.0932   
    13. B(H  12,C   3)                1.0921  0.004299  0.0004    1.0925   
    14. B(H  13,C   4)                1.0918 -0.000867  0.0012    1.0930   
    15. B(H  14,C   5)                1.0921 -0.000904  0.0013    1.0933   
    16. B(N  15,H  12)               12.6008  0.015544 -0.0147   12.5862   
    17. B(O  16,H  12)               11.5820 -0.010351  0.0061   11.5881   
    18. B(O  16,H  11)               12.2935 -0.000308  0.0040   12.2975   
    19. B(O  16,C   3)               12.6174 -0.004911  0.0056   12.6230   
    20. B(O  16,N  15)                1.1578  0.046372 -0.0264    1.1314   
    21. B(O  17,N  15)                1.1586  0.061369 -0.0272    1.1313   
    22. A(C   1,C   0,C   5)          118.58  0.002822   -0.40    118.18   
    23. A(C   1,C   0,C   6)          120.04 -0.001907    0.27    120.31   
    24. A(C   5,C   0,C   6)          121.37 -0.000916    0.13    121.50   
    25. A(C   0,C   1,C   2)          120.81 -0.001464    0.20    121.01   
    26. A(C   0,C   1,H  10)          119.02  0.000964   -0.14    118.88   
    27. A(C   2,C   1,H  10)          120.17  0.000500   -0.06    120.10   
    28. A(C   3,C   2,H  11)          119.89  0.001073   -0.15    119.74   
    29. A(C   1,C   2,C   3)          119.78 -0.001652    0.26    120.04   
    30. A(C   1,C   2,H  11)          120.33  0.000580   -0.11    120.22   
    31. A(C   2,C   3,C   4)          120.20  0.003284   -0.51    119.69   
    32. A(C   2,C   3,O  16)          102.34 -0.000379    0.13    102.47   
    33. A(H  12,C   3,O  16)           17.74 -0.002025    0.13     17.87   
    34. A(C   4,C   3,H  12)          119.85 -0.000870    0.25    120.10   
    35. A(C   4,C   3,O  16)          137.39 -0.002901    0.38    137.77   
    36. A(C   2,C   3,H  12)          119.94 -0.002414    0.27    120.21   
    37. A(C   5,C   4,H  13)          120.24  0.000179   -0.04    120.19   
    38. A(C   3,C   4,H  13)          119.81  0.000358   -0.07    119.73   
    39. A(C   3,C   4,C   5)          119.96 -0.000537    0.12    120.08   
    40. A(C   4,C   5,H  14)          120.21  0.001007   -0.13    120.08   
    41. A(C   0,C   5,C   4)          120.66 -0.002453    0.33    120.99   
    42. A(C   0,C   5,H  14)          119.13  0.001446   -0.20    118.93   
    43. A(H   8,C   6,H   9)          105.67 -0.000023    0.32    105.98   
    44. A(H   7,C   6,H   9)          108.84  0.001798   -0.47    108.37   
    45. A(C   0,C   6,H   9)          110.50 -0.002120    0.42    110.92   
    46. A(H   7,C   6,H   8)          108.58  0.001520   -0.40    108.18   
    47. A(C   0,C   6,H   8)          110.56 -0.001756    0.37    110.93   
    48. A(C   0,C   6,H   7)          112.44  0.000641   -0.22    112.22   
    49. A(O  16,N  15,O  17)          151.55 -0.081903    8.46    160.00   
    50. A(C   3,O  16,N  15)          150.37 -0.015480    0.30    150.68   
[...]
      6       0.047615  -0.042815  -0.022103   0.000025   0.000074  -0.000073
      7      -0.077134   0.124553   0.128683  -0.000082  -0.000105  -0.000032
      8       0.094217   0.085026   0.241864  -0.000091   0.000186   0.000011
      9      -0.102251  -0.007991  -0.020407   0.000003   0.000018   0.000015
     10       0.213170  -0.017747  -0.001535   0.000014  -0.000014   0.000004
     11      -0.056222  -0.110154  -0.146698   0.000051   0.000079  -0.000001
     12       0.039772   0.050559   0.040392  -0.000023  -0.000092  -0.000025
     13      -0.114837  -0.066827   0.005658   0.000014   0.000171  -0.000011
     14      -0.076235   0.146367   0.298477  -0.000133  -0.000109   0.000004
     15      -0.016322  -0.048594   0.032473  -0.000022  -0.000101   0.000525
     16       0.072022   0.122649  -0.154462   0.000074   0.000030   0.000232
     17       0.108004   0.039010  -0.249091   0.000057  -0.000615  -0.000076
     18       0.003978   0.000901  -0.001226   0.000003  -0.006758   0.083364
     19      -0.009774   0.010173  -0.008712   0.000004   0.029558   0.036589
     20      -0.002309   0.037905  -0.035583  -0.000001   0.042755  -0.011903
     21      -0.015456   0.009056  -0.005259   0.000003  -0.173426   0.015314
     22       0.063621  -0.020129   0.005260  -0.000024   0.305530   0.006479
     23       0.086989  -0.000054  -0.019340   0.000038  -0.274594  -0.002004
     24      -0.008051   0.005774   0.004028  -0.000190   0.592851  -0.656606
     25      -0.065616   0.055453  -0.019883  -0.000029  -0.120462   0.156031
     26       0.000581   0.018097  -0.006358   0.000103  -0.177424   0.205525
     27       0.053043  -0.039596   0.010232   0.000142  -0.339265  -0.358290
     28      -0.038847   0.035313  -0.017043   0.000118  -0.532616  -0.601248
     29      -0.007828   0.024679  -0.007542   0.000047  -0.045331  -0.060808
     30       0.076913  -0.058208   0.109509  -0.000022  -0.002795   0.001387
     31      -0.068401  -0.002871  -0.118250  -0.000061   0.007204   0.000637
     32       0.325539  -0.414050   0.398764  -0.000008   0.002680  -0.000202
     33       0.073165   0.089765   0.102673  -0.000024   0.000214  -0.000022
     34      -0.145396  -0.314761  -0.270352   0.000011  -0.000151  -0.000004
     35       0.062462  -0.343145  -0.116996   0.000264   0.001021  -0.000006
     36       0.301719   0.023146   0.027943  -0.000028   0.000016   0.000505
     37      -0.606458  -0.088463  -0.106404  -0.000019   0.000063   0.000224
     38       0.235230  -0.111041  -0.133129   0.000269   0.000299  -0.000070
     39       0.102029  -0.072702  -0.086817  -0.000057  -0.000160  -0.000354
     40      -0.173893   0.009041   0.097230   0.000044   0.000544  -0.000157
     41       0.174787  -0.478373  -0.305118   0.000149   0.000575   0.000052
     42       0.089595   0.071772  -0.106323  -0.000039   0.002486   0.000128
     43      -0.267323  -0.280341   0.294481  -0.000006  -0.003653   0.000049
     44      -0.199422  -0.362756   0.165880  -0.000069   0.006093  -0.000007
     45      -0.000004  -0.000013  -0.000001  -0.458430  -0.000009  -0.000001
     46       0.000013  -0.000022   0.000121  -0.153478  -0.000007  -0.000000
     47       0.000007  -0.000007  -0.000149  -0.699434  -0.000012   0.000001
     48       0.003012   0.005548  -0.027379   0.200744   0.000184  -0.000005
     49       0.001028   0.001870  -0.009221   0.067418   0.000061   0.000010
     50       0.004597   0.008465  -0.041704   0.305958   0.000279  -0.000002
     51      -0.003031  -0.005538   0.027381   0.200617  -0.000175   0.000000
     52      -0.000991  -0.001841   0.009120   0.066956  -0.000060  -0.000011
     53      -0.004617  -0.008448   0.041854   0.306421  -0.000269   0.000001
                 48         49         50         51         52         53    
      0      -0.000245  -0.000598   0.001087   0.000050   0.000962   0.000138
      1       0.000851   0.000549  -0.002469  -0.000831  -0.002060  -0.000635
      2       0.000919  -0.002476  -0.000026  -0.002216   0.000365  -0.000997
      3       0.000372   0.025038  -0.011945   0.013994  -0.008095   0.004333
      4      -0.000926  -0.060661   0.029289  -0.034481   0.020651  -0.011154
      5      -0.000276  -0.012345   0.006971  -0.008688   0.007192  -0.004152
      6      -0.000033  -0.015981   0.000341   0.013128  -0.019861   0.013938
      7       0.000054   0.026345  -0.001160  -0.019961   0.031791  -0.023159
      8      -0.000060  -0.030188  -0.001199   0.029960  -0.040436   0.025768
      9      -0.000065   0.000027  -0.000646   0.000014   0.002077  -0.000319
     10       0.000123   0.007001   0.008468  -0.015600  -0.009589   0.019767
     11      -0.000068   0.021773   0.021604  -0.047986  -0.015063   0.058693
     12      -0.000085   0.006336   0.016793  -0.002525  -0.019386  -0.019213
     13       0.000177  -0.015468  -0.040468   0.007323   0.048032   0.046250
     14      -0.000033  -0.003484  -0.007603   0.004946   0.012828   0.008550
     15       0.001132  -0.004741  -0.022547  -0.016675  -0.012180  -0.006773
     16      -0.001760   0.007972   0.036715   0.026919   0.018834   0.010125
     17       0.002472  -0.008478  -0.043989  -0.033241  -0.026831  -0.015988
     18      -0.038589   0.000260  -0.001166  -0.000419  -0.000494  -0.000166
     19       0.075597  -0.000638   0.002233   0.000699   0.000950   0.000298
     20      -0.037859  -0.000126  -0.001306  -0.000770  -0.000542  -0.000245
     21       0.345825  -0.000494   0.011039   0.005379   0.004205   0.001936
     22      -0.604356   0.001340  -0.018880  -0.008699  -0.007244  -0.003133
     23       0.561818   0.000688   0.019210   0.010931   0.007163   0.003926
     24       0.288052  -0.005694   0.007470  -0.000260   0.002830   0.000288
     25      -0.049022   0.001091  -0.001232   0.000161  -0.000366   0.000077
     26      -0.095426   0.003128  -0.002420   0.001524  -0.000781   0.000399
     27      -0.173694   0.003648  -0.004521   0.000427  -0.001759  -0.000145
     28      -0.252968   0.005234  -0.006525   0.000490  -0.002396  -0.000104
     29      -0.029890   0.001804  -0.000712   0.001435  -0.000129   0.000464
     30      -0.004318  -0.285763   0.136783  -0.157223   0.092948  -0.048310
     31       0.011000   0.697375  -0.334155   0.384189  -0.227840   0.118577
     32       0.003774   0.156688  -0.076074   0.087758  -0.054084   0.028584
     33       0.001041   0.185605  -0.000500  -0.156968   0.222601  -0.146139
     34      -0.001687  -0.299125   0.001406   0.251246  -0.357756   0.235809
     35       0.002056   0.371511   0.000811  -0.319482   0.448654  -0.291702
     36       0.000090   0.002362   0.002981  -0.005066  -0.003771   0.006153
     37       0.000050  -0.089590  -0.090898   0.191195   0.068597  -0.221989
     38       0.000786  -0.259743  -0.259439   0.554105   0.185118  -0.641402
     39       0.001673  -0.075636  -0.194849   0.036112   0.222681   0.205775
     40      -0.004116   0.184561   0.474999  -0.089299  -0.544298  -0.501577
     41      -0.001006   0.041342   0.105090  -0.023355  -0.124576  -0.110823
     42      -0.011702   0.052718   0.257138   0.187438   0.139177   0.076515
     43       0.017963  -0.084971  -0.413384  -0.301138  -0.222804  -0.122066
     44      -0.026205   0.105503   0.517949   0.378140   0.283203   0.157022
     45      -0.000003   0.000001  -0.000002  -0.000002   0.000003  -0.000010
     46      -0.000003  -0.000002   0.000002  -0.000001   0.000000  -0.000005
     47      -0.000003   0.000002  -0.000001  -0.000001   0.000004  -0.000012
     48       0.000164   0.000052   0.000017   0.000103  -0.000009   0.000188
     49       0.000055   0.000016   0.000008   0.000035  -0.000004   0.000063
     50       0.000249   0.000078   0.000026   0.000157  -0.000014   0.000285
     51      -0.000161  -0.000051  -0.000018  -0.000102   0.000008  -0.000179
     52      -0.000053  -0.000019  -0.000002  -0.000033   0.000002  -0.000059
     53      -0.000247  -0.000079  -0.000026  -0.000156   0.000011  -0.000275


-----------
IR SPECTRUM
-----------

 Mode   freq       eps      Int      T**2         TX        TY        TZ
       cm**-1   L/(mol*cm) km/mol    a.u.
----------------------------------------------------------------------------
 11:      3.76   0.000000    0.00  0.000000  ( 0.000000  0.000000  0.000000)
 12:      8.03   0.000049    0.25  0.001887  ( 0.035232  0.021096 -0.014149)
 13:    204.11   0.000267    1.35  0.000408  ( 0.018315  0.008106 -0.002662)
 14:    347.23   0.000352    1.78  0.000316  (-0.002258  0.009225  0.015034)
 15:    378.83   0.001838    9.29  0.001514  ( 0.022192 -0.031535 -0.005217)
 16:    405.33   0.000002    0.01  0.000001  (-0.000974 -0.000434  0.000161)
 17:    461.36   0.000776    3.92  0.000525  (-0.020791 -0.009154  0.002965)
 18:    519.67   0.013361   67.52  0.008023  (-0.008238 -0.005952 -0.088993)
 19:    564.75   0.000532    2.69  0.000294  ( 0.000378 -0.005021 -0.016388)
 20:    679.19   0.003628   18.33  0.001667  (-0.037089 -0.016376  0.004812)
 21:    757.12   0.007013   35.44  0.002891  ( 0.048774  0.021565 -0.006843)
 22:    798.15   0.008483   42.87  0.003317  (-0.006655 -0.000326 -0.057203)
 23:    849.46   0.000006    0.03  0.000002  (-0.001282 -0.000560  0.000257)
 24:    932.74   0.000005    0.02  0.000002  (-0.001105 -0.000502  0.000333)
 25:    984.08   0.025745  130.11  0.008164  ( 0.004825  0.014212  0.089100)
 26:   1013.27   0.000012    0.06  0.000004  ( 0.001726  0.000787 -0.000010)
 27:   1017.09   0.010820   54.68  0.003320  (-0.005486 -0.003235 -0.057265)
 28:   1027.73   0.000812    4.10  0.000246  ( 0.014257  0.006291 -0.001899)
 29:   1037.51   0.000584    2.95  0.000176  ( 0.012067  0.005332 -0.001295)
 30:   1054.90   0.006435   32.52  0.001904  (-0.004184 -0.002681 -0.043346)
 31:   1099.07   0.002063   10.43  0.000586  (-0.007101  0.019314  0.012744)
 32:   1155.27   0.002498   12.63  0.000675  (-0.002259 -0.002315 -0.025776)
 33:   1197.18   0.063077  318.77  0.016442  ( 0.010650  0.011344  0.127279)
 34:   1230.31   0.070970  358.65  0.018001  ( 0.009474  0.016030  0.132870)
 35:   1327.81   0.007373   37.26  0.001733  ( 0.003032  0.005098  0.041204)
 36:   1377.78   0.020373  102.96  0.004615  (-0.001095  0.021338  0.064483)
 37:   1399.65   0.007084   35.80  0.001579  ( 0.002823 -0.016165 -0.036196)
 38:   1424.70   0.025842  130.59  0.005660  (-0.007296 -0.004245 -0.074760)
 39:   1442.84   0.001833    9.26  0.000396  ( 0.018175  0.007990 -0.001511)
 40:   1460.19   1.706992  8626.44  0.364810  (-0.047122 -0.059350 -0.599222)
 41:   1467.24   0.523486  2645.48  0.111339  ( 0.035583  0.011219  0.331582)
 42:   1510.73   0.001194    6.03  0.000247  ( 0.006413 -0.012424  0.007152)
 43:   1523.38   0.008832   44.64  0.001809  ( 0.001197 -0.015824 -0.039465)
 44:   1664.36   0.148323  749.56  0.027810  ( 0.013155  0.016742  0.165399)
 45:   2597.60   0.067069  338.94  0.008057  (-0.050255 -0.016631 -0.072493)
 46:   3028.57   0.007236   36.57  0.000746  (-0.002184 -0.002482 -0.027104)
 47:   3096.44   0.000411    2.08  0.000041  ( 0.005841  0.002602 -0.000712)
 48:   3131.67   0.016154   81.63  0.001610  (-0.006091  0.002217 -0.039594)
 49:   3172.50   0.002105   10.64  0.000207  (-0.000031 -0.004039 -0.013812)
 50:   3177.81   0.000439    2.22  0.000043  (-0.001674  0.001912 -0.006052)
 51:   3185.29   0.006327   31.98  0.000620  (-0.000557 -0.005781 -0.024211)
 52:   3192.22   0.001409    7.12  0.000138  (-0.004917  0.009342 -0.005127)
 53:   3201.73   0.005566   28.13  0.000543  (-0.003287  0.001473 -0.023012)

* The epsilon (eps) is given for a Dirac delta lineshape.
** The dipole moment derivative (T) already includes vibrational overlap.

The first frequency considered to be a vibration is 11
The total number of vibrations considered is 43


--------------------------
THERMOCHEMISTRY AT 298.15K
--------------------------

Temperature         ... 298.15 K
Pressure            ... 1.00 atm
Total Mass          ... 138.15 AMU

Throughout the following assumptions are being made:
  (1) The electronic state is orbitally nondegenerate
  (2) There are no thermally accessible electronically excited states
  (3) Hindered rotations indicated by low frequency modes are not
      treated as such but are treated as vibrations and this may
      cause some error
  (4) All equations used are the standard statistical mechanics
      equations for an ideal gas
  (5) All vibrations are strictly harmonic

freq.       3.76  E(vib)   ...       0.59 
freq.       8.03  E(vib)   ...       0.58 
freq.     204.11  E(vib)   ...       0.35 
freq.     347.23  E(vib)   ...       0.23 
freq.     378.83  E(vib)   ...       0.21 
freq.     405.33  E(vib)   ...       0.19 
freq.     461.36  E(vib)   ...       0.16 
freq.     519.67  E(vib)   ...       0.13 
freq.     564.75  E(vib)   ...       0.11 
freq.     679.19  E(vib)   ...       0.08 
freq.     757.12  E(vib)   ...       0.06 
freq.     798.15  E(vib)   ...       0.05 
freq.     849.46  E(vib)   ...       0.04 
freq.     932.74  E(vib)   ...       0.03 
freq.     984.08  E(vib)   ...       0.02 
freq.    1013.27  E(vib)   ...       0.02 
freq.    1017.09  E(vib)   ...       0.02 
freq.    1027.73  E(vib)   ...       0.02 
freq.    1037.51  E(vib)   ...       0.02 
freq.    1054.90  E(vib)   ...       0.02 
freq.    1099.07  E(vib)   ...       0.02 
freq.    1155.27  E(vib)   ...       0.01 
freq.    1197.18  E(vib)   ...       0.01 
freq.    1230.31  E(vib)   ...       0.01 
freq.    1327.81  E(vib)   ...       0.01 
freq.    1377.78  E(vib)   ...       0.01 
freq.    1399.65  E(vib)   ...       0.00 
freq.    1424.70  E(vib)   ...       0.00 
freq.    1442.84  E(vib)   ...       0.00 
freq.    1460.19  E(vib)   ...       0.00 
freq.    1467.24  E(vib)   ...       0.00 
freq.    1510.73  E(vib)   ...       0.00 
freq.    1523.38  E(vib)   ...       0.00 
freq.    1664.36  E(vib)   ...       0.00 
freq.    2597.60  E(vib)   ...       0.00 
freq.    3028.57  E(vib)   ...       0.00 
freq.    3096.44  E(vib)   ...       0.00 
freq.    3131.67  E(vib)   ...       0.00 
freq.    3172.50  E(vib)   ...       0.00 
freq.    3177.81  E(vib)   ...       0.00 
freq.    3185.29  E(vib)   ...       0.00 
freq.    3192.22  E(vib)   ...       0.00 
freq.    3201.73  E(vib)   ...       0.00 

------------
INNER ENERGY
------------

The inner energy is: U= E(el) + E(ZPE) + E(vib) + E(rot) + E(trans)
    E(el)   - is the total energy from the electronic structure calculation
              = E(kin-el) + E(nuc-el) + E(el-el) + E(nuc-nuc)
    E(ZPE)  - the the zero temperature vibrational energy from the frequency calculation
    E(vib)  - the the finite temperature correction to E(ZPE) due to population
              of excited vibrational states
    E(rot)  - is the rotational thermal energy
    E(trans)- is the translational thermal energy

Summary of contributions to the inner energy U:
Electronic energy                ...   -475.97814759 Eh
Zero point energy                ...      0.13693761 Eh      85.93 kcal/mol
Thermal vibrational correction   ...      0.00480681 Eh       3.02 kcal/mol
Thermal rotational correction    ...      0.00141627 Eh       0.89 kcal/mol
Thermal translational correction ...      0.00141627 Eh       0.89 kcal/mol
-----------------------------------------------------------------------
Total thermal energy                   -475.83357063 Eh


Summary of corrections to the electronic energy:
(perhaps to be used in another calculation)
Total thermal correction                  0.00763935 Eh       4.79 kcal/mol
Non-thermal (ZPE) correction              0.13693761 Eh      85.93 kcal/mol
-----------------------------------------------------------------------
Total correction                          0.14457696 Eh      90.72 kcal/mol


--------
ENTHALPY
--------

The enthalpy is H = U + kB*T
                kB is Boltzmann's constant
Total free energy                 ...   -475.83357063 Eh 
Thermal Enthalpy correction       ...      0.00094421 Eh       0.59 kcal/mol
-----------------------------------------------------------------------
Total Enthalpy                    ...   -475.83262642 Eh


Note: Only C1 symmetry has been detected, increase convergence thresholds 
      if your molecule has a higher symmetry. Symmetry factor of 1.0 is   
      used for the rotational entropy correction. 
 

Note: Rotational entropy computed according to Herzberg 
Infrared and Raman Spectra, Chapter V,1, Van Nostrand Reinhold, 1945 
Point Group:  C1, Symmetry Number:   1  
Rotational constants in cm-1:     0.155026     0.002583     0.002549 

Vibrational entropy computed according to the QRRHO of S. Grimme
Chem.Eur.J. 2012 18 9955


-------
ENTROPY
-------

The entropy contributions are T*S = T*(S(el)+S(vib)+S(rot)+S(trans))
     S(el)   - electronic entropy
     S(vib)  - vibrational entropy
     S(rot)  - rotational entropy
     S(trans)- translational entropy
The entropies will be listed as multiplied by the temperature to get
units of energy

Electronic entropy                ...      0.00000000 Eh      0.00 kcal/mol
Vibrational entropy               ...      0.00977498 Eh      6.13 kcal/mol
Rotational entropy                ...      0.01602331 Eh     10.05 kcal/mol
Translational entropy             ...      0.01932890 Eh     12.13 kcal/mol
-----------------------------------------------------------------------
Final entropy term                ...      0.04512719 Eh     28.32 kcal/mol

In case the symmetry of your molecule has not been determined correctly
or in case you have a reason to use a different symmetry number we print 
out the resulting rotational entropy values for sn=1,12 :
 --------------------------------------------------------
|  sn= 1 | S(rot)=       0.01602331 Eh     10.05 kcal/mol|
|  sn= 2 | S(rot)=       0.01536885 Eh      9.64 kcal/mol|
|  sn= 3 | S(rot)=       0.01498602 Eh      9.40 kcal/mol|
|  sn= 4 | S(rot)=       0.01471440 Eh      9.23 kcal/mol|
|  sn= 5 | S(rot)=       0.01450371 Eh      9.10 kcal/mol|
|  sn= 6 | S(rot)=       0.01433156 Eh      8.99 kcal/mol|
|  sn= 7 | S(rot)=       0.01418602 Eh      8.90 kcal/mol|
|  sn= 8 | S(rot)=       0.01405994 Eh      8.82 kcal/mol|
|  sn= 9 | S(rot)=       0.01394873 Eh      8.75 kcal/mol|
|  sn=10 | S(rot)=       0.01384925 Eh      8.69 kcal/mol|
|  sn=11 | S(rot)=       0.01375926 Eh      8.63 kcal/mol|
|  sn=12 | S(rot)=       0.01367711 Eh      8.58 kcal/mol|
 --------------------------------------------------------


-------------------
GIBBS FREE ENERGY
-------------------

The Gibbs free energy is G = H - T*S

Total enthalpy                    ...   -475.83262642 Eh 
Total entropy correction          ...     -0.04512719 Eh    -28.32 kcal/mol
-----------------------------------------------------------------------
Final Gibbs free energy         ...   -475.87775361 Eh

For completeness - the Gibbs free energy minus the electronic energy
G-E(el)                           ...      0.10039398 Eh     63.00 kcal/mol


Timings for individual modules:

Sum of individual times         ...     6205.717 sec (= 103.429 min)
GTO integral calculation        ...       18.985 sec (=   0.316 min)   0.3 %
SCF iterations                  ...     4214.761 sec (=  70.246 min)  67.9 %
SCF Gradient evaluation         ...     1043.259 sec (=  17.388 min)  16.8 %
Geometry relaxation             ...        5.296 sec (=   0.088 min)   0.1 %
Analytical frequency calculation...      923.416 sec (=  15.390 min)  14.9 %
                             ****ORCA TERMINATED NORMALLY****
TOTAL RUN TIME: 0 days 1 hours 43 minutes 45 seconds 927 msec
