
                                 *****************
                                 * O   R   C   A *
                                 *****************

                                            #,                                       
                                            ###                                      
                                            ####                                     
                                            #####                                    
                                            ######                                   
                                           ########,                                 
                                     ,,################,,,,,                         
                               ,,#################################,,                 
                          ,,##########################################,,             
                       ,#########################################, ''#####,          
                    ,#############################################,,   '####,        
                  ,##################################################,,,,####,       
                ,###########''''           ''''###############################       
              ,#####''   ,,,,##########,,,,          '''####'''          '####       
            ,##' ,,,,###########################,,,                        '##       
           ' ,,###''''                  '''############,,,                           
         ,,##''                                '''############,,,,        ,,,,,,###''
      ,#''                                            '''#######################'''  
     '                                                          ''''####''''         
             ,#######,   #######,   ,#######,      ##                                
            ,#'     '#,  ##    ##  ,#'     '#,    #''#        ######   ,####,        
            ##       ##  ##   ,#'  ##            #'  '#       #        #'  '#        
            ##       ##  #######   ##           ,######,      #####,   #    #        
            '#,     ,#'  ##    ##  '#,     ,#' ,#      #,         ##   #,  ,#        
             '#######'   ##     ##  '#######'  #'      '#     #####' # '####'        



                  #######################################################
                  #                        -***-                        #
                  #          Department of theory and spectroscopy      #
                  #    Directorship and core code : Frank Neese         #
                  #        Max Planck Institute fuer Kohlenforschung    #
                  #                Kaiser Wilhelm Platz 1               #
                  #                 D-45470 Muelheim/Ruhr               #
                  #                      Germany                        #
                  #                                                     #
                  #                  All rights reserved                #
                  #                        -***-                        #
                  #######################################################



                         Program Version 5.0.4 -  RELEASE  -

 With contributions from (in alphabetic order):
   Daniel Aravena         : Magnetic Suceptibility
   Michael Atanasov       : Ab Initio Ligand Field Theory (pilot matlab implementation)
   Alexander A. Auer      : GIAO ZORA, VPT2 properties, NMR spectrum
   Ute Becker             : Parallelization
   Giovanni Bistoni       : ED, misc. LED, open-shell LED, HFLD
   Martin Brehm           : Molecular dynamics
   Dmytro Bykov           : SCF Hessian
   Vijay G. Chilkuri      : MRCI spin determinant printing, contributions to CSF-ICE
   Dipayan Datta          : RHF DLPNO-CCSD density
   Achintya Kumar Dutta   : EOM-CC, STEOM-CC
   Dmitry Ganyushin       : Spin-Orbit,Spin-Spin,Magnetic field MRCI
   Miquel Garcia          : C-PCM and meta-GGA Hessian, CC/C-PCM, Gaussian charge scheme
   Yang Guo               : DLPNO-NEVPT2, F12-NEVPT2, CIM, IAO-localization
   Andreas Hansen         : Spin unrestricted coupled pair/coupled cluster methods
   Benjamin Helmich-Paris : MC-RPA, TRAH-SCF, COSX integrals
   Lee Huntington         : MR-EOM, pCC
   Robert Izsak           : Overlap fitted RIJCOSX, COSX-SCS-MP3, EOM
   Marcus Kettner         : VPT2
   Christian Kollmar      : KDIIS, OOCD, Brueckner-CCSD(T), CCSD density, CASPT2, CASPT2-K
   Simone Kossmann        : Meta GGA functionals, TD-DFT gradient, OOMP2, MP2 Hessian
   Martin Krupicka        : Initial AUTO-CI
   Lucas Lang             : DCDCAS
   Marvin Lechner         : AUTO-CI (C++ implementation), FIC-MRCC
   Dagmar Lenk            : GEPOL surface, SMD
   Dimitrios Liakos       : Extrapolation schemes; Compound Job, initial MDCI parallelization
   Dimitrios Manganas     : Further ROCIS development; embedding schemes
   Dimitrios Pantazis     : SARC Basis sets
   Anastasios Papadopoulos: AUTO-CI, single reference methods and gradients
   Taras Petrenko         : DFT Hessian,TD-DFT gradient, ASA, ECA, R-Raman, ABS, FL, XAS/XES, NRVS
   Peter Pinski           : DLPNO-MP2, DLPNO-MP2 Gradient
   Christoph Reimann      : Effective Core Potentials
   Marius Retegan         : Local ZFS, SOC
   Christoph Riplinger    : Optimizer, TS searches, QM/MM, DLPNO-CCSD(T), (RO)-DLPNO pert. Triples
   Tobias Risthaus        : Range-separated hybrids, TD-DFT gradient, RPA, STAB
   Michael Roemelt        : Original ROCIS implementation
   Masaaki Saitow         : Open-shell DLPNO-CCSD energy and density
   Barbara Sandhoefer     : DKH picture change effects
   Avijit Sen             : IP-ROCIS
   Kantharuban Sivalingam : CASSCF convergence, NEVPT2, FIC-MRCI
   Bernardo de Souza      : ESD, SOC TD-DFT
   Georgi Stoychev        : AutoAux, RI-MP2 NMR, DLPNO-MP2 response
   Willem Van den Heuvel  : Paramagnetic NMR
   Boris Wezisla          : Elementary symmetry handling
   Frank Wennmohs         : Technical directorship


 We gratefully acknowledge several colleagues who have allowed us to
 interface, adapt or use parts of their codes:
   Stefan Grimme, W. Hujo, H. Kruse, P. Pracht,  : VdW corrections, initial TS optimization,
                  C. Bannwarth, S. Ehlert          DFT functionals, gCP, sTDA/sTD-DF
   Ed Valeev, F. Pavosevic, A. Kumar             : LibInt (2-el integral package), F12 methods
   Garnet Chan, S. Sharma, J. Yang, R. Olivares  : DMRG
   Ulf Ekstrom                                   : XCFun DFT Library
   Mihaly Kallay                                 : mrcc  (arbitrary order and MRCC methods)
   Jiri Pittner, Ondrej Demel                    : Mk-CCSD
   Frank Weinhold                                : gennbo (NPA and NBO analysis)
   Christopher J. Cramer and Donald G. Truhlar   : smd solvation model
   Lars Goerigk                                  : TD-DFT with DH, B97 family of functionals
   V. Asgeirsson, H. Jonsson                     : NEB implementation
   FAccTs GmbH                                   : IRC, NEB, NEB-TS, DLPNO-Multilevel, CI-OPT
                                                   MM, QMMM, 2- and 3-layer-ONIOM, Crystal-QMMM,
                                                   LR-CPCM, SF, NACMEs, symmetry and pop. for TD-DFT,
                                                   nearIR, NL-DFT gradient (VV10), updates on ESD,
                                                   ML-optimized integration grids
   S Lehtola, MJT Oliveira, MAL Marques          : LibXC Library
   Liviu Ungur et al                             : ANISO software


 Your calculation uses the libint2 library for the computation of 2-el integrals
 For citations please refer to: http://libint.valeyev.net

 Your ORCA version has been built with support for libXC version: 5.1.0
 For citations please refer to: https://tddft.org/programs/libxc/

 This ORCA versions uses:
   CBLAS   interface :  Fast vector & matrix operations
   LAPACKE interface :  Fast linear algebra routines
   Shared memory     :  Shared parallel matrices


Your calculation utilizes the atom-pairwise dispersion correction
based on tight binding partial charges (D4)
Cite in your paper:
E.Caldeweyher, C.Bannwarth, S.Grimme, J.Chem.Phys., (2017), 147, 034112.
E.Caldeweyher, S.Ehlert, A.Hansen, H.Neugebauer, S.Grimme, J.Chem.Phys., (2018), in progress.
   

================================================================================

----- Orbital basis set information -----
Your calculation utilizes the basis: def2-SVP
   F. Weigend and R. Ahlrichs, Phys. Chem. Chem. Phys. 7, 3297 (2005).

----- AuxJ basis set information -----
Your calculation utilizes the auxiliary basis: def2/J
   F. Weigend, Phys. Chem. Chem. Phys. 8, 1057 (2006).

================================================================================
                                        WARNINGS
                       Please study these warnings very carefully!
================================================================================


WARNING: Geometry Optimization
  ===> : Switching off AutoStart
         For restart on a previous wavefunction, please use MOREAD

INFO   : the flag for use of the SHARK integral package has been found!

================================================================================
                                       INPUT FILE
================================================================================
NAME = para_p_opt_2.inp
|  1> !B3LYP DEF2-SVP OPT FREQ D4 SOSCF
|  2> 
|  3> %geom
|  4> convergence tight
|  5> maxIter 1000
|  6> end
|  7> 
|  8> * xyz 1 1
|  9>   C   -5.76349080715420      0.98521230561200      0.00611570815311
| 10>   C   -6.80977734708061      1.44033696391529     -0.81722975531120
| 11>   C   -7.40423682992715      0.60457176844674     -1.75834779882496
| 12>   C   -6.94354787535904     -0.70830006417348     -1.87475127053803
| 13>   C   -5.91054260644691     -1.19638462157651     -1.07471253173775
| 14>   C   -5.32907317525022     -0.34337241510601     -0.13856712180674
| 15>   C   -5.11350758931673      1.91122552595715      0.99977598492968
| 16>   H   -4.56255906511459      1.35630348839485      1.77304014143319
| 17>   H   -5.85662682060077      2.55409540893717      1.49662932294595
| 18>   H   -4.39390962816746      2.57907157360829      0.49451314287056
| 19>   H   -7.16489415385142      2.46925659363940     -0.71558146182463
| 20>   H   -8.21616887383827      0.94552987142268     -2.39988496884517
| 21>   H   -5.58286396913981     -2.22863571501069     -1.19437881596011
| 22>   H   -4.52103428217861     -0.71705597489190      0.49546570580078
| 23>   N   -7.56796487578436     -1.60142094665224     -2.86330360973456
| 24>   O   -7.14737992315621     -2.74617844509739     -2.94274533968645
| 25>   O   -8.47271704477158     -1.14750568891816     -3.54889266684473
| 26>   H   -12.64851513286164     -7.53484962850717     -9.96335466501884
| 27> **                         ****END OF INPUT****
================================================================================

                       *****************************
                       * Geometry Optimization Run *
                       *****************************

Geometry optimization settings:
Update method            Update   .... BFGS
Choice of coordinates    CoordSys .... Z-matrix Internals
Initial Hessian          InHess   .... Almoef's Model

Convergence Tolerances:
Energy Change            TolE     ....  1.0000e-06 Eh
Max. Gradient            TolMAXG  ....  1.0000e-04 Eh/bohr
RMS Gradient             TolRMSG  ....  3.0000e-05 Eh/bohr
Max. Displacement        TolMAXD  ....  1.0000e-03 bohr
RMS Displacement         TolRMSD  ....  6.0000e-04 bohr
Strict Convergence                ....  False
------------------------------------------------------------------------------
                        ORCA OPTIMIZATION COORDINATE SETUP
------------------------------------------------------------------------------

The optimization will be done in new redundant internal coordinates
Making redundant internal coordinates   ...  (new redundants) done
Evaluating the initial hessian          ...  (Almloef) done
Evaluating the coordinates              ...  done
Calculating the B-matrix                .... done
Calculating the G-matrix                .... done
Diagonalizing the G-matrix              .... done
Small eigenvalue found = 6.311e-03
The first mode is                       ....   52
The number of degrees of freedom        ....   48

    -----------------------------------------------------------------
                    Redundant Internal Coordinates


    -----------------------------------------------------------------
         Definition                    Initial Value    Approx d2E/dq
    -----------------------------------------------------------------
      1. B(C   1,C   0)                  1.4070         0.586892   
      2. B(C   2,C   1)                  1.3920         0.620284   
      3. B(C   3,C   2)                  1.3962         0.610693   
      4. B(C   4,C   3)                  1.3948         0.613939   
      5. B(C   5,C   4)                  1.3936         0.616601   
      6. B(C   5,C   0)                  1.4053         0.590708   
      7. B(C   6,C   0)                  1.5058         0.408354   
      8. B(H   7,C   6)                  1.0997         0.347448   
      9. B(H   8,C   6)                  1.1011         0.345740   
     10. B(H   9,C   6)                  1.1041         0.341869   
     11. B(H  10,C   1)                  1.0932         0.355874   
     12. B(H  11,C   2)                  1.0895         0.360734   
     13. B(H  12,C   4)                  1.0896         0.360625   
     14. B(H  13,C   5)                  1.0930         0.356204   
     15. B(N  14,C   3)                  1.4713         0.415075   
     16. B(O  15,N  14)                  1.2222         0.928522   
     17. B(O  16,N  14)                  1.2226         0.927162   
     18. B(H  17,O  16)                  9.9690         0.000000   
     19. B(H  17,O  15)                 10.1234         0.000000   
     20. B(H  17,N  14)                 10.5560         0.000000   
     21. A(C   5,C   0,C   6)          121.0588         0.399526   
     22. A(C   1,C   0,C   6)          120.5451         0.399070   
     23. A(C   1,C   0,C   5)          118.3880         0.426094   
     24. A(C   0,C   1,H  10)          119.4447         0.348956   
     25. A(C   0,C   1,C   2)          121.2642         0.429842   
     26. A(C   2,C   1,H  10)          119.2910         0.352232   
     27. A(C   3,C   2,H  11)          119.4104         0.352112   
     28. A(C   1,C   2,H  11)          121.9018         0.353041   
     29. A(C   1,C   2,C   3)          118.6876         0.432922   
     30. A(C   2,C   3,C   4)          121.7088         0.432123   
     31. A(C   4,C   3,N  14)          119.1623         0.400821   
     32. A(C   2,C   3,N  14)          119.1284         0.400447   
     33. A(C   3,C   4,C   5)          118.6946         0.432872   
     34. A(C   5,C   4,H  12)          121.8821         0.352668   
     35. A(C   3,C   4,H  12)          119.4230         0.352410   
     36. A(C   0,C   5,C   4)          121.2564         0.429882   
     37. A(C   4,C   5,H  13)          119.2672         0.351933   
     38. A(C   0,C   5,H  13)          119.4763         0.349392   
     39. A(H   8,C   6,H   9)          107.0493         0.286651   
     40. A(H   7,C   6,H   9)          107.4855         0.286871   
     41. A(C   0,C   6,H   9)          110.5682         0.326301   
     42. A(H   7,C   6,H   8)          108.3874         0.287376   
     43. A(C   0,C   6,H   8)          111.4386         0.326907   
     44. A(C   0,C   6,H   7)          111.7120         0.327172   
     45. A(O  16,N  14,H  17)           58.3536         0.089105   
     46. A(O  15,N  14,H  17)           66.1349         0.089105   
     47. A(O  15,N  14,O  16)          124.4713         0.489553   
     48. A(C   3,N  14,O  16)          117.7408         0.425649   
     49. A(C   3,N  14,O  15)          117.7880         0.425761   
     50. A(N  14,O  15,H  17)          107.5265         0.089150   
     51. A(N  14,O  16,H  17)          115.6538         0.089170   
     52. A(N  14,H  17,O  15)            6.3386         0.089000   
     53. A(O  15,H  17,O  16)           12.3303         0.089000   
     54. A(N  14,H  17,O  16)            5.9926         0.089000   
     55. D(H  10,C   1,C   0,C   5)    179.6794         0.023691   
     56. D(C   2,C   1,C   0,C   5)     -0.2019         0.023691   
     57. D(C   2,C   1,C   0,C   6)    178.7721         0.023691   
     58. D(H  10,C   1,C   0,C   6)     -1.3466         0.023691   
     59. D(C   3,C   2,C   1,C   0)      0.0715         0.026625   
     60. D(C   3,C   2,C   1,H  10)   -179.8099         0.026625   
     61. D(H  11,C   2,C   1,H  10)      0.0051         0.026625   
     62. D(H  11,C   2,C   1,C   0)    179.8866         0.026625   
     63. D(N  14,C   3,C   2,H  11)     -0.0199         0.025761   
     64. D(C   4,C   3,C   2,H  11)   -179.7641         0.025761   
     65. D(N  14,C   3,C   2,C   1)    179.7999         0.025761   
     66. D(C   4,C   3,C   2,C   1)      0.0557         0.025761   
     67. D(C   5,C   4,C   3,N  14)   -179.7905         0.026051   
     68. D(H  12,C   4,C   3,C   2)    179.7667         0.026051   
     69. D(C   5,C   4,C   3,C   2)     -0.0464         0.026051   
     70. D(H  12,C   4,C   3,N  14)      0.0226         0.026051   
     71. D(H  13,C   5,C   4,H  12)     -0.0026         0.026291   
     72. D(C   0,C   5,C   4,C   3)     -0.0905         0.026291   
     73. D(H  13,C   5,C   4,C   3)    179.8057         0.026291   
     74. D(H  13,C   5,C   0,C   6)      1.3470         0.024016   
     75. D(C   0,C   5,C   4,H  12)   -179.8988         0.026291   
     76. D(H  13,C   5,C   0,C   1)   -179.6844         0.024016   
     77. D(C   4,C   5,C   0,C   6)   -178.7570         0.024016   
     78. D(C   4,C   5,C   0,C   1)      0.2115         0.024016   
     79. D(H   9,C   6,C   0,C   5)    100.1987         0.012354   
     80. D(H   9,C   6,C   0,C   1)    -78.7476         0.012354   
     81. D(H   8,C   6,C   0,C   5)   -140.8685         0.012354   
     82. D(H   8,C   6,C   0,C   1)     40.1851         0.012354   
     83. D(H   7,C   6,C   0,C   5)    -19.4608         0.012354   
     84. D(H   7,C   6,C   0,C   1)    161.5929         0.012354   
     85. D(O  15,N  14,C   3,C   2)   -179.8640         0.014694   
     86. D(O  16,N  14,C   3,C   4)    179.8590         0.014694   
     87. D(O  16,N  14,C   3,C   2)      0.1081         0.014694   
     88. D(O  15,N  14,C   3,C   4)     -0.1131         0.014694   
     89. D(H  17,O  15,N  14,O  16)     -1.4926         0.091039   
     90. D(H  17,O  15,N  14,C   3)    178.4774         0.091039   
     91. D(H  17,O  16,N  14,O  15)      1.6035         0.090730   
     92. D(H  17,O  16,N  14,C   3)   -178.3666         0.090730   
     93. D(O  15,H  17,O  16,N  14)     -0.7472         0.001500   
     94. D(O  16,H  17,O  15,N  14)      0.7066         0.001500   
     95. D(O  16,H  17,N  14,O  15)   -178.5545         0.001500   
     96. D(O  15,H  17,N  14,O  16)    178.5545         0.001500   
     97. D(O  16,H  17,C   3,C   4)   -178.2503         0.001500   
     98. D(O  16,H  17,C   3,C   2)      3.3683         0.001500   
     99. D(O  15,H  17,C   3,C   4)     -2.9045         0.001500   
    100. D(O  15,H  17,C   3,C   2)    178.7142         0.001500   
    -----------------------------------------------------------------

Number of atoms                         .... 18
Number of degrees of freedom            .... 100

         *************************************************************
         *                GEOMETRY OPTIMIZATION CYCLE   1            *
         *************************************************************
---------------------------------
CARTESIAN COORDINATES (ANGSTROEM)
---------------------------------
  C     -5.763491    0.985212    0.006116
  C     -6.809777    1.440337   -0.817230
  C     -7.404237    0.604572   -1.758348
  C     -6.943548   -0.708300   -1.874751
  C     -5.910543   -1.196385   -1.074713
  C     -5.329073   -0.343372   -0.138567
  C     -5.113508    1.911226    0.999776
  H     -4.562559    1.356303    1.773040
  H     -5.856627    2.554095    1.496629
  H     -4.393910    2.579072    0.494513
  H     -7.164894    2.469257   -0.715581
  H     -8.216169    0.945530   -2.399885
  H     -5.582864   -2.228636   -1.194379
  H     -4.521034   -0.717056    0.495466
  N     -7.567965   -1.601421   -2.863304
  O     -7.147380   -2.746178   -2.942745
  O     -8.472717   -1.147506   -3.548893
  H    -12.648515   -7.534850   -9.963355

----------------------------
CARTESIAN COORDINATES (A.U.)
----------------------------
  NO LB      ZA    FRAG     MASS         X           Y           Z
   0 C     6.0000    0    12.011  -10.891419    1.861781    0.011557
   1 C     6.0000    0    12.011  -12.868614    2.721842   -1.544340
   2 C     6.0000    0    12.011  -13.991980    1.142475   -3.322796
   3 C     6.0000    0    12.011  -13.121404   -1.338493   -3.542766
   4 C     6.0000    0    12.011  -11.169307   -2.260839   -2.030912
   5 C     6.0000    0    12.011  -10.070489   -0.648880   -0.261854
   6 C     6.0000    0    12.011   -9.663129    3.611693    1.889303
   7 H     1.0000    0     1.008   -8.621987    2.563042    3.350560
   8 H     1.0000    0     1.008  -11.067421    4.826541    2.828220
   9 H     1.0000    0     1.008   -8.303286    4.873739    0.934494
  10 H     1.0000    0     1.008  -13.539688    4.666219   -1.352253
  11 H     1.0000    0     1.008  -15.526309    1.786793   -4.535125
  12 H     1.0000    0     1.008  -10.550084   -4.211511   -2.257049
  13 H     1.0000    0     1.008   -8.543517   -1.355039    0.936294
  14 N     7.0000    0    14.007  -14.301381   -3.026247   -5.410860
  15 O     8.0000    0    15.999  -13.506591   -5.189525   -5.560983
  16 O     8.0000    0    15.999  -16.011115   -2.168471   -6.706435
  17 H     1.0000    0     1.008  -23.902230  -14.238802  -18.828012

--------------------------------
INTERNAL COORDINATES (ANGSTROEM)
--------------------------------
 C      0   0   0     0.000000000000     0.00000000     0.00000000
 C      1   0   0     1.407036506433     0.00000000     0.00000000
 C      2   1   0     1.391972956106   121.26423623     0.00000000
 C      3   2   1     1.396215072965   118.68755730     0.07153072
 C      4   3   2     1.394771810855   121.70882043     0.05566087
 C      5   4   3     1.393594184954   118.69459122   359.95361550
 C      1   2   3     1.505768711777   120.54507580   178.77214328
 H      7   1   2     1.099736422888   111.71200511   161.59286372
 H      7   1   2     1.101077253350   111.43862487    40.18513322
 H      7   1   2     1.104142250174   110.56817080   281.25238953
 H      2   1   3     1.093213577693   119.44469015   179.88129513
 H      3   2   1     1.089521001373   121.90182419   179.88658511
 H      5   4   3     1.089603427318   119.42301761   179.76673591
 H      6   5   4     1.092961061545   119.26722975   179.80565950
 N      4   3   2     1.471324990772   119.12841700   179.79990259
 O     15   4   3     1.222158918096   117.78795428   180.13603819
 O     15   4   3     1.222557934709   117.74078640     0.10814234
 H     17  15   4     9.968990671132   115.65379072   181.63338833

---------------------------
INTERNAL COORDINATES (A.U.)
---------------------------
 C      0   0   0     0.000000000000     0.00000000     0.00000000
 C      1   0   0     2.658913657587     0.00000000     0.00000000
 C      2   1   0     2.630447672865   121.26423623     0.00000000
 C      3   2   1     2.638464111957   118.68755730     0.07153072
 C      4   3   2     2.635736741830   121.70882043     0.05566087
 C      5   4   3     2.633511351389   118.69459122   359.95361550
 C      1   2   3     2.845490486287   120.54507580   178.77214328
 H      7   1   2     2.078200658756   111.71200511   161.59286372
 H      7   1   2     2.080734461122   111.43862487    40.18513322
 H      7   1   2     2.086526465720   110.56817080   281.25238953
 H      2   1   3     2.065874267723   119.44469015   179.88129513
 H      3   2   1     2.058896309750   121.90182419   179.88658511
 H      5   4   3     2.059052072213   119.42301761   179.76673591
 H      6   5   4     2.065397081361   119.26722975   179.80565950
 N      4   3   2     2.780401286554   119.12841700   179.79990259
 O     15   4   3     2.309545647331   117.78795428   180.13603819
 O     15   4   3     2.310299679453   117.74078640     0.10814234
 H     17  15   4    18.838662200056   115.65379072   181.63338833

---------------------
BASIS SET INFORMATION
---------------------
There are 4 groups of distinct atoms

 Group   1 Type C   : 7s4p1d contracted to 3s2p1d pattern {511/31/1}
 Group   2 Type H   : 4s1p contracted to 2s1p pattern {31/1}
 Group   3 Type N   : 7s4p1d contracted to 3s2p1d pattern {511/31/1}
 Group   4 Type O   : 7s4p1d contracted to 3s2p1d pattern {511/31/1}

Atom   0C    basis set group =>   1
Atom   1C    basis set group =>   1
Atom   2C    basis set group =>   1
Atom   3C    basis set group =>   1
Atom   4C    basis set group =>   1
Atom   5C    basis set group =>   1
Atom   6C    basis set group =>   1
Atom   7H    basis set group =>   2
Atom   8H    basis set group =>   2
Atom   9H    basis set group =>   2
Atom  10H    basis set group =>   2
Atom  11H    basis set group =>   2
Atom  12H    basis set group =>   2
Atom  13H    basis set group =>   2
Atom  14N    basis set group =>   3
Atom  15O    basis set group =>   4
Atom  16O    basis set group =>   4
Atom  17H    basis set group =>   2
---------------------------------
AUXILIARY/J BASIS SET INFORMATION
---------------------------------
There are 4 groups of distinct atoms

 Group   1 Type C   : 12s5p4d2f1g contracted to 6s4p3d1f1g pattern {711111/2111/211/2/1}
 Group   2 Type H   : 5s2p1d contracted to 3s1p1d pattern {311/2/1}
 Group   3 Type N   : 12s5p4d2f1g contracted to 6s4p3d1f1g pattern {711111/2111/211/2/1}
 Group   4 Type O   : 12s5p4d2f1g contracted to 6s4p3d1f1g pattern {711111/2111/211/2/1}

Atom   0C    basis set group =>   1
Atom   1C    basis set group =>   1
Atom   2C    basis set group =>   1
Atom   3C    basis set group =>   1
Atom   4C    basis set group =>   1
Atom   5C    basis set group =>   1
Atom   6C    basis set group =>   1
Atom   7H    basis set group =>   2
Atom   8H    basis set group =>   2
Atom   9H    basis set group =>   2
Atom  10H    basis set group =>   2
Atom  11H    basis set group =>   2
Atom  12H    basis set group =>   2
Atom  13H    basis set group =>   2
Atom  14N    basis set group =>   3
Atom  15O    basis set group =>   4
Atom  16O    basis set group =>   4
Atom  17H    basis set group =>   2
------------------------------------------------------------------------------
                           ORCA GTO INTEGRAL CALCULATION
                           -- RI-GTO INTEGRALS CHOSEN --
------------------------------------------------------------------------------
------------------------------------------------------------------------------
                   ___                                                        
                  /   \      - P O W E R E D   B Y -                         
                 /     \                                                     
                 |  |  |   _    _      __       _____    __    __             
                 |  |  |  | |  | |    /  \     |  _  \  |  |  /  |          
                  \  \/   | |  | |   /    \    | | | |  |  | /  /          
                 / \  \   | |__| |  /  /\  \   | |_| |  |  |/  /          
                |  |  |   |  __  | /  /__\  \  |    /   |      \           
                |  |  |   | |  | | |   __   |  |    \   |  |\   \          
                \     /   | |  | | |  |  |  |  | |\  \  |  | \   \       
                 \___/    |_|  |_| |__|  |__|  |_| \__\ |__|  \__/        
                                                                              
                      - O R C A' S   B I G   F R I E N D -                    
                                      &                                       
                       - I N T E G R A L  F E E D E R -                       
                                                                              
 v1 FN, 2020, v2 2021                                                         
------------------------------------------------------------------------------


Reading SHARK input file para_p_opt_2.SHARKINP.tmp ... ok
----------------------
SHARK INTEGRAL PACKAGE
----------------------

Number of atoms                             ...     18
Number of basis functions                   ...    180
Number of shells                            ...     84
Maximum angular momentum                    ...      2
Integral batch strategy                     ... SHARK/LIBINT Hybrid
RI-J (if used) integral strategy            ... SPLIT-RIJ (Revised 2003 algorithm where possible)
Printlevel                                  ...      1
Contraction scheme used                     ... SEGMENTED contraction
Coulomb Range Separation                    ... NOT USED
Exchange Range Separation                   ... NOT USED
Finite Nucleus Model                        ... NOT USED
Auxiliary Coulomb fitting basis             ... AVAILABLE
   # of basis functions in Aux-J            ...    578
   # of shells in Aux-J                     ...    190
   Maximum angular momentum in Aux-J        ...      4
Auxiliary J/K fitting basis                 ... NOT available
Auxiliary Correlation fitting basis         ... NOT available
Auxiliary 'external' fitting basis          ... NOT available
Integral threshold                          ...     2.500000e-11
Primitive cut-off                           ...     2.500000e-12
Primitive pair pre-selection threshold      ...     2.500000e-12

Calculating pre-screening integrals         ... done (  0.1 sec) Dimension = 84
Organizing shell pair data                  ... done (  0.1 sec)
Shell pair information
Total number of shell pairs                 ...      3570
Shell pairs after pre-screening             ...      2995
Total number of primitive shell pairs       ...     13034
Primitive shell pairs kept                  ...      7908
          la=0 lb=0:    893 shell pairs
          la=1 lb=0:   1084 shell pairs
          la=1 lb=1:    345 shell pairs
          la=2 lb=0:    385 shell pairs
          la=2 lb=1:    240 shell pairs
          la=2 lb=2:     48 shell pairs

Calculating one electron integrals          ... done (  0.1 sec)
Calculating RI/J V-Matrix + Cholesky decomp.... done (  0.1 sec)
Calculating Nuclear repulsion               ... done (  0.0 sec) ENN=    494.708593117731 Eh

SHARK setup successfully completed in   0.7 seconds

Maximum memory used throughout the entire GTOINT-calculation: 24.6 MB
-------------------------------------------------------------------------------
                                 ORCA SCF
-------------------------------------------------------------------------------

------------
SCF SETTINGS
------------
Hamiltonian:
 Density Functional     Method          .... DFT(GTOs)
 Exchange Functional    Exchange        .... B88
   X-Alpha parameter    XAlpha          ....  0.666667
   Becke's b parameter  XBeta           ....  0.004200
 Correlation Functional Correlation     .... LYP
 LDA part of GGA corr.  LDAOpt          .... VWN-5
 Gradients option       PostSCFGGA      .... off
 Hybrid DFT is turned on
   Fraction HF Exchange ScalHFX         ....  0.200000
   Scaling of DF-GGA-X  ScalDFX         ....  0.720000
   Scaling of DF-GGA-C  ScalDFC         ....  0.810000
   Scaling of DF-LDA-C  ScalLDAC        ....  1.000000
   Perturbative correction              ....  0.000000
   Density functional embedding theory  .... OFF
   NL short-range parameter             ....  4.800000
 RI-approximation to the Coulomb term is turned on
   Number of AuxJ basis functions       .... 578
   RIJ-COSX (HFX calculated with COS-X)).... on


General Settings:
 Integral files         IntName         .... para_p_opt_2
 Hartree-Fock type      HFTyp           .... RHF
 Total Charge           Charge          ....    1
 Multiplicity           Mult            ....    1
 Number of Electrons    NEL             ....   72
 Basis Dimension        Dim             ....  180
 Nuclear Repulsion      ENuc            ....    494.7085931177 Eh

Convergence Acceleration:
 DIIS                   CNVDIIS         .... on
   Start iteration      DIISMaxIt       ....    12
   Startup error        DIISStart       ....  0.200000
   # of expansion vecs  DIISMaxEq       ....     5
   Bias factor          DIISBfac        ....   1.050
   Max. coefficient     DIISMaxC        ....  10.000
 Trust-Rad. Augm. Hess. CNVTRAH         .... auto
   Auto Start mean grad. ratio tolernc. ....  1.125000
   Auto Start start iteration           ....    20
   Auto Start num. interpolation iter.  ....    10
   Max. Number of Micro iterations      ....    16
   Max. Number of Macro iterations      .... Maxiter - #DIIS iter
   Number of Davidson start vectors     ....     2
   Converg. threshold I  (grad. norm)   ....   1.000e-05
   Converg. threshold II (energy diff.) ....   1.000e-08
   Grad. Scal. Fac. for Micro threshold ....   0.100
   Minimum threshold for Micro iter.    ....   0.010
   NR start threshold (gradient norm)   ....   0.001
   Initial trust radius                 ....   0.400
   Minimum AH scaling param. (alpha)    ....   1.000
   Maximum AH scaling param. (alpha)    .... 1000.000
   Orbital update algorithm             .... Taylor
   White noise on init. David. guess    .... on
   Maximum white noise                  ....   0.010
   Quad. conv. algorithm                .... NR
 SOSCF                  CNVSOSCF        .... on
   Start iteration      SOSCFMaxIt      ....   150
   Startup grad/error   SOSCFStart      ....  0.003300
 Level Shifting         CNVShift        .... on
   Level shift para.    LevelShift      ....    0.2500
   Turn off err/grad.   ShiftErr        ....    0.0010
 Zerner damping         CNVZerner       .... off
 Static damping         CNVDamp         .... on
   Fraction old density DampFac         ....    0.7000
   Max. Damping (<1)    DampMax         ....    0.9800
   Min. Damping (>=0)   DampMin         ....    0.0000
   Turn off err/grad.   DampErr         ....    0.1000
 Fernandez-Rico         CNVRico         .... off

SCF Procedure:
 Maximum # iterations   MaxIter         ....   125
 SCF integral mode      SCFMode         .... Direct
   Integral package                     .... SHARK and LIBINT hybrid scheme
 Reset frequency        DirectResetFreq ....    20
 Integral Threshold     Thresh          ....  2.500e-11 Eh
 Primitive CutOff       TCut            ....  2.500e-12 Eh

Convergence Tolerance:
 Convergence Check Mode ConvCheckMode   .... Total+1el-Energy
 Convergence forced     ConvForced      .... 0
 Energy Change          TolE            ....  1.000e-08 Eh
 1-El. energy change                    ....  1.000e-05 Eh
 Orbital Gradient       TolG            ....  1.000e-05
 Orbital Rotation angle TolX            ....  1.000e-05
 DIIS Error             TolErr          ....  5.000e-07


Diagonalization of the overlap matrix:
Smallest eigenvalue                        ... 2.747e-04
Time for diagonalization                   ...    0.013 sec
Threshold for overlap eigenvalues          ... 1.000e-08
Number of eigenvalues below threshold      ... 0
Time for construction of square roots      ...    0.011 sec
Total time needed                          ...    0.025 sec

Time for model grid setup =    0.952 sec

------------------------------
INITIAL GUESS: MODEL POTENTIAL
------------------------------
Loading Hartree-Fock densities                     ... done
Calculating cut-offs                               ... done
Initializing the effective Hamiltonian             ... done
Setting up the integral package (SHARK)            ... done
Starting the Coulomb interaction                   ... done (   1.0 sec)
Reading the grid                                   ... done
Mapping shells                                     ... done
Starting the XC term evaluation                    ... done (   1.8 sec)
  promolecular density results
     # of electrons  =     72.988222307
     EX              =    -61.273612367
     EC              =     -2.480358937
     EX+EC           =    -63.753971304
Transforming the Hamiltonian                       ... done (   0.0 sec)
Diagonalizing the Hamiltonian                      ... done (   0.0 sec)
Back transforming the eigenvectors                 ... done (   0.0 sec)
Now organizing SCF variables                       ... done
                      ------------------
                      INITIAL GUESS DONE (   3.8 sec)
                      ------------------
-------------------
DFT GRID GENERATION
-------------------

General Integration Accuracy     IntAcc      ... 4.388
Radial Grid Type                 RadialGrid  ... OptM3 with GC (2021)
Angular Grid (max. ang.)         AngularGrid ... 4 (Lebedev-302)
Angular grid pruning method      GridPruning ... 4 (adaptive)
Weight generation scheme         WeightScheme... Becke
Basis function cutoff            BFCut       ... 1.0000e-11
Integration weight cutoff        WCut        ... 1.0000e-14
Angular grids for H and He will be reduced by one unit
Partially contracted basis set               ... off
Rotationally invariant grid construction     ... off

Total number of grid points                  ...    86270
Total number of batches                      ...     1359
Average number of points per batch           ...       63
Average number of grid points per atom       ...     4793
Time for grid setup =    4.252 sec

--------------------
COSX GRID GENERATION
--------------------

GRIDX 1
-------
General Integration Accuracy     IntAcc      ... 3.816
Radial Grid Type                 RadialGrid  ... OptM3 with GC (2021)
Angular Grid (max. ang.)         AngularGrid ... 1 (Lebedev-50)
Angular grid pruning method      GridPruning ... 4 (adaptive)
Weight generation scheme         WeightScheme... Becke
Basis function cutoff            BFCut       ... 1.0000e-11
Integration weight cutoff        WCut        ... 1.0000e-14
Angular grids for H and He will be reduced by one unit
Partially contracted basis set               ... on
Rotationally invariant grid construction     ... off

Total number of grid points                  ...    11011
Total number of batches                      ...      179
Average number of points per batch           ...       61
Average number of grid points per atom       ...      612
UseSFitting                                  ... on

GRIDX 2
-------
General Integration Accuracy     IntAcc      ... 4.020
Radial Grid Type                 RadialGrid  ... OptM3 with GC (2021)
Angular Grid (max. ang.)         AngularGrid ... 2 (Lebedev-110)
Angular grid pruning method      GridPruning ... 4 (adaptive)
Weight generation scheme         WeightScheme... Becke
Basis function cutoff            BFCut       ... 1.0000e-11
Integration weight cutoff        WCut        ... 1.0000e-14
Angular grids for H and He will be reduced by one unit
Partially contracted basis set               ... on
Rotationally invariant grid construction     ... off

Total number of grid points                  ...    24255
Total number of batches                      ...      389
Average number of points per batch           ...       62
Average number of grid points per atom       ...     1348
UseSFitting                                  ... on

GRIDX 3
-------
General Integration Accuracy     IntAcc      ... 4.338
Radial Grid Type                 RadialGrid  ... OptM3 with GC (2021)
Angular Grid (max. ang.)         AngularGrid ... 3 (Lebedev-194)
Angular grid pruning method      GridPruning ... 4 (adaptive)
Weight generation scheme         WeightScheme... Becke
Basis function cutoff            BFCut       ... 1.0000e-11
Integration weight cutoff        WCut        ... 1.0000e-14
Angular grids for H and He will be reduced by one unit
Partially contracted basis set               ... on
Rotationally invariant grid construction     ... off

Total number of grid points                  ...    53321
Total number of batches                      ...      841
Average number of points per batch           ...       63
Average number of grid points per atom       ...     2962
UseSFitting                                  ... on

Time for X-Grid setup             =    5.229 sec

--------------
SCF ITERATIONS
--------------
ITER       Energy         Delta-E        Max-DP      RMS-DP      [F,P]     Damp
               ***  Starting incremental Fock matrix formation  ***
  0   -475.1911437537   0.000000000000 0.20729144  0.00347304  0.2130391 0.7000
  1   -475.4345357132  -0.243391959482 0.15060704  0.00222870  0.0762886 0.7000
                               ***Turning on DIIS***
  2   -475.4183091860   0.016226527159 0.35789847  0.00501452  0.0360773 0.0000
  3   -475.3965977526   0.021711433413 0.03531919  0.00127298  0.0750515 0.0000
  4   -475.4341807782  -0.037583025588 0.02011864  0.00068498  0.0491377 0.0000
  5   -475.4467495167  -0.012568738508 0.01990237  0.00075300  0.0334403 0.0000
  6   -475.4547958411  -0.008046324461 0.01247366  0.00059416  0.0192229 0.0000
  7   -475.4583101910  -0.003514349904 0.00763948  0.00039794  0.0089779 0.0000
                      *** Initiating the SOSCF procedure ***
                           *** Shutting down DIIS ***
                      *** Re-Reading the Fockian *** 
                      *** Removing any level shift *** 
ITER      Energy       Delta-E        Grad      Rot      Max-DP    RMS-DP
  8   -475.45925961  -0.0009494237  0.001763  0.001763  0.002895  0.000122
               *** Restarting incremental Fock matrix formation ***
  9   -475.45935875  -0.0000991359  0.001096  0.006007  0.001598  0.000080
 10   -475.45936528  -0.0000065276  0.000750  0.001588  0.001252  0.000051
 11   -475.45937642  -0.0000111407  0.000340  0.001011  0.000459  0.000026
 12   -475.45937690  -0.0000004788  0.000187  0.000340  0.000425  0.000012
 13   -475.45937771  -0.0000008146  0.000154  0.000400  0.000385  0.000010
 14   -475.45937757   0.0000001378  0.000211  0.000269  0.000214  0.000006
 15   -475.45937790  -0.0000003253  0.000072  0.000089  0.000152  0.000005
 16   -475.45937789   0.0000000051  0.000073  0.000065  0.000079  0.000002
 17   -475.45937794  -0.0000000480  0.000015  0.000043  0.000045  0.000001
 18   -475.45937794  -0.0000000000  0.000017  0.000021  0.000020  0.000001
                  ***Gradient check signals convergence***
              ***Rediagonalizing the Fockian in SOSCF/NRSCF***

               *****************************************************
               *                     SUCCESS                       *
               *           SCF CONVERGED AFTER  19 CYCLES          *
               *****************************************************

Old exchange energy                            =    -12.325007772 Eh
New exchange energy                            =    -12.325058915 Eh
Exchange energy change after final integration =     -0.000051143 Eh
Total energy after final integration           =   -475.459429091 Eh
Final COS-X integration done in                =    54.239 sec

----------------
TOTAL SCF ENERGY
----------------

Total Energy       :         -475.45942909 Eh          -12937.90882 eV

Components:
Nuclear Repulsion  :          494.70859312 Eh           13461.70520 eV
Electronic Energy  :         -970.16802221 Eh          -26399.61401 eV
One Electron Energy:        -1622.79962109 Eh          -44158.62267 eV
Two Electron Energy:          652.63159889 Eh           17759.00866 eV
Max COSX asymmetry :            0.00000318 Eh               0.00009 eV

Virial components:
Potential Energy   :         -946.72842870 Eh          -25761.79025 eV
Kinetic Energy     :          471.26899961 Eh           12823.88143 eV
Virial Ratio       :            2.00889180


DFT components:
N(Alpha)           :       35.999974706042 electrons
N(Beta)            :       35.999974706042 electrons
N(Total)           :       71.999949412084 electrons
E(X)               :      -49.055314685541 Eh       
E(C)               :       -2.906335697545 Eh       
E(XC)              :      -51.961650383086 Eh       
DFET-embed. en.    :        0.000000000000 Eh       

---------------
SCF CONVERGENCE
---------------

  Last Energy change         ...   -4.4359e-09  Tolerance :   1.0000e-08
  Last MAX-Density change    ...    2.6645e-15  Tolerance :   1.0000e-07
  Last RMS-Density change    ...    4.7178e-17  Tolerance :   5.0000e-09
  Last Orbital Gradient      ...    1.4146e-06  Tolerance :   1.0000e-05
  Last Orbital Rotation      ...    5.6626e-06  Tolerance :   1.0000e-05

             **** THE GBW FILE WAS UPDATED (para_p_opt_2.gbw) ****
             **** DENSITY para_p_opt_2.scfp WAS UPDATED ****
             **** ENERGY FILE WAS UPDATED (para_p_opt_2.en.tmp) ****
             **** THE GBW FILE WAS UPDATED (para_p_opt_2.gbw) ****
             **** DENSITY para_p_opt_2.scfp WAS UPDATED ****
----------------
ORBITAL ENERGIES
----------------

  NO   OCC          E(Eh)            E(eV) 
   0   2.0000     -19.203078      -522.5423 
   1   2.0000     -19.203024      -522.5408 
   2   2.0000     -14.600262      -397.2933 
   3   2.0000     -10.287007      -279.9237 
   4   2.0000     -10.263256      -279.2774 
   5   2.0000     -10.258062      -279.1361 
   6   2.0000     -10.258002      -279.1344 
   7   2.0000     -10.250970      -278.9431 
   8   2.0000     -10.250958      -278.9427 
   9   2.0000     -10.240785      -278.6659 
  10   2.0000      -1.263155       -34.3722 
  11   2.0000      -1.088403       -29.6169 
  12   2.0000      -0.924902       -25.1678 
  13   2.0000      -0.853391       -23.2220 
  14   2.0000      -0.804433       -21.8897 
  15   2.0000      -0.776793       -21.1376 
  16   2.0000      -0.697735       -18.9863 
  17   2.0000      -0.669428       -18.2161 
  18   2.0000      -0.624861       -17.0033 
  19   2.0000      -0.596853       -16.2412 
  20   2.0000      -0.582036       -15.8380 
  21   2.0000      -0.554353       -15.0847 
  22   2.0000      -0.525279       -14.2936 
  23   2.0000      -0.523722       -14.2512 
  24   2.0000      -0.500041       -13.6068 
  25   2.0000      -0.486509       -13.2386 
  26   2.0000      -0.475153       -12.9296 
  27   2.0000      -0.441360       -12.0100 
  28   2.0000      -0.423213       -11.5162 
  29   2.0000      -0.420832       -11.4514 
  30   2.0000      -0.405431       -11.0323 
  31   2.0000      -0.355068        -9.6619 
  32   2.0000      -0.352928        -9.6036 
  33   2.0000      -0.335641        -9.1333 
  34   2.0000      -0.320265        -8.7148 
  35   2.0000      -0.314006        -8.5446 
  36   0.0000      -0.494847       -13.4655 
  37   0.0000      -0.130954        -3.5634 
  38   0.0000      -0.072195        -1.9645 
  39   0.0000      -0.043401        -1.1810 
  40   0.0000       0.014466         0.3936 
  41   0.0000       0.037070         1.0087 
  42   0.0000       0.046184         1.2567 
  43   0.0000       0.070558         1.9200 
  44   0.0000       0.086837         2.3629 
  45   0.0000       0.095273         2.5925 
  46   0.0000       0.112051         3.0491 
  47   0.0000       0.119690         3.2569 
  48   0.0000       0.133694         3.6380 
  49   0.0000       0.169357         4.6085 
  50   0.0000       0.186128         5.0648 
  51   0.0000       0.212656         5.7867 
  52   0.0000       0.223626         6.0852 
  53   0.0000       0.242549         6.6001 
  54   0.0000       0.251631         6.8472 
  55   0.0000       0.258394         7.0313 
  56   0.0000       0.294645         8.0177 
  57   0.0000       0.314531         8.5588 
  58   0.0000       0.350479         9.5370 
  59   0.0000       0.356295         9.6953 
  60   0.0000       0.375530        10.2187 
  61   0.0000       0.387559        10.5460 
  62   0.0000       0.394882        10.7453 
  63   0.0000       0.415868        11.3163 
  64   0.0000       0.417302        11.3554 
  65   0.0000       0.427807        11.6412 
  66   0.0000       0.450908        12.2698 
  67   0.0000       0.475761        12.9461 
  68   0.0000       0.512648        13.9499 
  69   0.0000       0.516956        14.0671 
  70   0.0000       0.541834        14.7441 
  71   0.0000       0.565864        15.3979 
  72   0.0000       0.576324        15.6826 
  73   0.0000       0.578881        15.7521 
  74   0.0000       0.584072        15.8934 
  75   0.0000       0.594754        16.1841 
  76   0.0000       0.609301        16.5799 
  77   0.0000       0.613499        16.6942 
  78   0.0000       0.627938        17.0871 
  79   0.0000       0.630140        17.1470 
  80   0.0000       0.643719        17.5165 
  81   0.0000       0.663349        18.0506 
  82   0.0000       0.670017        18.2321 
  83   0.0000       0.674277        18.3480 
  84   0.0000       0.714455        19.4413 
  85   0.0000       0.726934        19.7809 
  86   0.0000       0.741199        20.1690 
  87   0.0000       0.761808        20.7299 
  88   0.0000       0.777484        21.1564 
  89   0.0000       0.849500        23.1161 
  90   0.0000       0.862544        23.4710 
  91   0.0000       0.889215        24.1968 
  92   0.0000       0.905625        24.6433 
  93   0.0000       0.933334        25.3973 
  94   0.0000       0.946059        25.7436 
  95   0.0000       0.976506        26.5721 
  96   0.0000       0.998961        27.1831 
  97   0.0000       1.052895        28.6507 
  98   0.0000       1.052896        28.6507 
  99   0.0000       1.052922        28.6515 
 100   0.0000       1.055181        28.7129 
 101   0.0000       1.092933        29.7402 
 102   0.0000       1.133437        30.8424 
 103   0.0000       1.171730        31.8844 
 104   0.0000       1.180148        32.1135 
 105   0.0000       1.184278        32.2258 
 106   0.0000       1.192724        32.4557 
 107   0.0000       1.200898        32.6781 
 108   0.0000       1.221240        33.2316 
 109   0.0000       1.242617        33.8133 
 110   0.0000       1.294884        35.2356 
 111   0.0000       1.342824        36.5401 
 112   0.0000       1.365811        37.1656 
 113   0.0000       1.415531        38.5186 
 114   0.0000       1.434686        39.0398 
 115   0.0000       1.444853        39.3164 
 116   0.0000       1.471888        40.0521 
 117   0.0000       1.490754        40.5655 
 118   0.0000       1.613298        43.9001 
 119   0.0000       1.631204        44.3873 
 120   0.0000       1.642651        44.6988 
 121   0.0000       1.657545        45.1041 
 122   0.0000       1.679110        45.6909 
 123   0.0000       1.686038        45.8794 
 124   0.0000       1.689821        45.9824 
 125   0.0000       1.721272        46.8382 
 126   0.0000       1.727045        46.9953 
 127   0.0000       1.734884        47.2086 
 128   0.0000       1.739515        47.3346 
 129   0.0000       1.757928        47.8356 
 130   0.0000       1.784365        48.5551 
 131   0.0000       1.838942        50.0402 
 132   0.0000       1.872581        50.9555 
 133   0.0000       1.882700        51.2309 
 134   0.0000       1.919416        52.2300 
 135   0.0000       1.951618        53.1062 
 136   0.0000       1.970625        53.6234 
 137   0.0000       1.995653        54.3045 
 138   0.0000       2.026352        55.1399 
 139   0.0000       2.036733        55.4223 
 140   0.0000       2.059066        56.0300 
 141   0.0000       2.090331        56.8808 
 142   0.0000       2.099529        57.1311 
 143   0.0000       2.201297        59.9003 
 144   0.0000       2.222376        60.4739 
 145   0.0000       2.234172        60.7949 
 146   0.0000       2.240083        60.9558 
 147   0.0000       2.253127        61.3107 
 148   0.0000       2.290782        62.3353 
 149   0.0000       2.330485        63.4157 
 150   0.0000       2.344832        63.8061 
 151   0.0000       2.392305        65.0979 
 152   0.0000       2.406536        65.4852 
 153   0.0000       2.417190        65.7751 
 154   0.0000       2.500729        68.0483 
 155   0.0000       2.544233        69.2321 
 156   0.0000       2.557482        69.5926 
 157   0.0000       2.562673        69.7339 
 158   0.0000       2.579286        70.1859 
 159   0.0000       2.606937        70.9384 
 160   0.0000       2.610709        71.0410 
 161   0.0000       2.644387        71.9574 
 162   0.0000       2.668175        72.6047 
 163   0.0000       2.669681        72.6457 
 164   0.0000       2.711012        73.7704 
 165   0.0000       2.739119        74.5352 
 166   0.0000       2.799111        76.1677 
 167   0.0000       2.832406        77.0737 
 168   0.0000       2.860563        77.8399 
 169   0.0000       2.877742        78.3073 
 170   0.0000       2.934489        79.8515 
 171   0.0000       3.006703        81.8165 
 172   0.0000       3.031247        82.4844 
 173   0.0000       3.115686        84.7821 
 174   0.0000       3.241721        88.2117 
 175   0.0000       3.255378        88.5833 
 176   0.0000       3.338954        90.8576 
 177   0.0000       3.534713        96.1844 
 178   0.0000       3.730298       101.5066 
 179   0.0000       3.733163       101.5845 

                    ********************************
                    * MULLIKEN POPULATION ANALYSIS *
                    ********************************

-----------------------
MULLIKEN ATOMIC CHARGES
-----------------------
   0 C :   -0.015788
   1 C :   -0.010940
   2 C :   -0.007562
   3 C :    0.165602
   4 C :   -0.007207
   5 C :   -0.010499
   6 C :    0.074112
   7 H :    0.022487
   8 H :    0.031211
   9 H :    0.045319
  10 H :   -0.012109
  11 H :    0.003932
  12 H :    0.005051
  13 H :   -0.011472
  14 N :    0.232109
  15 O :   -0.250988
  16 O :   -0.253259
  17 H :    1.000000
Sum of atomic charges:    1.0000000

--------------------------------
MULLIKEN REDUCED ORBITAL CHARGES
--------------------------------
  0 C s       :     3.069334  s :     3.069334
      pz      :     0.961781  p :     2.903003
      px      :     0.964011
      py      :     0.977211
      dz2     :     0.007602  d :     0.043450
      dxz     :     0.006727
      dyz     :     0.009572
      dx2y2   :     0.009701
      dxy     :     0.009848
  1 C s       :     3.223956  s :     3.223956
      pz      :     0.946778  p :     2.753174
      px      :     0.959498
      py      :     0.846898
      dz2     :     0.006815  d :     0.033811
      dxz     :     0.005957
      dyz     :     0.006505
      dx2y2   :     0.007533
      dxy     :     0.007001
  2 C s       :     3.268472  s :     3.268472
      pz      :     0.869146  p :     2.704712
      px      :     0.855655
      py      :     0.979910
      dz2     :     0.005770  d :     0.034378
      dxz     :     0.005442
      dyz     :     0.007292
      dx2y2   :     0.008214
      dxy     :     0.007660
  3 C s       :     3.014010  s :     3.014010
      pz      :     0.945603  p :     2.772152
      px      :     0.956999
      py      :     0.869551
      dz2     :     0.006871  d :     0.048235
      dxz     :     0.007038
      dyz     :     0.013356
      dx2y2   :     0.009172
      dxy     :     0.011798
  4 C s       :     3.269992  s :     3.269992
      pz      :     0.943003  p :     2.702874
      px      :     0.962768
      py      :     0.797104
      dz2     :     0.007378  d :     0.034340
      dxz     :     0.006055
      dyz     :     0.006549
      dx2y2   :     0.008150
      dxy     :     0.006209
  5 C s       :     3.220893  s :     3.220893
      pz      :     0.914860  p :     2.755721
      px      :     0.904748
      py      :     0.936113
      dz2     :     0.005200  d :     0.033884
      dxz     :     0.005144
      dyz     :     0.008098
      dx2y2   :     0.007645
      dxy     :     0.007798
  6 C s       :     2.944603  s :     2.944603
      pz      :     0.974579  p :     2.953669
      px      :     0.994896
      py      :     0.984194
      dz2     :     0.002764  d :     0.027616
      dxz     :     0.007162
      dyz     :     0.008020
      dx2y2   :     0.001412
      dxy     :     0.008258
  7 H s       :     0.954351  s :     0.954351
      pz      :     0.009425  p :     0.023162
      px      :     0.007102
      py      :     0.006635
  8 H s       :     0.945379  s :     0.945379
      pz      :     0.006768  p :     0.023410
      px      :     0.008794
      py      :     0.007848
  9 H s       :     0.930873  s :     0.930873
      pz      :     0.006420  p :     0.023808
      px      :     0.009102
      py      :     0.008286
 10 H s       :     0.989264  s :     0.989264
      pz      :     0.003977  p :     0.022845
      px      :     0.005101
      py      :     0.013767
 11 H s       :     0.972483  s :     0.972483
      pz      :     0.008412  p :     0.023585
      px      :     0.010725
      py      :     0.004447
 12 H s       :     0.971366  s :     0.971366
      pz      :     0.004070  p :     0.023584
      px      :     0.004690
      py      :     0.014823
 13 H s       :     0.988620  s :     0.988620
      pz      :     0.007833  p :     0.022852
      px      :     0.010280
      py      :     0.004739
 14 N s       :     3.298692  s :     3.298692
      pz      :     1.150604  p :     3.354066
      px      :     1.117108
      py      :     1.086355
      dz2     :     0.016523  d :     0.115133
      dxz     :     0.013542
      dyz     :     0.027584
      dx2y2   :     0.027868
      dxy     :     0.029616
 15 O s       :     3.856406  s :     3.856406
      pz      :     1.642369  p :     4.372514
      px      :     1.568752
      py      :     1.161393
      dz2     :     0.002806  d :     0.022069
      dxz     :     0.000756
      dyz     :     0.004828
      dx2y2   :     0.007098
      dxy     :     0.006580
 16 O s       :     3.856197  s :     3.856197
      pz      :     1.416180  p :     4.375043
      px      :     1.255555
      py      :     1.703308
      dz2     :     0.003891  d :     0.022019
      dxz     :     0.006421
      dyz     :     0.003157
      dx2y2   :     0.004436
      dxy     :     0.004115
 17 H s       :     0.000000  s :     0.000000
      pz      :     0.000000  p :     0.000000
      px      :     0.000000
      py      :     0.000000


                     *******************************
                     * LOEWDIN POPULATION ANALYSIS *
                     *******************************

----------------------
LOEWDIN ATOMIC CHARGES
----------------------
   0 C :    0.003036
   1 C :   -0.017870
   2 C :    0.000405
   3 C :   -0.033629
   4 C :    0.001409
   5 C :   -0.019349
   6 C :   -0.042235
   7 H :    0.034014
   8 H :    0.037961
   9 H :    0.045303
  10 H :    0.032701
  11 H :    0.040067
  12 H :    0.040633
  13 H :    0.032734
  14 N :    0.277109
  15 O :   -0.215147
  16 O :   -0.217143
  17 H :    1.000000

-------------------------------
LOEWDIN REDUCED ORBITAL CHARGES
-------------------------------
  0 C s       :     2.862346  s :     2.862346
      pz      :     0.980305  p :     3.028400
      px      :     0.995792
      py      :     1.052303
      dz2     :     0.016566  d :     0.106218
      dxz     :     0.016560
      dyz     :     0.023427
      dx2y2   :     0.024662
      dxy     :     0.025002
  1 C s       :     2.860979  s :     2.860979
      pz      :     1.016958  p :     3.067894
      px      :     1.018732
      py      :     1.032204
      dz2     :     0.016087  d :     0.088997
      dxz     :     0.017270
      dyz     :     0.017519
      dx2y2   :     0.019740
      dxy     :     0.018380
  2 C s       :     2.864104  s :     2.864104
      pz      :     1.002324  p :     3.045699
      px      :     1.000705
      py      :     1.042669
      dz2     :     0.013563  d :     0.089792
      dxz     :     0.013485
      dyz     :     0.020263
      dx2y2   :     0.022148
      dxy     :     0.020332
  3 C s       :     2.862951  s :     2.862951
      pz      :     0.985354  p :     3.048400
      px      :     1.043403
      py      :     1.019643
      dz2     :     0.016315  d :     0.122279
      dxz     :     0.018464
      dyz     :     0.033185
      dx2y2   :     0.024092
      dxy     :     0.030224
  4 C s       :     2.864358  s :     2.864358
      pz      :     1.000489  p :     3.044555
      px      :     0.998412
      py      :     1.045654
      dz2     :     0.017397  d :     0.089678
      dxz     :     0.017230
      dyz     :     0.017598
      dx2y2   :     0.020819
      dxy     :     0.016634
  5 C s       :     2.861162  s :     2.861162
      pz      :     1.013514  p :     3.069108
      px      :     1.010239
      py      :     1.045355
      dz2     :     0.012313  d :     0.089079
      dxz     :     0.012942
      dyz     :     0.022262
      dx2y2   :     0.021131
      dxy     :     0.020431
  6 C s       :     2.834142  s :     2.834142
      pz      :     1.038898  p :     3.137038
      px      :     1.054869
      py      :     1.043271
      dz2     :     0.006161  d :     0.071055
      dxz     :     0.018798
      dyz     :     0.021452
      dx2y2   :     0.003039
      dxy     :     0.021605
  7 H s       :     0.901664  s :     0.901664
      pz      :     0.026266  p :     0.064322
      px      :     0.019488
      py      :     0.018567
  8 H s       :     0.897565  s :     0.897565
      pz      :     0.017869  p :     0.064474
      px      :     0.024577
      py      :     0.022027
  9 H s       :     0.890189  s :     0.890189
      pz      :     0.017720  p :     0.064508
      px      :     0.024206
      py      :     0.022583
 10 H s       :     0.900206  s :     0.900206
      pz      :     0.012182  p :     0.067092
      px      :     0.015657
      py      :     0.039253
 11 H s       :     0.888336  s :     0.888336
      pz      :     0.025230  p :     0.071597
      px      :     0.031718
      py      :     0.014649
 12 H s       :     0.887751  s :     0.887751
      pz      :     0.013147  p :     0.071616
      px      :     0.014984
      py      :     0.043485
 13 H s       :     0.900075  s :     0.900075
      pz      :     0.022746  p :     0.067191
      px      :     0.029819
      py      :     0.014626
 14 N s       :     3.052669  s :     3.052669
      pz      :     1.150048  p :     3.428637
      px      :     1.133858
      py      :     1.144730
      dz2     :     0.033306  d :     0.241585
      dxz     :     0.029749
      dyz     :     0.055526
      dx2y2   :     0.057478
      dxy     :     0.065526
 15 O s       :     3.619935  s :     3.619935
      pz      :     1.644612  p :     4.552827
      px      :     1.589874
      py      :     1.318341
      dz2     :     0.006515  d :     0.042385
      dxz     :     0.001133
      dyz     :     0.007210
      dx2y2   :     0.014994
      dxy     :     0.012534
 16 O s       :     3.620092  s :     3.620092
      pz      :     1.476154  p :     4.554755
      px      :     1.356394
      py      :     1.722207
      dz2     :     0.005480  d :     0.042297
      dxz     :     0.014881
      dyz     :     0.005769
      dx2y2   :     0.007851
      dxy     :     0.008316
 17 H s       :     0.000000  s :     0.000000
      pz      :     0.000000  p :     0.000000
      px      :     0.000000
      py      :     0.000000


                      *****************************
                      * MAYER POPULATION ANALYSIS *
                      *****************************

  NA   - Mulliken gross atomic population
  ZA   - Total nuclear charge
  QA   - Mulliken gross atomic charge
  VA   - Mayer's total valence
  BVA  - Mayer's bonded valence
  FA   - Mayer's free valence

  ATOM       NA         ZA         QA         VA         BVA        FA
  0 C      6.0158     6.0000    -0.0158     3.9395     3.9395     0.0000
  1 C      6.0109     6.0000    -0.0109     3.8290     3.8290    -0.0000
  2 C      6.0076     6.0000    -0.0076     3.8260     3.8260    -0.0000
  3 C      5.8344     6.0000     0.1656     3.7797     3.7797    -0.0000
  4 C      6.0072     6.0000    -0.0072     3.8235     3.8235     0.0000
  5 C      6.0105     6.0000    -0.0105     3.8309     3.8309     0.0000
  6 C      5.9259     6.0000     0.0741     3.9081     3.9081    -0.0000
  7 H      0.9775     1.0000     0.0225     0.9956     0.9956     0.0000
  8 H      0.9688     1.0000     0.0312     0.9921     0.9921     0.0000
  9 H      0.9547     1.0000     0.0453     0.9889     0.9889     0.0000
 10 H      1.0121     1.0000    -0.0121     0.9891     0.9891     0.0000
 11 H      0.9961     1.0000     0.0039     1.0165     1.0165     0.0000
 12 H      0.9949     1.0000     0.0051     1.0164     1.0164     0.0000
 13 H      1.0115     1.0000    -0.0115     0.9893     0.9893     0.0000
 14 N      6.7679     7.0000     0.2321     3.9792     3.9792     0.0000
 15 O      8.2510     8.0000    -0.2510     1.9542     1.9542     0.0000
 16 O      8.2533     8.0000    -0.2533     1.9523     1.9523     0.0000
 17 H      0.0000     1.0000     1.0000     0.0000     0.0000    -0.0000

  Mayer bond orders larger than 0.100000
B(  0-C ,  1-C ) :   1.3619 B(  0-C ,  5-C ) :   1.3728 B(  0-C ,  6-C ) :   1.0679 
B(  1-C ,  2-C ) :   1.3605 B(  1-C , 10-H ) :   0.9873 B(  2-C ,  3-C ) :   1.3641 
B(  2-C , 11-H ) :   0.9837 B(  3-C ,  4-C ) :   1.3714 B(  3-C , 14-N ) :   0.8658 
B(  4-C ,  5-C ) :   1.3505 B(  4-C , 12-H ) :   0.9836 B(  5-C , 13-H ) :   0.9850 
B(  6-C ,  7-H ) :   0.9586 B(  6-C ,  8-H ) :   0.9558 B(  6-C ,  9-H ) :   0.9488 
B( 14-N , 15-O ) :   1.5443 B( 14-N , 16-O ) :   1.5422 B( 15-O , 16-O ) :   0.2742 


-------
TIMINGS
-------

Total SCF time: 0 days 0 hours 7 min 27 sec 

Total time                  ....     447.286 sec
Sum of individual times     ....     445.759 sec  ( 99.7%)

Fock matrix formation       ....     431.563 sec  ( 96.5%)
  Split-RI-J                ....      30.797 sec  (  7.1% of F)
  Chain of spheres X        ....     332.500 sec  ( 77.0% of F)
  XC integration            ....      67.716 sec  ( 15.7% of F)
    Basis function eval.    ....      25.671 sec  ( 37.9% of XC)
    Density eval.           ....      19.898 sec  ( 29.4% of XC)
    XC-Functional eval.     ....       5.396 sec  (  8.0% of XC)
    XC-Potential eval.      ....      13.308 sec  ( 19.7% of XC)
Diagonalization             ....       0.206 sec  (  0.0%)
Density matrix formation    ....       0.043 sec  (  0.0%)
Population analysis         ....       0.190 sec  (  0.0%)
Initial guess               ....       2.849 sec  (  0.6%)
Orbital Transformation      ....       0.000 sec  (  0.0%)
Orbital Orthonormalization  ....       0.000 sec  (  0.0%)
DIIS solution               ....       0.293 sec  (  0.1%)
SOSCF solution              ....       0.182 sec  (  0.0%)
Grid generation             ....      10.433 sec  (  2.3%)

Maximum memory used throughout the entire SCF-calculation: 74.7 MB


-------------------------------------------------------------------------------
                          DFT DISPERSION CORRECTION                            
                                                                               
                                 DFTD4 V2.5                                    
-------------------------------------------------------------------------------
The B3LYP functional is recognized
Active option DFTDOPT                   ...         5   

Starting D4
-------------------------   ----------------
Dispersion correction           -0.026442731
-------------------------   ----------------


-------------------------   --------------------
FINAL SINGLE POINT ENERGY      -475.485871822230
-------------------------   --------------------

------------------------------------------------------------------------------
                         ORCA SCF GRADIENT CALCULATION
------------------------------------------------------------------------------

 ... reading COSX grid (gridx3)
Gradient of the Kohn-Sham DFT energy:
Kohn-Sham wavefunction type      ... RKS
Hartree-Fock exchange scaling    ...    0.200
Number of operators              ...    1
Number of atoms                  ...   18
Basis set dimensions             ...  180
Integral neglect threshold       ... 2.5e-11
Integral primitive cutoff        ... 2.5e-12
SHARK Integral package           ... ON

Nuc. rep. gradient       (SHARK) ... done (  0.0 sec)
HCore & Overlap gradient (SHARK) ... done (  0.9 sec)
RI-J gradient            (SHARK) ... done (  6.6 sec)
COSX-gradient                    ... done ( 62.5 sec)
Exchange-correlation gradient    ... done
Dispersion correction            ... Starting D4


------------------- 
Dispersion Gradient 
------------------- 
   1  :    0.000169671    0.000243240    0.000271539
   2  :   -0.000186580    0.000462977    0.000024171
   3  :   -0.000327870    0.000324361   -0.000178991
   4  :   -0.000146488   -0.000210505   -0.000232996
   5  :    0.000274323   -0.000400035    0.000097308
   6  :    0.000366451   -0.000204391    0.000277192
   7  :    0.000271361    0.000388577    0.000419707
   8  :    0.000073759    0.000070812    0.000121443
   9  :    0.000034593    0.000105060    0.000119977
  10  :    0.000101738    0.000121011    0.000075506
  11  :   -0.000099944    0.000185803   -0.000014552
  12  :   -0.000153569    0.000107941   -0.000103192
  13  :    0.000095019   -0.000191466    0.000010705
  14  :    0.000148975   -0.000112552    0.000099917
  15  :   -0.000246532   -0.000353861   -0.000392294
  16  :   -0.000063319   -0.000418506   -0.000241058
  17  :   -0.000312023   -0.000119010   -0.000355014
  18  :    0.000000435    0.000000543    0.000000633

  |G| =    0.001609194

done

------------------
CARTESIAN GRADIENT
------------------

   1   C   :    0.000096152   -0.000058405    0.000051578
   2   C   :   -0.000092034    0.000081009   -0.000054988
   3   C   :   -0.000060308    0.000069909   -0.000042050
   4   C   :   -0.000005916   -0.000125373   -0.000060885
   5   C   :    0.000015120   -0.000035593   -0.000003969
   6   C   :    0.000045099    0.000027793    0.000087882
   7   C   :   -0.000017043    0.000016229    0.000004657
   8   H   :   -0.000000214    0.000022889    0.000005581
   9   H   :    0.000004545   -0.000032471    0.000007145
  10   H   :    0.000017195   -0.000019079    0.000003961
  11   H   :    0.000028352    0.000003697    0.000010700
  12   H   :    0.000004559    0.000011106    0.000000806
  13   H   :   -0.000014763   -0.000026968   -0.000009757
  14   H   :   -0.000012167   -0.000019247   -0.000010612
  15   N   :    0.000164474    0.000158213    0.000128932
  16   O   :   -0.000010957    0.000001811    0.000070567
  17   O   :    0.000023488    0.000064760    0.000091151
  18   H   :   -0.000200553   -0.000220854   -0.000270133

Difference to translation invariance:
           :   -0.0000149704   -0.0000805740    0.0000105647

Difference to rotation invariance:
           :    0.0000217705    0.0003465671    0.0002925307

Norm of the cartesian gradient     ...    0.0005741777
RMS gradient                       ...    0.0000781357
MAX gradient                       ...    0.0002701327

-------
TIMINGS
-------

Total SCF gradient time            ...       93.215 sec

One electron gradient       ....       0.890 sec  (  1.0%)
RI-J Coulomb gradient       ....       6.638 sec  (  7.1%)
COSX gradient               ....      62.473 sec  ( 67.0%)
XC gradient                 ....      20.825 sec  ( 22.3%)

Maximum memory used throughout the entire SCFGRAD-calculation: 60.1 MB
------------------------------------------------------------------------------
                         ORCA GEOMETRY RELAXATION STEP
------------------------------------------------------------------------------

Reading the OPT-File                    .... done
Getting information on internals        .... done
Copying old internal coords+grads       .... done
Making the new internal coordinates     .... (new redundants).... done
Validating the new internal coordinates .... (new redundants).... done
Calculating the B-matrix                .... done
Calculating the G,G- and P matrices     .... done
Transforming gradient to internals      .... done
Projecting the internal gradient        .... done
Number of atoms                         ....  18
Number of internal coordinates          .... 100
Current Energy                          ....  -475.485871822 Eh
Current gradient norm                   ....     0.000574178 Eh/bohr
Maximum allowed component of the step   ....  0.300
Current trust radius                    ....  0.300
Evaluating the initial hessian          ....  (Almloef) done
Projecting the Hessian                  .... done
Forming the augmented Hessian           .... done
Diagonalizing the augmented Hessian     .... done
Last element of RFO vector              ....  0.713015892
Lowest eigenvalues of augmented Hessian:
 -0.000227947  0.000235157  0.008066302  0.012354103  0.016958922
Length of the computed step             ....  0.983355180
Warning: the length of the step is outside the trust region - taking restricted step instead
The input lambda is                     ....    -0.000228
   iter:   1  x=   -0.000335  g= 8214.531665 f(x)=     0.876987
   iter:   2  x=   -0.000472  g= 2675.306647 f(x)=     0.367745
   iter:   3  x=   -0.000619  g=  971.432669 f(x)=     0.142984
   iter:   4  x=   -0.000726  g=  435.235335 f(x)=     0.046420
   iter:   5  x=   -0.000761  g=  271.648346 f(x)=     0.009634
   iter:   6  x=   -0.000764  g=  235.770284 f(x)=     0.000656
   iter:   7  x=   -0.000764  g=  233.228470 f(x)=     0.000004
   iter:   8  x=   -0.000764  g=  233.214678 f(x)=     0.000000
   iter:   9  x=   -0.000764  g=  233.214678 f(x)=     0.000000
The output lambda is                    ....    -0.000764 (9 iterations)
The final length of the internal step   ....  0.300000000
Converting the step to cartesian space:
 Initial RMS(Int)=    0.0300000000
Transforming coordinates:
 Iter   0:  RMS(Cart)=    0.0230433658 RMS(Int)=    0.0299988067
 Iter   1:  RMS(Cart)=    0.0000046932 RMS(Int)=    0.0000019518
 Iter   2:  RMS(Cart)=    0.0000000193 RMS(Int)=    0.0000000054
done
Storing new coordinates                 .... done

                                .--------------------.
          ----------------------|Geometry convergence|-------------------------
          Item                value                   Tolerance       Converged
          ---------------------------------------------------------------------
          RMS gradient        0.0000348314            0.0000300000      NO
          MAX gradient        0.0001618642            0.0001000000      NO
          RMS step            0.0300000000            0.0006000000      NO
          MAX step            0.1738943468            0.0010000000      NO
          ........................................................
          Max(Bonds)      0.0920      Max(Angles)    0.11
          Max(Dihed)        0.05      Max(Improp)    0.00
          ---------------------------------------------------------------------

The optimization has not yet converged - more geometry cycles are needed


    ---------------------------------------------------------------------------
                         Redundant Internal Coordinates
                            (Angstroem and degrees)

        Definition                    Value    dE/dq     Step     New-Value
    ----------------------------------------------------------------------------
     1. B(C   1,C   0)                1.4070  0.000131 -0.0001    1.4069   
     2. B(C   2,C   1)                1.3920  0.000052 -0.0000    1.3919   
     3. B(C   3,C   2)                1.3962  0.000125 -0.0001    1.3961   
     4. B(C   4,C   3)                1.3948  0.000061 -0.0001    1.3947   
     5. B(C   5,C   4)                1.3936  0.000087 -0.0001    1.3935   
     6. B(C   5,C   0)                1.4053  0.000021 -0.0000    1.4053   
     7. B(C   6,C   0)                1.5058  0.000019 -0.0000    1.5057   
     8. B(H   7,C   6)                1.0997 -0.000013  0.0000    1.0998   
     9. B(H   8,C   6)                1.1011 -0.000013  0.0000    1.1011   
    10. B(H   9,C   6)                1.1041  0.000001 -0.0000    1.1041   
    11. B(H  10,C   1)                1.0932 -0.000000  0.0000    1.0932   
    12. B(H  11,C   2)                1.0895  0.000001 -0.0000    1.0895   
    13. B(H  12,C   4)                1.0896  0.000018 -0.0000    1.0896   
    14. B(H  13,C   5)                1.0930 -0.000010  0.0000    1.0930   
    15. B(N  14,C   3)                1.4713 -0.000016  0.0000    1.4713   
    16. B(O  15,N  14)                1.2222  0.000020 -0.0000    1.2221   
    17. B(O  16,N  14)                1.2226  0.000016 -0.0000    1.2225   
    18. B(H  17,O  16)                9.9690  0.000140 -0.0919    9.8771   
    19. B(H  17,O  15)               10.1234  0.000099 -0.0910   10.0323   
    20. B(H  17,N  14)               10.5560  0.000162 -0.0920   10.4639   
    21. A(C   5,C   0,C   6)          121.06  0.000035   -0.01    121.05   
    22. A(C   1,C   0,C   6)          120.55 -0.000048    0.01    120.55   
    23. A(C   1,C   0,C   5)          118.39  0.000013   -0.00    118.39   
    24. A(C   0,C   1,H  10)          119.44 -0.000026    0.00    119.45   
    25. A(C   0,C   1,C   2)          121.26  0.000001   -0.00    121.26   
    26. A(C   2,C   1,H  10)          119.29  0.000025   -0.00    119.29   
    27. A(C   3,C   2,H  11)          119.41  0.000020   -0.00    119.41   
    28. A(C   1,C   2,H  11)          121.90 -0.000004    0.00    121.90   
[...]
     12      -0.006780  -0.125550  -0.187885  -0.165715  -0.131787  -0.000062
     13      -0.060831   0.009559   0.093048  -0.120236   0.097653  -0.000173
     14      -0.032671  -0.118495  -0.143863  -0.213689  -0.087110  -0.000080
     15       0.040084   0.034835   0.083502   0.078201   0.048135   0.000415
     16       0.035609  -0.120933  -0.192303   0.266779  -0.132715   0.000336
     17       0.056576  -0.017548  -0.000572   0.190648  -0.009699   0.000612
     18      -0.015570  -0.019892   0.016530   0.015604   0.009151  -0.030644
     19       0.002805  -0.028376  -0.021374   0.022829  -0.011577  -0.042060
     20      -0.027746  -0.032646   0.006864   0.028980   0.003894  -0.015586
     21       0.188177  -0.024997   0.102038   0.032166   0.045859   0.214382
     22       0.446530   0.003773   0.176072  -0.025628   0.081954  -0.232351
     23       0.164527  -0.006702   0.087301  -0.017393   0.044001   0.309842
     24      -0.191275  -0.000203  -0.118593   0.001180  -0.055276  -0.341600
     25      -0.425038  -0.031835  -0.138174   0.049437  -0.061966   0.278532
     26       0.249892   0.001043  -0.044885  -0.030650  -0.026761   0.219068
     27       0.381291  -0.010705   0.069114  -0.003770   0.025602   0.485476
     28      -0.404090  -0.023873  -0.094665   0.031805  -0.038896   0.444552
     29       0.012479  -0.015605  -0.014304   0.025132  -0.008773  -0.354106
     30       0.125677   0.288450  -0.110058  -0.295180  -0.099281   0.002064
     31      -0.032301   0.144328  -0.166037   0.025991  -0.106066  -0.007707
     32       0.112891   0.340250  -0.178303  -0.272517  -0.142299  -0.001639
     33       0.040188   0.059865  -0.119058  -0.060800  -0.124655  -0.000668
     34      -0.120123   0.395087  -0.108323   0.294075  -0.076455   0.000037
     35      -0.013105   0.228296  -0.162614   0.068857  -0.154570  -0.000808
     36       0.090990   0.291643   0.087929   0.221145   0.051204   0.000134
     37      -0.050917   0.109844   0.168455  -0.052161   0.172175  -0.000806
     38       0.065220   0.331674   0.158264   0.195038   0.123935  -0.000391
     39       0.033041   0.082645   0.120568   0.038320   0.073180  -0.005657
     40      -0.211754   0.376029   0.155744  -0.371797   0.141268   0.001841
     41      -0.064301   0.239311   0.184025  -0.118350   0.131919  -0.005172
     42      -0.004690   0.005636   0.207542   0.017636  -0.380661   0.000004
     43       0.011115   0.009550  -0.249745   0.029228   0.459495   0.000008
     44       0.000339   0.009545   0.094569   0.029961  -0.172945  -0.000012
     45       0.003813   0.005576  -0.058234   0.007842   0.104346  -0.000016
     46      -0.016516  -0.023381   0.168164  -0.028834  -0.245793  -0.000001
     47      -0.003401  -0.004596   0.015558  -0.004803  -0.004027  -0.000011
     48       0.008777  -0.016964  -0.132678  -0.020813   0.193400   0.000003
     49      -0.002247   0.004907   0.061207   0.006900  -0.113871  -0.000021
     50       0.007541  -0.014375  -0.102720  -0.017326   0.139173  -0.000005
     51      -0.000025  -0.000144   0.000622   0.000133  -0.001121   0.000010
     52       0.000016  -0.000162  -0.001068   0.000200   0.001909   0.000008
     53      -0.000006  -0.000199   0.000159   0.000208  -0.000287   0.000012
                 48         49         50         51         52         53    
      0      -0.000668   0.000271  -0.002569  -0.000325  -0.000318   0.000639
      1      -0.000807  -0.000981   0.000786   0.003250   0.000933   0.000058
      2      -0.000542  -0.000089  -0.002203   0.001131   0.000098   0.000659
      3       0.000406  -0.000620   0.028208  -0.003085  -0.000251  -0.001563
      4      -0.000806   0.001491  -0.081151   0.007593  -0.001355   0.012170
      5      -0.000238   0.000365  -0.007859   0.000318  -0.000835   0.003769
      6       0.000029  -0.000029  -0.006370   0.001480   0.013707  -0.063684
      7      -0.000054  -0.000299   0.005619  -0.001115  -0.005400   0.027448
      8      -0.000074  -0.000095  -0.003736   0.000957   0.010991  -0.050039
      9       0.000044  -0.000069  -0.000288  -0.000149  -0.002878   0.000446
     10       0.000035   0.000157   0.000243   0.000314   0.001771  -0.003130
     11       0.000072  -0.000001  -0.000180  -0.000007  -0.002046  -0.000912
     12      -0.000076   0.000181   0.000008  -0.005029   0.026324   0.006054
     13      -0.000023  -0.000029  -0.000227   0.008488  -0.080820  -0.017369
     14      -0.000103   0.000092  -0.000096  -0.001320  -0.008794  -0.001499
     15      -0.000708  -0.001938   0.006117   0.063709   0.009202   0.003040
     16       0.000242   0.000984  -0.002282  -0.029665  -0.000832  -0.000853
     17      -0.000373  -0.001826   0.005014   0.049897   0.008684   0.002620
     18      -0.054757   0.059454   0.001485   0.001387   0.000049  -0.000050
     19      -0.014989  -0.065676  -0.001510  -0.001603  -0.000085  -0.000003
     20       0.070728   0.030493  -0.000115   0.001671   0.000066   0.000036
     21      -0.201087  -0.401306  -0.004576  -0.015482  -0.000492  -0.000395
     22       0.193492   0.414492   0.005938   0.013329   0.000279  -0.000011
     23      -0.257213  -0.572827  -0.005899  -0.022471  -0.000748  -0.000683
     24       0.447893  -0.384022  -0.012890  -0.004484  -0.000082   0.000161
     25      -0.394184   0.322661   0.012548   0.002533  -0.000176  -0.000441
     26      -0.284867   0.258110   0.010622   0.001177  -0.000255  -0.000544
     27       0.414756   0.079364   0.002292   0.001587   0.000024  -0.000126
     28       0.389893   0.050601   0.001122   0.000600  -0.000136  -0.000042
     29      -0.293926  -0.044534   0.000034  -0.001912  -0.000200  -0.000345
     30      -0.003713   0.005047  -0.321558   0.030583  -0.003564   0.037747
     31       0.008668  -0.016111   0.925356  -0.086231   0.011577  -0.114304
     32       0.002178  -0.003288   0.090057  -0.007956   0.001558  -0.013063
     33       0.000589  -0.001358   0.091045  -0.019471  -0.156459   0.719694
     34      -0.000131   0.000634  -0.041557   0.008749   0.066775  -0.308265
     35       0.000575  -0.001098   0.070581  -0.015150  -0.123153   0.566022
     36      -0.000112  -0.000917  -0.000377   0.041993  -0.297488  -0.063647
     37       0.000696   0.002886   0.001367  -0.122589   0.913852   0.194916
     38       0.000168   0.000428   0.000215  -0.011345   0.099277   0.020984
     39       0.006104   0.021339  -0.070480  -0.726384  -0.088988  -0.029953
     40      -0.002656  -0.008389   0.031787   0.334655   0.038452   0.013276
     41       0.005422   0.018668  -0.055506  -0.570752  -0.071017  -0.023780
     42      -0.000058  -0.000024  -0.000066  -0.000113   0.000747  -0.000822
     43      -0.000062  -0.000031   0.000146   0.000055  -0.001297   0.000366
     44      -0.000031  -0.000034  -0.000011  -0.000076   0.000171  -0.000641
     45       0.000003  -0.000007   0.000017   0.000101  -0.000565   0.000009
     46       0.000030   0.000028  -0.000055  -0.000006   0.000293   0.000115
     47       0.000004   0.000007  -0.000004   0.000095  -0.000426   0.000057
     48       0.000025   0.000006   0.000020   0.000041  -0.000031   0.000287
     49       0.000002   0.000003  -0.000130   0.000005   0.000312  -0.000651
     50       0.000016   0.000005  -0.000036   0.000039   0.000103  -0.000001
     51      -0.000013   0.000001   0.000013  -0.000007  -0.000012  -0.000000
     52      -0.000008  -0.000010   0.000003  -0.000017   0.000007  -0.000017
     53      -0.000004  -0.000003   0.000013  -0.000013  -0.000008  -0.000007


-----------
IR SPECTRUM
-----------

 Mode   freq       eps      Int      T**2         TX        TY        TZ
       cm**-1   L/(mol*cm) km/mol    a.u.
----------------------------------------------------------------------------
  7:      9.56   0.000005    0.03  0.000173  ( 0.002810  0.011822 -0.005055)
  8:     26.64   0.160852  812.88  1.883974  ( 0.768971 -1.087186  0.332693)
  9:     28.61   0.157851  797.71  1.721611  (-0.873234 -0.333269  0.920872)
 10:     61.21   0.000005    0.03  0.000028  (-0.003986  0.003388  0.000647)
 11:    110.49   0.000308    1.56  0.000871  ( 0.020492  0.007453 -0.019890)
 12:    224.21   0.000182    0.92  0.000253  (-0.010081  0.011627 -0.004080)
 13:    285.77   0.000815    4.12  0.000890  (-0.019232 -0.008696  0.021089)
 14:    362.75   0.000080    0.40  0.000068  (-0.006242  0.001686 -0.005160)
 15:    366.64   0.000267    1.35  0.000227  ( 0.004938  0.011002  0.009043)
 16:    424.69   0.000001    0.01  0.000001  ( 0.000060 -0.000743  0.000547)
 17:    488.61   0.001270    6.42  0.000811  ( 0.019745  0.009592 -0.018145)
 18:    541.54   0.000305    1.54  0.000176  (-0.007888  0.010126 -0.003302)
 19:    632.40   0.000845    4.27  0.000417  (-0.007330 -0.012503 -0.014392)
 20:    645.89   0.000106    0.54  0.000051  ( 0.004715 -0.004691  0.002663)
 21:    709.26   0.001164    5.88  0.000512  (-0.015415 -0.007047  0.015001)
 22:    756.29   0.006187   31.27  0.002553  (-0.033479 -0.014524  0.034944)
 23:    806.71   0.001270    6.42  0.000491  ( 0.008712  0.012738  0.015911)
 24:    858.00   0.000090    0.45  0.000033  ( 0.003508  0.000609 -0.004460)
 25:    859.93   0.002763   13.96  0.001003  (-0.018112 -0.005508  0.025382)
 26:    889.09   0.007590   38.36  0.002664  ( 0.022462  0.032031  0.033666)
 27:   1000.53   0.000351    1.77  0.000109  ( 0.007517  0.004729  0.005525)
 28:   1002.91   0.000478    2.42  0.000149  ( 0.009144  0.006616 -0.004624)
 29:   1013.77   0.000003    0.02  0.000001  (-0.000535  0.000376 -0.000754)
 30:   1027.22   0.000547    2.76  0.000166  (-0.004764 -0.006919 -0.009774)
 31:   1051.91   0.002363   11.94  0.000701  (-0.020056 -0.017275 -0.000488)
 32:   1121.56   0.002082   10.52  0.000579  (-0.012595  0.020180 -0.003665)
 33:   1131.51   0.010132   51.21  0.002794  (-0.022722 -0.031247 -0.036080)
 34:   1193.71   0.000039    0.20  0.000010  (-0.001279 -0.002165 -0.001967)
 35:   1238.74   0.000784    3.96  0.000198  ( 0.007254  0.009035  0.007959)
 36:   1310.05   0.000122    0.62  0.000029  (-0.002103  0.004961  0.000139)
 37:   1379.70   0.002019   10.20  0.000457  (-0.010021  0.018718 -0.002434)
 38:   1396.09   0.000102    0.52  0.000023  ( 0.003894  0.001195 -0.002510)
 39:   1421.37   0.074814  378.08  0.016425  (-0.055198 -0.077851 -0.085544)
 40:   1434.02   0.000138    0.70  0.000030  ( 0.001654  0.005116  0.001099)
 41:   1459.47   0.001472    7.44  0.000315  ( 0.012866  0.001089 -0.012166)
 42:   1470.15   0.001518    7.67  0.000322  ( 0.009253 -0.013214  0.007868)
 43:   1527.84   0.003187   16.10  0.000651  ( 0.010845  0.016156  0.016500)
 44:   1631.69   0.015229   76.96  0.002913  ( 0.033121 -0.039845  0.015097)
 45:   1660.65   0.007550   38.16  0.001419  (-0.016575 -0.022799 -0.024986)
 46:   1688.58   0.030264  152.94  0.005593  (-0.045730  0.055459 -0.020642)
 47:   3028.23   0.001813    9.16  0.000187  (-0.006965 -0.009140 -0.007401)
 48:   3100.06   0.001635    8.26  0.000165  (-0.004504  0.001260  0.011946)
 49:   3133.25   0.001476    7.46  0.000147  ( 0.008539 -0.006550  0.005583)
 50:   3182.89   0.001178    5.95  0.000115  ( 0.003492 -0.010106 -0.001071)
 51:   3185.49   0.001078    5.45  0.000106  ( 0.007465 -0.001434  0.006914)
 52:   3233.09   0.000367    1.86  0.000035  (-0.001143  0.005673  0.001397)
 53:   3233.45   0.000424    2.14  0.000041  ( 0.004109  0.001522  0.004663)

* The epsilon (eps) is given for a Dirac delta lineshape.
** The dipole moment derivative (T) already includes vibrational overlap.

The first frequency considered to be a vibration is 7
The total number of vibrations considered is 47


--------------------------
THERMOCHEMISTRY AT 298.15K
--------------------------

Temperature         ... 298.15 K
Pressure            ... 1.00 atm
Total Mass          ... 138.15 AMU

Throughout the following assumptions are being made:
  (1) The electronic state is orbitally nondegenerate
  (2) There are no thermally accessible electronically excited states
  (3) Hindered rotations indicated by low frequency modes are not
      treated as such but are treated as vibrations and this may
      cause some error
  (4) All equations used are the standard statistical mechanics
      equations for an ideal gas
  (5) All vibrations are strictly harmonic

freq.       9.56  E(vib)   ...       0.58 
freq.      26.64  E(vib)   ...       0.56 
freq.      28.61  E(vib)   ...       0.55 
freq.      61.21  E(vib)   ...       0.51 
freq.     110.49  E(vib)   ...       0.45 
freq.     224.21  E(vib)   ...       0.33 
freq.     285.77  E(vib)   ...       0.28 
freq.     362.75  E(vib)   ...       0.22 
freq.     366.64  E(vib)   ...       0.22 
freq.     424.69  E(vib)   ...       0.18 
freq.     488.61  E(vib)   ...       0.15 
freq.     541.54  E(vib)   ...       0.12 
freq.     632.40  E(vib)   ...       0.09 
freq.     645.89  E(vib)   ...       0.09 
freq.     709.26  E(vib)   ...       0.07 
freq.     756.29  E(vib)   ...       0.06 
freq.     806.71  E(vib)   ...       0.05 
freq.     858.00  E(vib)   ...       0.04 
freq.     859.93  E(vib)   ...       0.04 
freq.     889.09  E(vib)   ...       0.04 
freq.    1000.53  E(vib)   ...       0.02 
freq.    1002.91  E(vib)   ...       0.02 
freq.    1013.77  E(vib)   ...       0.02 
freq.    1027.22  E(vib)   ...       0.02 
freq.    1051.91  E(vib)   ...       0.02 
freq.    1121.56  E(vib)   ...       0.01 
freq.    1131.51  E(vib)   ...       0.01 
freq.    1193.71  E(vib)   ...       0.01 
freq.    1238.74  E(vib)   ...       0.01 
freq.    1310.05  E(vib)   ...       0.01 
freq.    1379.70  E(vib)   ...       0.01 
freq.    1396.09  E(vib)   ...       0.00 
freq.    1421.37  E(vib)   ...       0.00 
freq.    1434.02  E(vib)   ...       0.00 
freq.    1459.47  E(vib)   ...       0.00 
freq.    1470.15  E(vib)   ...       0.00 
freq.    1527.84  E(vib)   ...       0.00 
freq.    1631.69  E(vib)   ...       0.00 
freq.    1660.65  E(vib)   ...       0.00 
freq.    1688.58  E(vib)   ...       0.00 
freq.    3028.23  E(vib)   ...       0.00 
freq.    3100.06  E(vib)   ...       0.00 
freq.    3133.25  E(vib)   ...       0.00 
freq.    3182.89  E(vib)   ...       0.00 
freq.    3185.49  E(vib)   ...       0.00 
freq.    3233.09  E(vib)   ...       0.00 
freq.    3233.45  E(vib)   ...       0.00 

------------
INNER ENERGY
------------

The inner energy is: U= E(el) + E(ZPE) + E(vib) + E(rot) + E(trans)
    E(el)   - is the total energy from the electronic structure calculation
              = E(kin-el) + E(nuc-el) + E(el-el) + E(nuc-nuc)
    E(ZPE)  - the the zero temperature vibrational energy from the frequency calculation
    E(vib)  - the the finite temperature correction to E(ZPE) due to population
              of excited vibrational states
    E(rot)  - is the rotational thermal energy
    E(trans)- is the translational thermal energy

Summary of contributions to the inner energy U:
Electronic energy                ...   -475.48608948 Eh
Zero point energy                ...      0.13064436 Eh      81.98 kcal/mol
Thermal vibrational correction   ...      0.00763106 Eh       4.79 kcal/mol
Thermal rotational correction    ...      0.00141627 Eh       0.89 kcal/mol
Thermal translational correction ...      0.00141627 Eh       0.89 kcal/mol
-----------------------------------------------------------------------
Total thermal energy                   -475.34498151 Eh


Summary of corrections to the electronic energy:
(perhaps to be used in another calculation)
Total thermal correction                  0.01046361 Eh       6.57 kcal/mol
Non-thermal (ZPE) correction              0.13064436 Eh      81.98 kcal/mol
-----------------------------------------------------------------------
Total correction                          0.14110797 Eh      88.55 kcal/mol


--------
ENTHALPY
--------

The enthalpy is H = U + kB*T
                kB is Boltzmann's constant
Total free energy                 ...   -475.34498151 Eh 
Thermal Enthalpy correction       ...      0.00094421 Eh       0.59 kcal/mol
-----------------------------------------------------------------------
Total Enthalpy                    ...   -475.34403730 Eh


Note: Only C1 symmetry has been detected, increase convergence thresholds 
      if your molecule has a higher symmetry. Symmetry factor of 1.0 is   
      used for the rotational entropy correction. 
 

Note: Rotational entropy computed according to Herzberg 
Infrared and Raman Spectra, Chapter V,1, Van Nostrand Reinhold, 1945 
Point Group:  C1, Symmetry Number:   1  
Rotational constants in cm-1:     0.129169     0.021743     0.018678 

Vibrational entropy computed according to the QRRHO of S. Grimme
Chem.Eur.J. 2012 18 9955


-------
ENTROPY
-------

The entropy contributions are T*S = T*(S(el)+S(vib)+S(rot)+S(trans))
     S(el)   - electronic entropy
     S(vib)  - vibrational entropy
     S(rot)  - rotational entropy
     S(trans)- translational entropy
The entropies will be listed as multiplied by the temperature to get
units of energy

Electronic entropy                ...      0.00000000 Eh      0.00 kcal/mol
Vibrational entropy               ...      0.01451597 Eh      9.11 kcal/mol
Rotational entropy                ...      0.01416349 Eh      8.89 kcal/mol
Translational entropy             ...      0.01932890 Eh     12.13 kcal/mol
-----------------------------------------------------------------------
Final entropy term                ...      0.04800836 Eh     30.13 kcal/mol

In case the symmetry of your molecule has not been determined correctly
or in case you have a reason to use a different symmetry number we print 
out the resulting rotational entropy values for sn=1,12 :
 --------------------------------------------------------
|  sn= 1 | S(rot)=       0.01416349 Eh      8.89 kcal/mol|
|  sn= 2 | S(rot)=       0.01350903 Eh      8.48 kcal/mol|
|  sn= 3 | S(rot)=       0.01312620 Eh      8.24 kcal/mol|
|  sn= 4 | S(rot)=       0.01285458 Eh      8.07 kcal/mol|
|  sn= 5 | S(rot)=       0.01264389 Eh      7.93 kcal/mol|
|  sn= 6 | S(rot)=       0.01247174 Eh      7.83 kcal/mol|
|  sn= 7 | S(rot)=       0.01232620 Eh      7.73 kcal/mol|
|  sn= 8 | S(rot)=       0.01220012 Eh      7.66 kcal/mol|
|  sn= 9 | S(rot)=       0.01208891 Eh      7.59 kcal/mol|
|  sn=10 | S(rot)=       0.01198943 Eh      7.52 kcal/mol|
|  sn=11 | S(rot)=       0.01189944 Eh      7.47 kcal/mol|
|  sn=12 | S(rot)=       0.01181729 Eh      7.42 kcal/mol|
 --------------------------------------------------------


-------------------
GIBBS FREE ENERGY
-------------------

The Gibbs free energy is G = H - T*S

Total enthalpy                    ...   -475.34403730 Eh 
Total entropy correction          ...     -0.04800836 Eh    -30.13 kcal/mol
-----------------------------------------------------------------------
Final Gibbs free energy         ...   -475.39204566 Eh

For completeness - the Gibbs free energy minus the electronic energy
G-E(el)                           ...      0.09404382 Eh     59.01 kcal/mol


Timings for individual modules:

Sum of individual times         ...     4604.839 sec (=  76.747 min)
GTO integral calculation        ...       11.301 sec (=   0.188 min)   0.2 %
SCF iterations                  ...     2117.881 sec (=  35.298 min)  46.0 %
SCF Gradient evaluation         ...      822.148 sec (=  13.702 min)  17.9 %
Geometry relaxation             ...        5.296 sec (=   0.088 min)   0.1 %
Analytical frequency calculation...     1648.213 sec (=  27.470 min)  35.8 %
                             ****ORCA TERMINATED NORMALLY****
TOTAL RUN TIME: 0 days 1 hours 16 minutes 56 seconds 796 msec
