
                                 *****************
                                 * O   R   C   A *
                                 *****************

                                            #,                                       
                                            ###                                      
                                            ####                                     
                                            #####                                    
                                            ######                                   
                                           ########,                                 
                                     ,,################,,,,,                         
                               ,,#################################,,                 
                          ,,##########################################,,             
                       ,#########################################, ''#####,          
                    ,#############################################,,   '####,        
                  ,##################################################,,,,####,       
                ,###########''''           ''''###############################       
              ,#####''   ,,,,##########,,,,          '''####'''          '####       
            ,##' ,,,,###########################,,,                        '##       
           ' ,,###''''                  '''############,,,                           
         ,,##''                                '''############,,,,        ,,,,,,###''
      ,#''                                            '''#######################'''  
     '                                                          ''''####''''         
             ,#######,   #######,   ,#######,      ##                                
            ,#'     '#,  ##    ##  ,#'     '#,    #''#        ######   ,####,        
            ##       ##  ##   ,#'  ##            #'  '#       #        #'  '#        
            ##       ##  #######   ##           ,######,      #####,   #    #        
            '#,     ,#'  ##    ##  '#,     ,#' ,#      #,         ##   #,  ,#        
             '#######'   ##     ##  '#######'  #'      '#     #####' # '####'        



                  #######################################################
                  #                        -***-                        #
                  #          Department of theory and spectroscopy      #
                  #    Directorship and core code : Frank Neese         #
                  #        Max Planck Institute fuer Kohlenforschung    #
                  #                Kaiser Wilhelm Platz 1               #
                  #                 D-45470 Muelheim/Ruhr               #
                  #                      Germany                        #
                  #                                                     #
                  #                  All rights reserved                #
                  #                        -***-                        #
                  #######################################################



                         Program Version 5.0.4 -  RELEASE  -

 With contributions from (in alphabetic order):
   Daniel Aravena         : Magnetic Suceptibility
   Michael Atanasov       : Ab Initio Ligand Field Theory (pilot matlab implementation)
   Alexander A. Auer      : GIAO ZORA, VPT2 properties, NMR spectrum
   Ute Becker             : Parallelization
   Giovanni Bistoni       : ED, misc. LED, open-shell LED, HFLD
   Martin Brehm           : Molecular dynamics
   Dmytro Bykov           : SCF Hessian
   Vijay G. Chilkuri      : MRCI spin determinant printing, contributions to CSF-ICE
   Dipayan Datta          : RHF DLPNO-CCSD density
   Achintya Kumar Dutta   : EOM-CC, STEOM-CC
   Dmitry Ganyushin       : Spin-Orbit,Spin-Spin,Magnetic field MRCI
   Miquel Garcia          : C-PCM and meta-GGA Hessian, CC/C-PCM, Gaussian charge scheme
   Yang Guo               : DLPNO-NEVPT2, F12-NEVPT2, CIM, IAO-localization
   Andreas Hansen         : Spin unrestricted coupled pair/coupled cluster methods
   Benjamin Helmich-Paris : MC-RPA, TRAH-SCF, COSX integrals
   Lee Huntington         : MR-EOM, pCC
   Robert Izsak           : Overlap fitted RIJCOSX, COSX-SCS-MP3, EOM
   Marcus Kettner         : VPT2
   Christian Kollmar      : KDIIS, OOCD, Brueckner-CCSD(T), CCSD density, CASPT2, CASPT2-K
   Simone Kossmann        : Meta GGA functionals, TD-DFT gradient, OOMP2, MP2 Hessian
   Martin Krupicka        : Initial AUTO-CI
   Lucas Lang             : DCDCAS
   Marvin Lechner         : AUTO-CI (C++ implementation), FIC-MRCC
   Dagmar Lenk            : GEPOL surface, SMD
   Dimitrios Liakos       : Extrapolation schemes; Compound Job, initial MDCI parallelization
   Dimitrios Manganas     : Further ROCIS development; embedding schemes
   Dimitrios Pantazis     : SARC Basis sets
   Anastasios Papadopoulos: AUTO-CI, single reference methods and gradients
   Taras Petrenko         : DFT Hessian,TD-DFT gradient, ASA, ECA, R-Raman, ABS, FL, XAS/XES, NRVS
   Peter Pinski           : DLPNO-MP2, DLPNO-MP2 Gradient
   Christoph Reimann      : Effective Core Potentials
   Marius Retegan         : Local ZFS, SOC
   Christoph Riplinger    : Optimizer, TS searches, QM/MM, DLPNO-CCSD(T), (RO)-DLPNO pert. Triples
   Tobias Risthaus        : Range-separated hybrids, TD-DFT gradient, RPA, STAB
   Michael Roemelt        : Original ROCIS implementation
   Masaaki Saitow         : Open-shell DLPNO-CCSD energy and density
   Barbara Sandhoefer     : DKH picture change effects
   Avijit Sen             : IP-ROCIS
   Kantharuban Sivalingam : CASSCF convergence, NEVPT2, FIC-MRCI
   Bernardo de Souza      : ESD, SOC TD-DFT
   Georgi Stoychev        : AutoAux, RI-MP2 NMR, DLPNO-MP2 response
   Willem Van den Heuvel  : Paramagnetic NMR
   Boris Wezisla          : Elementary symmetry handling
   Frank Wennmohs         : Technical directorship


 We gratefully acknowledge several colleagues who have allowed us to
 interface, adapt or use parts of their codes:
   Stefan Grimme, W. Hujo, H. Kruse, P. Pracht,  : VdW corrections, initial TS optimization,
                  C. Bannwarth, S. Ehlert          DFT functionals, gCP, sTDA/sTD-DF
   Ed Valeev, F. Pavosevic, A. Kumar             : LibInt (2-el integral package), F12 methods
   Garnet Chan, S. Sharma, J. Yang, R. Olivares  : DMRG
   Ulf Ekstrom                                   : XCFun DFT Library
   Mihaly Kallay                                 : mrcc  (arbitrary order and MRCC methods)
   Jiri Pittner, Ondrej Demel                    : Mk-CCSD
   Frank Weinhold                                : gennbo (NPA and NBO analysis)
   Christopher J. Cramer and Donald G. Truhlar   : smd solvation model
   Lars Goerigk                                  : TD-DFT with DH, B97 family of functionals
   V. Asgeirsson, H. Jonsson                     : NEB implementation
   FAccTs GmbH                                   : IRC, NEB, NEB-TS, DLPNO-Multilevel, CI-OPT
                                                   MM, QMMM, 2- and 3-layer-ONIOM, Crystal-QMMM,
                                                   LR-CPCM, SF, NACMEs, symmetry and pop. for TD-DFT,
                                                   nearIR, NL-DFT gradient (VV10), updates on ESD,
                                                   ML-optimized integration grids
   S Lehtola, MJT Oliveira, MAL Marques          : LibXC Library
   Liviu Ungur et al                             : ANISO software


 Your calculation uses the libint2 library for the computation of 2-el integrals
 For citations please refer to: http://libint.valeyev.net

 Your ORCA version has been built with support for libXC version: 5.1.0
 For citations please refer to: https://tddft.org/programs/libxc/

 This ORCA versions uses:
   CBLAS   interface :  Fast vector & matrix operations
   LAPACKE interface :  Fast linear algebra routines
   Shared memory     :  Shared parallel matrices


================================================================================

----- Orbital basis set information -----
Your calculation utilizes the basis: cc-pVTZ 
       H, B-Ne : Obtained from the ccRepo (grant-hill.group.shef.ac.uk/ccrepo) Feb. 2017
                 T. H. Dunning, Jr., J. Chem. Phys. 90, 1007 (1989)
            He : Obtained from the ccRepo (grant-hill.group.shef.ac.uk/ccrepo) Feb. 2017
                 D. E. Woon, T. H. Dunning, Jr., J. Chem. Phys. 100, 2975 (1994)
  Li-Be, Na-Mg : Obtained from the ccRepo (grant-hill.group.shef.ac.uk/ccrepo) Feb. 2017
                 B. P. Prascher, D. E. Woon, K. A. Peterson, T. H. Dunning, Jr., A. K. Wilson, Theor. Chem. Acc. 128, 69 (2011)
         Al-Ar : Obtained from the ccRepo (grant-hill.group.shef.ac.uk/ccrepo) Feb. 2017
                 D. E. Woon, T. H. Dunning, Jr., J. Chem. Phys. 98, 1358 (1993)
            Ca : Obtained from the Peterson Research Group Website (tyr0.chem.wsu.edu/~kipeters) Feb. 2017
                 J. Koput, K. A. Peterson, J. Phys. Chem. 106, 9595 (2002)
         Sc-Zn : Obtained from the ccRepo (grant-hill.group.shef.ac.uk/ccrepo) Feb. 2017
                 N. B. Balabanov, K. A. Peterson, J. Chem. Phys. 123, 064107 (2005)
                 N. B. Balabanov, K. A. Peterson, J. Chem. Phys. 125, 074110 (2006)
         Ga-Kr : Obtained from the ccRepo (grant-hill.group.shef.ac.uk/ccrepo) Feb. 2017
                 A. K. Wilson, D. E. Woon, K. A. Peterson, T. H. Dunning, Jr., J. Chem. Phys. 110, 7667 (1999)
             Y : Obtained from the ccRepo (grant-hill.group.shef.ac.uk/ccrepo) Feb. 2017
                 K. A. Peterson, D. Figgen, M. Dolg, H. Stoll, J. Chem. Phys. 126, 124101 (2007)
        Ag, Au : Obtained from the Peterson Research Group Website (tyr0.chem.wsu.edu/~kipeters) Feb. 2017
                 K. A. Peterson, C. Puzzarini, Theor. Chem. Acc. 114, 283 (2005)

----- AuxJ basis set information -----
Your calculation utilizes the auxiliary basis: def2/J
   F. Weigend, Phys. Chem. Chem. Phys. 8, 1057 (2006).

----- AuxC basis set information -----
Your calculation utilizes the auxiliary basis: cc-pVTZ/C 
  Obtained from the EMSL Basis Set Exchange (bse.pnl.gov) Feb. 2017
  H-He, B-F, Al-Ar, Ga-Kr : F. Weigend, A. Kohn, C. Hattig, J. Chem. Phys. 116, 3175 (2002)
             Li-Be, Na-Mg : C. Haettig, Phys. Chem. Chem. Phys. 7, 59 (2005)
                       Ne : C. Haettig, Phys. Chem. Chem. Phys. 7, 59 (2005)
                            F. Weigend, A. Kohn, C. Hattig, J. Chem. Phys. 116, 3175 (2002)
                    Sc-Zn : J. G. Hill, J. A. Platts, J. Chem. Phys. 128, 044104 (2008)

================================================================================
                                        WARNINGS
                       Please study these warnings very carefully!
================================================================================


INFO   : the flag for use of the SHARK integral package has been found!

================================================================================
                                       INPUT FILE
================================================================================
NAME = UHF-RI.inp
|  1> !UHF cc-pVTZ cc-pVTZ/C RIJCOSX
|  2> 
|  3> * xyz 0 1
|  4>   C   -1.05354596271083      1.42135243576665     -0.73549220185663
|  5>   C   -1.76717691585433      0.81968690597605      0.22444324622836
|  6>   C   -0.91604797271676     -0.21504620254596      0.92339098529051
|  7>   C   -3.18658916550982      1.06760146729181      0.62043996179919
|  8>   H   -3.65177058285626      1.84890976029203      0.00161745831760
|  9>   H   -3.25259686050292      1.37975261146372      1.67787971117939
| 10>   H   -3.79133874736600      0.14808169577577      0.52701048897989
| 11>   C   0.35705795446457      0.89749440001034     -0.79501799653405
| 12>   C   1.41588701773226      2.02006837281249     -0.63884945754235
| 13>   C   2.80881703463114      1.41251132710473     -0.63583732910559
| 14>   H   1.20967085252781      2.57392305919014      0.29049098629325
| 15>   H   1.34740263144453      2.70902449090648     -1.49554455642121
| 16>   C   3.37622781232091      1.19049215945855      0.75754145591531
| 17>   N   0.41123761481178     -0.07210345422347      0.31381604773552
| 18>   H   0.56307393880421      0.40954505459904     -1.76931562713006
| 19>   H   -1.34153580290440     -1.23063666814028      0.78694765203342
| 20>   H   -0.89469173408622     -0.03961126720342      2.01833030977159
| 21>   H   0.80199521648994     -0.96262165511348      0.02364954504097
| 22>   O   3.36130687691708      1.06897825383177     -1.65256833709520
| 23>   Cl  4.92950915132907      0.31373216343513      0.77168111918747
| 24>   H   2.62051255229742      0.61607693324621      1.31840686987001
| 25>   H   3.50773757250952      2.16097047317234      1.26235402519175
| 26>   H   -1.41589248177270      2.21265768289335     -1.39571435714913
| 27> **                         ****END OF INPUT****
================================================================================

                       ****************************
                       * Single Point Calculation *
                       ****************************

---------------------------------
CARTESIAN COORDINATES (ANGSTROEM)
---------------------------------
  C     -1.053546    1.421352   -0.735492
  C     -1.767177    0.819687    0.224443
  C     -0.916048   -0.215046    0.923391
  C     -3.186589    1.067601    0.620440
  H     -3.651771    1.848910    0.001617
  H     -3.252597    1.379753    1.677880
  H     -3.791339    0.148082    0.527010
  C      0.357058    0.897494   -0.795018
  C      1.415887    2.020068   -0.638849
  C      2.808817    1.412511   -0.635837
  H      1.209671    2.573923    0.290491
  H      1.347403    2.709024   -1.495545
  C      3.376228    1.190492    0.757541
  N      0.411238   -0.072103    0.313816
  H      0.563074    0.409545   -1.769316
  H     -1.341536   -1.230637    0.786948
  H     -0.894692   -0.039611    2.018330
  H      0.801995   -0.962622    0.023650
  O      3.361307    1.068978   -1.652568
  Cl     4.929509    0.313732    0.771681
  H      2.620513    0.616077    1.318407
  H      3.507738    2.160970    1.262354
  H     -1.415892    2.212658   -1.395714

----------------------------
CARTESIAN COORDINATES (A.U.)
----------------------------
  NO LB      ZA    FRAG     MASS         X           Y           Z
   0 C     6.0000    0    12.011   -1.990913    2.685967   -1.389879
   1 C     6.0000    0    12.011   -3.339480    1.548984    0.424136
   2 C     6.0000    0    12.011   -1.731080   -0.406378    1.744956
   3 C     6.0000    0    12.011   -6.021781    2.017474    1.172462
   4 H     1.0000    0     1.008   -6.900846    3.493933    0.003057
   5 H     1.0000    0     1.008   -6.146517    2.607355    3.170733
   6 H     1.0000    0     1.008   -7.164592    0.279834    0.995905
   7 C     6.0000    0    12.011    0.674742    1.696019   -1.502366
   8 C     6.0000    0    12.011    2.675639    3.817376   -1.207251
   9 C     6.0000    0    12.011    5.307895    2.669260   -1.201558
  10 H     1.0000    0     1.008    2.285947    4.864010    0.548948
  11 H     1.0000    0     1.008    2.546222    5.119314   -2.826170
  12 C     6.0000    0    12.011    6.380146    2.249704    1.431546
  13 N     7.0000    0    14.007    0.777126   -0.136256    0.593026
  14 H     1.0000    0     1.008    1.064056    0.773928   -3.343522
  15 H     1.0000    0     1.008   -2.535135   -2.325566    1.487116
  16 H     1.0000    0     1.008   -1.690722   -0.074854    3.814092
  17 H     1.0000    0     1.008    1.515551   -1.819091    0.044691
  18 O     8.0000    0    15.999    6.351949    2.020076   -3.122902
  19 Cl   17.0000    0    35.453    9.315422    0.592868    1.458266
  20 H     1.0000    0     1.008    4.952051    1.164217    2.491428
  21 H     1.0000    0     1.008    6.628663    4.083642    2.385503
  22 H     1.0000    0     1.008   -2.675649    4.181317   -2.637518

--------------------------------
INTERNAL COORDINATES (ANGSTROEM)
--------------------------------
 C      0   0   0     0.000000000000     0.00000000     0.00000000
 C      1   0   0     1.338934879489     0.00000000     0.00000000
 C      2   1   0     1.511165452774   109.82196906     0.00000000
 C      2   1   3     1.494324651114   128.44062839   179.78269870
 H      4   2   1     1.099898945618   111.74548719     0.56287256
 H      4   2   1     1.104524411761   110.93787333   239.70122251
 H      4   2   1     1.104521495198   111.07206626   121.48725273
 C      1   2   3     1.505913003134   111.79412486   359.04900444
 C      8   1   2     1.551025442152   112.56335804   236.40577598
 C      9   8   1     1.519667288812   109.66823387   177.07142628
 H      9   8   1     1.101341809323   108.73027453    54.57694854
 H      9   8   1     1.101488600153   109.38669597   295.31290613
 C     10   9   8     1.520773467676   113.71409416   262.94198134
 N      3   2   1     1.467549407909   104.51207102     3.94388319
 H      8   1   2     1.108960334041   111.21128859   117.28720759
 H      3   2   1     1.109540747622   110.72492162   242.40782782
 H      3   2   1     1.109110287466   111.04803639   125.08450044
 H     14   3   2     1.014845194437   112.42873142   228.76442572
 O     10   9   8     1.207063354124   122.11734072    78.62710422
 Cl    13  10   9     1.783701471327   113.82421088   173.56777860
 H     13  10   9     1.102555404008   106.64293304    52.48876903
 H     13  10   9     1.101797941781   109.61716057   295.91096255
 H      1   2   3     1.092406649717   125.59235336   180.27335036

---------------------------
INTERNAL COORDINATES (A.U.)
---------------------------
 C      0   0   0     0.000000000000     0.00000000     0.00000000
 C      1   0   0     2.530220233389     0.00000000     0.00000000
 C      2   1   0     2.855688848786   109.82196906     0.00000000
 C      2   1   3     2.823864345773   128.44062839   179.78269870
 H      4   2   1     2.078507782206   111.74548719     0.56287256
 H      4   2   1     2.087248646458   110.93787333   239.70122251
 H      4   2   1     2.087243134954   111.07206626   121.48725273
 C      1   2   3     2.845763157435   111.79412486   359.04900444
 C      8   1   2     2.931013312412   112.56335804   236.40577598
 C      9   8   1     2.871754990533   109.66823387   177.07142628
 H      9   8   1     2.081234399458   108.73027453    54.57694854
 H      9   8   1     2.081511793926   109.38669597   295.31290613
 C     10   9   8     2.873845365641   113.71409416   262.94198134
 N      3   2   1     2.773266468946   104.51207102     3.94388319
 H      8   1   2     2.095631324719   111.21128859   117.28720759
 H      3   2   1     2.096728147432   110.72492162   242.40782782
 H      3   2   1     2.095914695625   111.04803639   125.08450044
 H     14   3   2     1.917779485812   112.42873142   228.76442572
 O     10   9   8     2.281019165587   122.11734072    78.62710422
 Cl    13  10   9     3.370707285481   113.82421088   173.56777860
 H     13  10   9     2.083527761050   106.64293304    52.48876903
 H     13  10   9     2.082096364884   109.61716057   295.91096255
 H      1   2   3     2.064349394839   125.59235336   180.27335036

---------------------
BASIS SET INFORMATION
---------------------
There are 5 groups of distinct atoms

 Group   1 Type C   : 18s5p2d1f contracted to 4s3p2d1f pattern {8811/311/11/1}
 Group   2 Type H   : 5s2p1d contracted to 3s2p1d pattern {311/11/1}
 Group   3 Type N   : 18s5p2d1f contracted to 4s3p2d1f pattern {8811/311/11/1}
 Group   4 Type O   : 18s5p2d1f contracted to 4s3p2d1f pattern {8811/311/11/1}
 Group   5 Type Cl  : 41s16p2d1f contracted to 5s4p2d1f pattern {13131311/7711/11/1}

Atom   0C    basis set group =>   1
Atom   1C    basis set group =>   1
Atom   2C    basis set group =>   1
Atom   3C    basis set group =>   1
Atom   4H    basis set group =>   2
Atom   5H    basis set group =>   2
Atom   6H    basis set group =>   2
Atom   7C    basis set group =>   1
Atom   8C    basis set group =>   1
Atom   9C    basis set group =>   1
Atom  10H    basis set group =>   2
Atom  11H    basis set group =>   2
Atom  12C    basis set group =>   1
Atom  13N    basis set group =>   3
Atom  14H    basis set group =>   2
Atom  15H    basis set group =>   2
Atom  16H    basis set group =>   2
Atom  17H    basis set group =>   2
Atom  18O    basis set group =>   4
Atom  19Cl   basis set group =>   5
Atom  20H    basis set group =>   2
Atom  21H    basis set group =>   2
Atom  22H    basis set group =>   2
---------------------------------
AUXILIARY/J BASIS SET INFORMATION
---------------------------------
There are 5 groups of distinct atoms

 Group   1 Type C   : 12s5p4d2f1g contracted to 6s4p3d1f1g pattern {711111/2111/211/2/1}
 Group   2 Type H   : 5s2p1d contracted to 3s1p1d pattern {311/2/1}
 Group   3 Type N   : 12s5p4d2f1g contracted to 6s4p3d1f1g pattern {711111/2111/211/2/1}
 Group   4 Type O   : 12s5p4d2f1g contracted to 6s4p3d1f1g pattern {711111/2111/211/2/1}
 Group   5 Type Cl  : 14s5p5d2f1g contracted to 8s4p3d1f1g pattern {71111111/2111/311/2/1}

Atom   0C    basis set group =>   1
Atom   1C    basis set group =>   1
Atom   2C    basis set group =>   1
Atom   3C    basis set group =>   1
Atom   4H    basis set group =>   2
Atom   5H    basis set group =>   2
Atom   6H    basis set group =>   2
Atom   7C    basis set group =>   1
Atom   8C    basis set group =>   1
Atom   9C    basis set group =>   1
Atom  10H    basis set group =>   2
Atom  11H    basis set group =>   2
Atom  12C    basis set group =>   1
Atom  13N    basis set group =>   3
Atom  14H    basis set group =>   2
Atom  15H    basis set group =>   2
Atom  16H    basis set group =>   2
Atom  17H    basis set group =>   2
Atom  18O    basis set group =>   4
Atom  19Cl   basis set group =>   5
Atom  20H    basis set group =>   2
Atom  21H    basis set group =>   2
Atom  22H    basis set group =>   2
---------------------------------
AUXILIARY/C BASIS SET INFORMATION
---------------------------------
There are 5 groups of distinct atoms

 Group   1 Type C   : 8s6p5d3f1g contracted to 8s6p5d3f1g pattern {11111111/111111/11111/111/1}
 Group   2 Type H   : 4s3p2d1f contracted to 4s3p2d1f pattern {1111/111/11/1}
 Group   3 Type N   : 8s6p5d3f1g contracted to 8s6p5d3f1g pattern {11111111/111111/11111/111/1}
 Group   4 Type O   : 8s6p5d3f1g contracted to 8s6p5d3f1g pattern {11111111/111111/11111/111/1}
 Group   5 Type Cl  : 10s8p7d5f2g contracted to 10s8p7d5f2g pattern {1111111111/11111111/1111111/11111/11}

Atom   0C    basis set group =>   1
Atom   1C    basis set group =>   1
Atom   2C    basis set group =>   1
Atom   3C    basis set group =>   1
Atom   4H    basis set group =>   2
Atom   5H    basis set group =>   2
Atom   6H    basis set group =>   2
Atom   7C    basis set group =>   1
Atom   8C    basis set group =>   1
Atom   9C    basis set group =>   1
Atom  10H    basis set group =>   2
Atom  11H    basis set group =>   2
Atom  12C    basis set group =>   1
Atom  13N    basis set group =>   3
Atom  14H    basis set group =>   2
Atom  15H    basis set group =>   2
Atom  16H    basis set group =>   2
Atom  17H    basis set group =>   2
Atom  18O    basis set group =>   4
Atom  19Cl   basis set group =>   5
Atom  20H    basis set group =>   2
Atom  21H    basis set group =>   2
Atom  22H    basis set group =>   2

Checking for AutoStart:
The File: UHF-RI.gbw exists
Trying to determine its content:
     ... Fine, the file contains calculation information
     ... Fine, the calculation information was read
     ... Fine, the file contains a basis set
     ... Fine, the basis set was read
     ... Fine, the file contains a geometry
     ... Fine, the geometry was read
     ... The file does not contain orbitals - skipping AutoStart
------------------------------------------------------------------------------
                           ORCA GTO INTEGRAL CALCULATION
                           -- RI-GTO INTEGRALS CHOSEN --
------------------------------------------------------------------------------
------------------------------------------------------------------------------
                   ___                                                        
                  /   \      - P O W E R E D   B Y -                         
                 /     \                                                     
                 |  |  |   _    _      __       _____    __    __             
                 |  |  |  | |  | |    /  \     |  _  \  |  |  /  |          
                  \  \/   | |  | |   /    \    | | | |  |  | /  /          
                 / \  \   | |__| |  /  /\  \   | |_| |  |  |/  /          
                |  |  |   |  __  | /  /__\  \  |    /   |      \           
                |  |  |   | |  | | |   __   |  |    \   |  |\   \          
                \     /   | |  | | |  |  |  |  | |\  \  |  | \   \       
                 \___/    |_|  |_| |__|  |__|  |_| \__\ |__|  \__/        
                                                                              
                      - O R C A' S   B I G   F R I E N D -                    
                                      &                                       
                       - I N T E G R A L  F E E D E R -                       
                                                                              
 v1 FN, 2020, v2 2021                                                         
------------------------------------------------------------------------------


Reading SHARK input file UHF-RI.SHARKINP.tmp ... ok
----------------------
SHARK INTEGRAL PACKAGE
----------------------

Number of atoms                             ...     23
Number of basis functions                   ...    587
Number of shells                            ...    259
Maximum angular momentum                    ...      3
Integral batch strategy                     ... SHARK/LIBINT Hybrid
RI-J (if used) integral strategy            ... SPLIT-RIJ (Revised 2003 algorithm where possible)
Printlevel                                  ...      1
Contraction scheme used                     ... PARTIAL GENERAL contraction
Coulomb Range Separation                    ... NOT USED
Exchange Range Separation                   ... NOT USED
Finite Nucleus Model                        ... NOT USED
Auxiliary Coulomb fitting basis             ... AVAILABLE
   # of basis functions in Aux-J            ...    673
   # of shells in Aux-J                     ...    227
   Maximum angular momentum in Aux-J        ...      4
Auxiliary J/K fitting basis                 ... NOT available
Auxiliary Correlation fitting basis         ... AVAILABLE
   # of basis functions in Aux-C            ...   1292
   # of shells in Aux-C                     ...    382
   Maximum angular momentum in Aux-C        ...      4
Auxiliary 'external' fitting basis          ... NOT available
Integral threshold                          ...     1.000000e-10
Primitive cut-off                           ...     1.000000e-11
Primitive pair pre-selection threshold      ...     1.000000e-11

Calculating pre-screening integrals         ... done (  0.2 sec) Dimension = 259
Calculating pre-screening integrals (ORCA)  ... done (  1.2 sec) Dimension = 184
Organizing shell pair data                  ... done (  0.5 sec)
Shell pair information
Total number of shell pairs                 ...     33670
Shell pairs after pre-screening             ...     21588
Total number of primitive shell pairs       ...     46122
Primitive shell pairs kept                  ...     26638
          la=0 lb=0:   6255 shell pairs
          la=1 lb=0:   6354 shell pairs
          la=1 lb=1:   1537 shell pairs
          la=2 lb=0:   3379 shell pairs
          la=2 lb=1:   1632 shell pairs
          la=2 lb=2:    455 shell pairs
          la=3 lb=0:   1105 shell pairs
          la=3 lb=1:    525 shell pairs
          la=3 lb=2:    291 shell pairs
          la=3 lb=3:     55 shell pairs

Calculating one electron integrals          ... done (  0.5 sec)
Calculating RI/J V-Matrix + Cholesky decomp.... done (  0.1 sec)
Calculating RI/C V-Matrix + Cholesky decomp.... done (  0.2 sec)
Calculating Nuclear repulsion               ... done (  0.0 sec) ENN=    682.250720776388 Eh

SHARK setup successfully completed in   2.8 seconds

Maximum memory used throughout the entire GTOINT-calculation: 194.5 MB
-------------------------------------------------------------------------------
                                 ORCA SCF
-------------------------------------------------------------------------------

------------
SCF SETTINGS
------------
Hamiltonian:
 Ab initio Hamiltonian  Method          .... Hartree-Fock(GTOs)
 RI-approximation to the Coulomb term is turned on
   Number of AuxJ basis functions       .... 673
   RIJ-COSX (HFX calculated with COS-X)).... on


General Settings:
 Integral files         IntName         .... UHF-RI
 Hartree-Fock type      HFTyp           .... UHF
 Total Charge           Charge          ....    0
 Multiplicity           Mult            ....    1
 Number of Electrons    NEL             ....   92
 Basis Dimension        Dim             ....  502
 Nuclear Repulsion      ENuc            ....    682.2507207764 Eh

Convergence Acceleration:
 DIIS                   CNVDIIS         .... on
   Start iteration      DIISMaxIt       ....    12
   Startup error        DIISStart       ....  0.200000
   # of expansion vecs  DIISMaxEq       ....     5
   Bias factor          DIISBfac        ....   1.050
   Max. coefficient     DIISMaxC        ....  10.000
 Trust-Rad. Augm. Hess. CNVTRAH         .... auto
   Auto Start mean grad. ratio tolernc. ....  1.125000
   Auto Start start iteration           ....    20
   Auto Start num. interpolation iter.  ....    10
   Max. Number of Micro iterations      ....    16
   Max. Number of Macro iterations      .... Maxiter - #DIIS iter
   Number of Davidson start vectors     ....     2
   Converg. threshold I  (grad. norm)   ....   5.000e-05
   Converg. threshold II (energy diff.) ....   1.000e-06
   Grad. Scal. Fac. for Micro threshold ....   0.100
   Minimum threshold for Micro iter.    ....   0.010
   NR start threshold (gradient norm)   ....   0.001
   Initial trust radius                 ....   0.400
   Minimum AH scaling param. (alpha)    ....   1.000
   Maximum AH scaling param. (alpha)    .... 1000.000
   Orbital update algorithm             .... Taylor
   White noise on init. David. guess    .... on
   Maximum white noise                  ....   0.010
   Quad. conv. algorithm                .... NR
 SOSCF                  CNVSOSCF        .... off
 Level Shifting         CNVShift        .... on
   Level shift para.    LevelShift      ....    0.2500
   Turn off err/grad.   ShiftErr        ....    0.0010
 Zerner damping         CNVZerner       .... off
 Static damping         CNVDamp         .... on
   Fraction old density DampFac         ....    0.7000
   Max. Damping (<1)    DampMax         ....    0.9800
   Min. Damping (>=0)   DampMin         ....    0.0000
   Turn off err/grad.   DampErr         ....    0.1000
 Fernandez-Rico         CNVRico         .... off

SCF Procedure:
 Maximum # iterations   MaxIter         ....   125
 SCF integral mode      SCFMode         .... Direct
   Integral package                     .... SHARK and LIBINT hybrid scheme
 Reset frequency        DirectResetFreq ....    20
 Integral Threshold     Thresh          ....  1.000e-10 Eh
 Primitive CutOff       TCut            ....  1.000e-11 Eh

Convergence Tolerance:
 Convergence Check Mode ConvCheckMode   .... Total+1el-Energy
 Convergence forced     ConvForced      .... 0
 Energy Change          TolE            ....  1.000e-06 Eh
 1-El. energy change                    ....  1.000e-03 Eh
 DIIS Error             TolErr          ....  1.000e-06


Diagonalization of the overlap matrix:
Smallest eigenvalue                        ... 1.066e-04
Time for diagonalization                   ...    0.092 sec
Threshold for overlap eigenvalues          ... 1.000e-08
Number of eigenvalues below threshold      ... 0
Time for construction of square roots      ...    0.057 sec
Total time needed                          ...    0.150 sec

Time for model grid setup =    1.701 sec

------------------------------
INITIAL GUESS: MODEL POTENTIAL
------------------------------
Loading Hartree-Fock densities                     ... done
Calculating cut-offs                               ... done
Initializing the effective Hamiltonian             ... done
Setting up the integral package (SHARK)            ... done
Starting the Coulomb interaction                   ... done (   3.5 sec)
Reading the grid                                   ... done
Mapping shells                                     ... done
Starting the XC term evaluation                    ... done (   1.3 sec)
Transforming the Hamiltonian                       ... done (   0.0 sec)
Diagonalizing the Hamiltonian                      ... done (   0.1 sec)
Back transforming the eigenvectors                 ... done (   0.0 sec)
Now organizing SCF variables                       ... done
                      ------------------
                      INITIAL GUESS DONE (   6.7 sec)
                      ------------------
--------------------
COSX GRID GENERATION
--------------------

GRIDX 1
-------
General Integration Accuracy     IntAcc      ... 3.816
Radial Grid Type                 RadialGrid  ... OptM3 with GC (2021)
Angular Grid (max. ang.)         AngularGrid ... 1 (Lebedev-50)
Angular grid pruning method      GridPruning ... 4 (adaptive)
Weight generation scheme         WeightScheme... Becke
Basis function cutoff            BFCut       ... 1.0000e-10
Integration weight cutoff        WCut        ... 1.0000e-14
Angular grids for H and He will be reduced by one unit
Partially contracted basis set               ... on
Rotationally invariant grid construction     ... off

Total number of grid points                  ...    13407
Total number of batches                      ...      223
Average number of points per batch           ...       60
Average number of grid points per atom       ...      583
UseSFitting                                  ... on

GRIDX 2
-------
General Integration Accuracy     IntAcc      ... 4.020
Radial Grid Type                 RadialGrid  ... OptM3 with GC (2021)
Angular Grid (max. ang.)         AngularGrid ... 2 (Lebedev-110)
Angular grid pruning method      GridPruning ... 4 (adaptive)
Weight generation scheme         WeightScheme... Becke
Basis function cutoff            BFCut       ... 1.0000e-10
Integration weight cutoff        WCut        ... 1.0000e-14
Angular grids for H and He will be reduced by one unit
Partially contracted basis set               ... on
Rotationally invariant grid construction     ... off

Total number of grid points                  ...    28758
Total number of batches                      ...      461
Average number of points per batch           ...       62
Average number of grid points per atom       ...     1250
UseSFitting                                  ... on

GRIDX 3
-------
General Integration Accuracy     IntAcc      ... 4.338
Radial Grid Type                 RadialGrid  ... OptM3 with GC (2021)
Angular Grid (max. ang.)         AngularGrid ... 3 (Lebedev-194)
Angular grid pruning method      GridPruning ... 4 (adaptive)
Weight generation scheme         WeightScheme... Becke
Basis function cutoff            BFCut       ... 1.0000e-10
Integration weight cutoff        WCut        ... 1.0000e-14
Angular grids for H and He will be reduced by one unit
Partially contracted basis set               ... on
Rotationally invariant grid construction     ... off

Total number of grid points                  ...    63503
Total number of batches                      ...     1005
Average number of points per batch           ...       63
Average number of grid points per atom       ...     2761
UseSFitting                                  ... on

Time for X-Grid setup             =    7.389 sec

 re-compute Schwartz prescreening matrix in partically contracted basis (1) ...done (   0.625 sec)
--------------
SCF ITERATIONS
--------------
ITER       Energy         Delta-E        Max-DP      RMS-DP      [F,P]     Damp
               ***  Starting incremental Fock matrix formation  ***
  0   -898.4032731065   0.000000000000 0.02382829  0.00027382  0.1540978 0.7000
  1   -898.5690506863  -0.165777579889 0.01718973  0.00021865  0.0935560 0.7000
                               ***Turning on DIIS***
  2   -898.6706244437  -0.101573757317 0.04057287  0.00046430  0.0546306 0.0000
  3   -898.1017945511   0.568829892577 0.02245967  0.00017380  0.0274472 0.0000
  4   -898.9087394167  -0.806944865597 0.00819378  0.00006532  0.0057862 0.0000
  5   -898.8791007335   0.029638683226 0.00370955  0.00003613  0.0029447 0.0000
  6   -898.8835744848  -0.004473751346 0.00196314  0.00001971  0.0013074 0.0000
  7   -898.8900974022  -0.006522917436 0.00118731  0.00001260  0.0005026 0.0000
               *** Restarting incremental Fock matrix formation ***
                                   *** Resetting DIIS ***
  8   -898.8877224882   0.002374914039 0.00039561  0.00000724  0.0002720 0.0000
  9   -898.8877245016  -0.000002013373 0.00012465  0.00000154  0.0001273 0.0000
 10   -898.8877268787  -0.000002377115 0.00007378  0.00000095  0.0001132 0.0000
 11   -898.8878092220  -0.000082343352 0.00004822  0.00000053  0.0000430 0.0000
 12   -898.8876540926   0.000155129435 0.00000760  0.00000008  0.0000171 0.0000
 13   -898.8877450965  -0.000091003884 0.00000303  0.00000005  0.0000053 0.0000
                            ***DIIS convergence achieved***

               *****************************************************
               *                     SUCCESS                       *
               *           SCF CONVERGED AFTER  14 CYCLES          *
               *****************************************************

Old exchange energy                            =    -88.256021616 Eh
New exchange energy                            =    -88.256087918 Eh
Exchange energy change after final integration =     -0.000066301 Eh
Total energy after final integration           =   -898.887792180 Eh
Final COS-X integration done in                =   190.416 sec

----------------
TOTAL SCF ENERGY
----------------

Total Energy       :         -898.88779218 Eh          -24459.98035 eV

Components:
Nuclear Repulsion  :          682.25072078 Eh           18564.98594 eV
Electronic Energy  :        -1581.13851296 Eh          -43024.96628 eV
One Electron Energy:        -2587.47214017 Eh          -70408.69644 eV
Two Electron Energy:         1006.33362721 Eh           27383.73016 eV
Max COSX asymmetry :            0.00000310 Eh               0.00008 eV

Virial components:
Potential Energy   :        -1796.93616856 Eh          -48897.11903 eV
Kinetic Energy     :          898.04837638 Eh           24437.13868 eV
Virial Ratio       :            2.00093471


---------------
SCF CONVERGENCE
---------------

  Last Energy change         ...    1.9218e-05  Tolerance :   1.0000e-06
  Last MAX-Density change    ...    0.0000e+00  Tolerance :   1.0000e-05
  Last RMS-Density change    ...    0.0000e+00  Tolerance :   1.0000e-06
  Last DIIS Error            ...    8.7083e-07  Tolerance :   1.0000e-06

             **** THE GBW FILE WAS UPDATED (UHF-RI.gbw) ****
             **** DENSITY UHF-RI.scfp WAS UPDATED ****
             **** ENERGY FILE WAS UPDATED (UHF-RI.en.tmp) ****
----------------------
UHF SPIN CONTAMINATION
----------------------

Expectation value of <S**2>     :     0.000000
Ideal value S*(S+1) for S=0.0   :     0.000000
Deviation                       :     0.000000

             **** THE GBW FILE WAS UPDATED (UHF-RI.gbw) ****
             **** DENSITY UHF-RI.scfp WAS UPDATED ****
----------------
ORBITAL ENERGIES
----------------
                 SPIN UP ORBITALS
  NO   OCC          E(Eh)            E(eV) 
   0   1.0000    -104.819564     -2852.2853 
   1   1.0000     -20.550645      -559.2115 
   2   1.0000     -15.555588      -423.2891 
   3   1.0000     -11.337735      -308.5155 
   4   1.0000     -11.298212      -307.4400 
   5   1.0000     -11.280191      -306.9496 
   6   1.0000     -11.268872      -306.6416 
   7   1.0000     -11.249236      -306.1073 
   8   1.0000     -11.243200      -305.9430 
   9   1.0000     -11.240557      -305.8711 
  10   1.0000     -11.232801      -305.6600 
  11   1.0000     -10.544352      -286.9264 
  12   1.0000      -8.011147      -217.9944 
  13   1.0000      -8.009396      -217.9467 
  14   1.0000      -8.009361      -217.9458 
  15   1.0000      -1.394848       -37.9558 
  16   1.0000      -1.241668       -33.7875 
  17   1.0000      -1.129537       -30.7363 
  18   1.0000      -1.077606       -29.3231 
  19   1.0000      -1.057934       -28.7879 
  20   1.0000      -0.981999       -26.7216 
  21   1.0000      -0.941653       -25.6237 
  22   1.0000      -0.914703       -24.8903 
  23   1.0000      -0.808194       -21.9921 
  24   1.0000      -0.745886       -20.2966 
  25   1.0000      -0.732038       -19.9198 
  26   1.0000      -0.702659       -19.1203 
  27   1.0000      -0.662245       -18.0206 
  28   1.0000      -0.652113       -17.7449 
  29   1.0000      -0.630876       -17.1670 
  30   1.0000      -0.622517       -16.9395 
  31   1.0000      -0.597154       -16.2494 
  32   1.0000      -0.591684       -16.1005 
  33   1.0000      -0.573710       -15.6114 
  34   1.0000      -0.552554       -15.0358 
  35   1.0000      -0.549699       -14.9581 
  36   1.0000      -0.542531       -14.7630 
  37   1.0000      -0.519338       -14.1319 
  38   1.0000      -0.514041       -13.9878 
  39   1.0000      -0.503205       -13.6929 
  40   1.0000      -0.486891       -13.2490 
  41   1.0000      -0.442001       -12.0275 
  42   1.0000      -0.431745       -11.7484 
  43   1.0000      -0.412002       -11.2112 
  44   1.0000      -0.393339       -10.7033 
  45   1.0000      -0.345126        -9.3914 
  46   0.0000       0.122809         3.3418 
  47   0.0000       0.136184         3.7058 
  48   0.0000       0.139324         3.7912 
  49   0.0000       0.146475         3.9858 
  50   0.0000       0.156989         4.2719 
  51   0.0000       0.165178         4.4947 
  52   0.0000       0.181880         4.9492 
  53   0.0000       0.190642         5.1876 
  54   0.0000       0.201996         5.4966 
  55   0.0000       0.207203         5.6383 
  56   0.0000       0.214203         5.8288 
  57   0.0000       0.218064         5.9338 
  58   0.0000       0.224502         6.1090 
  59   0.0000       0.234722         6.3871 
  60   0.0000       0.261021         7.1027 
  61   0.0000       0.278653         7.5825 
  62   0.0000       0.298804         8.1309 
  63   0.0000       0.309364         8.4182 
  64   0.0000       0.318128         8.6567 
  65   0.0000       0.330690         8.9985 
  66   0.0000       0.345429         9.3996 
  67   0.0000       0.354045         9.6340 
  68   0.0000       0.363686         9.8964 
  69   0.0000       0.376365        10.2414 
  70   0.0000       0.385628        10.4935 
  71   0.0000       0.428532        11.6609 
  72   0.0000       0.430029        11.7017 
  73   0.0000       0.445715        12.1285 
  74   0.0000       0.446565        12.1516 
  75   0.0000       0.455321        12.3899 
  76   0.0000       0.470204        12.7949 
  77   0.0000       0.485242        13.2041 
  78   0.0000       0.489311        13.3148 
  79   0.0000       0.493758        13.4358 
  80   0.0000       0.509178        13.8554 
  81   0.0000       0.527685        14.3590 
  82   0.0000       0.536392        14.5960 
  83   0.0000       0.540680        14.7126 
  84   0.0000       0.546436        14.8693 
  85   0.0000       0.555937        15.1278 
  86   0.0000       0.563540        15.3347 
  87   0.0000       0.573080        15.5943 
  88   0.0000       0.578682        15.7467 
  89   0.0000       0.583496        15.8777 
  90   0.0000       0.590050        16.0561 
  91   0.0000       0.597261        16.2523 
  92   0.0000       0.603096        16.4111 
  93   0.0000       0.613493        16.6940 
  94   0.0000       0.619875        16.8677 
  95   0.0000       0.624623        16.9969 
  96   0.0000       0.629475        17.1289 
  97   0.0000       0.634935        17.2775 
  98   0.0000       0.642567        17.4851 
  99   0.0000       0.650653        17.7052 
 100   0.0000       0.656092        17.8532 
 101   0.0000       0.661124        17.9901 
 102   0.0000       0.672029        18.2868 
 103   0.0000       0.675609        18.3843 
 104   0.0000       0.694264        18.8919 
 105   0.0000       0.696983        18.9659 
 106   0.0000       0.703189        19.1347 
 107   0.0000       0.707849        19.2616 
 108   0.0000       0.727496        19.7962 
 109   0.0000       0.728164        19.8144 
 110   0.0000       0.741649        20.1813 
 111   0.0000       0.747391        20.3375 
 112   0.0000       0.758284        20.6340 
 113   0.0000       0.763846        20.7853 
 114   0.0000       0.780333        21.2339 
 115   0.0000       0.802471        21.8363 
 116   0.0000       0.809844        22.0370 
 117   0.0000       0.829911        22.5830 
 118   0.0000       0.843033        22.9401 
 119   0.0000       0.863159        23.4877 
 120   0.0000       0.871228        23.7073 
 121   0.0000       0.886574        24.1249 
 122   0.0000       0.914259        24.8783 
 123   0.0000       0.921608        25.0782 
 124   0.0000       0.929347        25.2888 
 125   0.0000       0.947446        25.7813 
 126   0.0000       0.956868        26.0377 
 127   0.0000       0.976064        26.5601 
 128   0.0000       0.986219        26.8364 
 129   0.0000       1.000092        27.2139 
 130   0.0000       1.004719        27.3398 
 131   0.0000       1.019339        27.7376 
 132   0.0000       1.022303        27.8183 
 133   0.0000       1.031916        28.0799 
 134   0.0000       1.048189        28.5227 
 135   0.0000       1.072832        29.1933 
 136   0.0000       1.081197        29.4209 
 137   0.0000       1.097677        29.8693 
 138   0.0000       1.123752        30.5789 
 139   0.0000       1.130576        30.7645 
 140   0.0000       1.145322        31.1658 
 141   0.0000       1.150772        31.3141 
 142   0.0000       1.157900        31.5081 
 143   0.0000       1.175457        31.9858 
 144   0.0000       1.185492        32.2589 
 145   0.0000       1.195249        32.5244 
 146   0.0000       1.208067        32.8732 
 147   0.0000       1.214726        33.0544 
 148   0.0000       1.235292        33.6140 
 149   0.0000       1.238668        33.7059 
 150   0.0000       1.243603        33.8402 
 151   0.0000       1.251870        34.0651 
 152   0.0000       1.271385        34.5962 
 153   0.0000       1.280044        34.8318 
 154   0.0000       1.289642        35.0930 
 155   0.0000       1.305401        35.5218 
 156   0.0000       1.313894        35.7529 
 157   0.0000       1.321736        35.9663 
 158   0.0000       1.342107        36.5206 
 159   0.0000       1.350652        36.7531 
 160   0.0000       1.368462        37.2377 
 161   0.0000       1.374192        37.3937 
 162   0.0000       1.388040        37.7705 
 163   0.0000       1.397113        38.0174 
 164   0.0000       1.400461        38.1085 
 165   0.0000       1.411681        38.4138 
 166   0.0000       1.414426        38.4885 
 167   0.0000       1.427438        38.8426 
 168   0.0000       1.439294        39.1652 
 169   0.0000       1.464948        39.8633 
 170   0.0000       1.471802        40.0498 
 171   0.0000       1.474401        40.1205 
 172   0.0000       1.478698        40.2374 
 173   0.0000       1.496470        40.7210 
 174   0.0000       1.510931        41.1145 
 175   0.0000       1.516778        41.2736 
 176   0.0000       1.525285        41.5051 
 177   0.0000       1.536506        41.8105 
 178   0.0000       1.552147        42.2361 
 179   0.0000       1.555942        42.3393 
 180   0.0000       1.565262        42.5930 
 181   0.0000       1.572529        42.7907 
 182   0.0000       1.576937        42.9106 
 183   0.0000       1.591072        43.2953 
 184   0.0000       1.601051        43.5668 
 185   0.0000       1.619724        44.0749 
 186   0.0000       1.630077        44.3567 
 187   0.0000       1.638365        44.5822 
 188   0.0000       1.642713        44.7005 
 189   0.0000       1.661493        45.2115 
 190   0.0000       1.681081        45.7445 
 191   0.0000       1.701862        46.3100 
 192   0.0000       1.709691        46.5231 
 193   0.0000       1.719263        46.7835 
 194   0.0000       1.728572        47.0368 
 195   0.0000       1.736499        47.2525 
 196   0.0000       1.784793        48.5667 
 197   0.0000       1.811361        49.2896 
 198   0.0000       1.821257        49.5589 
 199   0.0000       1.831414        49.8353 
 200   0.0000       1.853501        50.4363 
 201   0.0000       1.873722        50.9866 
 202   0.0000       1.906962        51.8911 
 203   0.0000       1.927655        52.4542 
 204   0.0000       1.979332        53.8604 
 205   0.0000       1.982062        53.9346 
 206   0.0000       1.995862        54.3102 
 207   0.0000       2.044110        55.6231 
 208   0.0000       2.081971        56.6533 
 209   0.0000       2.112849        57.4935 
 210   0.0000       2.151554        58.5468 
 211   0.0000       2.160562        58.7919 
 212   0.0000       2.210488        60.1504 
 213   0.0000       2.230617        60.6982 
 214   0.0000       2.261382        61.5353 
 215   0.0000       2.276169        61.9377 
 216   0.0000       2.289562        62.3022 
 217   0.0000       2.294967        62.4492 
 218   0.0000       2.311896        62.9099 
 219   0.0000       2.355478        64.0958 
 220   0.0000       2.363996        64.3276 
 221   0.0000       2.370716        64.5105 
 222   0.0000       2.404127        65.4196 
 223   0.0000       2.429394        66.1072 
 224   0.0000       2.430007        66.1239 
 225   0.0000       2.434586        66.2485 
 226   0.0000       2.444769        66.5255 
 227   0.0000       2.506294        68.1997 
 228   0.0000       2.547015        69.3078 
 229   0.0000       2.562571        69.7311 
 230   0.0000       2.567257        69.8586 
 231   0.0000       2.571063        69.9622 
 232   0.0000       2.593583        70.5750 
 233   0.0000       2.610238        71.0282 
 234   0.0000       2.624209        71.4083 
 235   0.0000       2.636167        71.7338 
 236   0.0000       2.645618        71.9909 
 237   0.0000       2.652626        72.1816 
 238   0.0000       2.678950        72.8979 
 239   0.0000       2.685975        73.0891 
 240   0.0000       2.691761        73.2465 
 241   0.0000       2.704270        73.5869 
 242   0.0000       2.710603        73.7592 
 243   0.0000       2.727550        74.2204 
 244   0.0000       2.750037        74.8323 
 245   0.0000       2.776159        75.5431 
 246   0.0000       2.778552        75.6082 
 247   0.0000       2.790622        75.9367 
 248   0.0000       2.820444        76.7482 
 249   0.0000       2.835221        77.1503 
 250   0.0000       2.861639        77.8692 
 251   0.0000       2.878485        78.3276 
 252   0.0000       2.897154        78.8356 
 253   0.0000       2.912688        79.2583 
 254   0.0000       2.919484        79.4432 
 255   0.0000       2.931877        79.7804 
 256   0.0000       2.945822        80.1599 
 257   0.0000       2.963015        80.6277 
 258   0.0000       2.977951        81.0342 
 259   0.0000       3.000429        81.6458 
 260   0.0000       3.004462        81.7556 
 261   0.0000       3.012683        81.9793 
 262   0.0000       3.024830        82.3098 
 263   0.0000       3.038973        82.6947 
 264   0.0000       3.048629        82.9574 
 265   0.0000       3.061343        83.3034 
 266   0.0000       3.067571        83.4728 
 267   0.0000       3.088810        84.0508 
 268   0.0000       3.099282        84.3358 
 269   0.0000       3.104105        84.4670 
 270   0.0000       3.109051        84.6016 
 271   0.0000       3.134043        85.2816 
 272   0.0000       3.139596        85.4327 
 273   0.0000       3.159783        85.9821 
 274   0.0000       3.173201        86.3472 
 275   0.0000       3.184575        86.6567 
 276   0.0000       3.198209        87.0277 
 277   0.0000       3.212861        87.4264 
 278   0.0000       3.217714        87.5585 
 279   0.0000       3.239241        88.1442 
 280   0.0000       3.250629        88.4541 
 281   0.0000       3.252041        88.4925 
 282   0.0000       3.274074        89.0921 
 283   0.0000       3.285736        89.4094 
 284   0.0000       3.300813        89.8197 
 285   0.0000       3.306859        89.9842 
 286   0.0000       3.309645        90.0600 
 287   0.0000       3.315536        90.2203 
 288   0.0000       3.336093        90.7797 
 289   0.0000       3.340514        90.9000 
 290   0.0000       3.346463        91.0619 
 291   0.0000       3.356317        91.3300 
 292   0.0000       3.357526        91.3629 
 293   0.0000       3.383990        92.0831 
 294   0.0000       3.395256        92.3896 
 295   0.0000       3.398738        92.4844 
 296   0.0000       3.401386        92.5564 
 297   0.0000       3.416337        92.9633 
 298   0.0000       3.428810        93.3027 
 299   0.0000       3.436816        93.5205 
 300   0.0000       3.444488        93.7293 
 301   0.0000       3.456689        94.0613 
 302   0.0000       3.462111        94.2088 
 303   0.0000       3.482928        94.7753 
 304   0.0000       3.493083        95.0516 
 305   0.0000       3.504004        95.3488 
 306   0.0000       3.506111        95.4061 
 307   0.0000       3.514010        95.6211 
 308   0.0000       3.514898        95.6452 
 309   0.0000       3.538457        96.2863 
 310   0.0000       3.551917        96.6526 
 311   0.0000       3.565468        97.0213 
 312   0.0000       3.580653        97.4345 
 313   0.0000       3.583545        97.5132 
 314   0.0000       3.607098        98.1541 
 315   0.0000       3.626285        98.6762 
 316   0.0000       3.631760        98.8252 
 317   0.0000       3.638111        98.9980 
 318   0.0000       3.645953        99.2114 
 319   0.0000       3.658960        99.5654 
 320   0.0000       3.689386       100.3933 
 321   0.0000       3.706659       100.8633 
 322   0.0000       3.711812       101.0035 
 323   0.0000       3.714434       101.0749 
 324   0.0000       3.732207       101.5585 
 325   0.0000       3.744322       101.8882 
 326   0.0000       3.751210       102.0756 
 327   0.0000       3.759903       102.3122 
 328   0.0000       3.772052       102.6428 
 329   0.0000       3.780588       102.8750 
 330   0.0000       3.793488       103.2261 
 331   0.0000       3.815608       103.8280 
 332   0.0000       3.823536       104.0437 
 333   0.0000       3.833002       104.3013 
 334   0.0000       3.844213       104.6063 
 335   0.0000       3.851308       104.7994 
 336   0.0000       3.857110       104.9573 
 337   0.0000       3.877091       105.5010 
 338   0.0000       3.885379       105.7265 
 339   0.0000       3.897295       106.0508 
 340   0.0000       3.916679       106.5783 
 341   0.0000       3.927865       106.8826 
 342   0.0000       3.935658       107.0947 
 343   0.0000       3.963242       107.8453 
 344   0.0000       3.972409       108.0947 
 345   0.0000       3.992281       108.6355 
 346   0.0000       3.994314       108.6908 
 347   0.0000       4.016127       109.2844 
 348   0.0000       4.044533       110.0573 
 349   0.0000       4.051514       110.2473 
 350   0.0000       4.058306       110.4321 
 351   0.0000       4.076876       110.9374 
 352   0.0000       4.081030       111.0505 
 353   0.0000       4.093132       111.3798 
 354   0.0000       4.105905       111.7274 
 355   0.0000       4.120861       112.1343 
 356   0.0000       4.134183       112.4968 
 357   0.0000       4.143327       112.7457 
 358   0.0000       4.145902       112.8157 
 359   0.0000       4.158137       113.1487 
 360   0.0000       4.167131       113.3934 
 361   0.0000       4.182547       113.8129 
 362   0.0000       4.196980       114.2056 
 363   0.0000       4.204117       114.3998 
 364   0.0000       4.211231       114.5934 
 365   0.0000       4.217519       114.7645 
 366   0.0000       4.237637       115.3120 
 367   0.0000       4.242157       115.4350 
 368   0.0000       4.258376       115.8763 
 369   0.0000       4.265414       116.0678 
 370   0.0000       4.286555       116.6431 
 371   0.0000       4.298229       116.9607 
 372   0.0000       4.307026       117.2001 
 373   0.0000       4.316061       117.4460 
 374   0.0000       4.321658       117.5983 
 375   0.0000       4.335682       117.9799 
 376   0.0000       4.340617       118.1142 
 377   0.0000       4.362476       118.7090 
 378   0.0000       4.369580       118.9023 
 379   0.0000       4.383840       119.2904 
 380   0.0000       4.396542       119.6360 
 381   0.0000       4.410027       120.0029 
 382   0.0000       4.419434       120.2589 
 383   0.0000       4.425735       120.4304 
 384   0.0000       4.438102       120.7669 
 385   0.0000       4.451926       121.1431 
 386   0.0000       4.470163       121.6393 
 387   0.0000       4.478599       121.8689 
 388   0.0000       4.494184       122.2930 
 389   0.0000       4.508198       122.6743 
 390   0.0000       4.525472       123.1443 
 391   0.0000       4.544302       123.6567 
 392   0.0000       4.545962       123.7019 
 393   0.0000       4.557788       124.0237 
 394   0.0000       4.573083       124.4399 
 395   0.0000       4.586736       124.8114 
 396   0.0000       4.615363       125.5904 
 397   0.0000       4.629344       125.9708 
 398   0.0000       4.637213       126.1850 
 399   0.0000       4.662813       126.8816 
 400   0.0000       4.671759       127.1250 
 401   0.0000       4.681734       127.3965 
 402   0.0000       4.713635       128.2645 
 403   0.0000       4.721224       128.4710 
 404   0.0000       4.731893       128.7614 
 405   0.0000       4.750303       129.2623 
 406   0.0000       4.767355       129.7263 
 407   0.0000       4.793047       130.4255 
 408   0.0000       4.815616       131.0396 
 409   0.0000       4.856795       132.1601 
 410   0.0000       4.863493       132.3424 
 411   0.0000       4.884523       132.9146 
 412   0.0000       4.906033       133.4999 
 413   0.0000       4.945155       134.5645 
 414   0.0000       4.959933       134.9666 
 415   0.0000       4.980567       135.5281 
 416   0.0000       4.992717       135.8587 
 417   0.0000       5.011926       136.3814 
 418   0.0000       5.047173       137.3406 
 419   0.0000       5.053016       137.4996 
 420   0.0000       5.073502       138.0570 
 421   0.0000       5.082350       138.2978 
 422   0.0000       5.103950       138.8855 
 423   0.0000       5.117256       139.2476 
 424   0.0000       5.137800       139.8067 
 425   0.0000       5.167297       140.6093 
 426   0.0000       5.171774       140.7311 
 427   0.0000       5.199763       141.4928 
 428   0.0000       5.215912       141.9322 
 429   0.0000       5.235403       142.4626 
 430   0.0000       5.244740       142.7166 
 431   0.0000       5.280576       143.6918 
 432   0.0000       5.294218       144.0630 
 433   0.0000       5.323118       144.8494 
 434   0.0000       5.329489       145.0228 
 435   0.0000       5.354012       145.6901 
 436   0.0000       5.365761       146.0098 
 437   0.0000       5.368645       146.0882 
 438   0.0000       5.392036       146.7248 
 439   0.0000       5.410650       147.2313 
 440   0.0000       5.454389       148.4215 
 441   0.0000       5.461364       148.6113 
 442   0.0000       5.475633       148.9996 
 443   0.0000       5.487330       149.3178 
 444   0.0000       5.521054       150.2355 
 445   0.0000       5.526426       150.3817 
 446   0.0000       5.536211       150.6480 
 447   0.0000       5.554139       151.1358 
 448   0.0000       5.581886       151.8908 
 449   0.0000       5.595983       152.2744 
 450   0.0000       5.613378       152.7478 
 451   0.0000       5.619110       152.9038 
 452   0.0000       5.630322       153.2089 
 453   0.0000       5.639701       153.4641 
 454   0.0000       5.659627       154.0063 
 455   0.0000       5.665167       154.1570 
 456   0.0000       5.672971       154.3694 
 457   0.0000       5.690446       154.8449 
 458   0.0000       5.702406       155.1704 
 459   0.0000       5.753665       156.5652 
 460   0.0000       5.765981       156.9003 
 461   0.0000       5.800289       157.8339 
 462   0.0000       5.834980       158.7779 
 463   0.0000       5.856776       159.3710 
 464   0.0000       5.896842       160.4612 
 465   0.0000       5.981485       162.7645 
 466   0.0000       6.003519       163.3641 
 467   0.0000       6.035767       164.2416 
 468   0.0000       6.083403       165.5378 
 469   0.0000       6.091306       165.7529 
 470   0.0000       6.144084       167.1890 
 471   0.0000       6.165996       167.7853 
 472   0.0000       6.180385       168.1768 
 473   0.0000       6.218939       169.2259 
 474   0.0000       6.231156       169.5584 
 475   0.0000       6.251153       170.1025 
 476   0.0000       6.278538       170.8477 
 477   0.0000       6.321258       172.0102 
 478   0.0000       6.345258       172.6632 
 479   0.0000       6.379419       173.5928 
 480   0.0000       6.435076       175.1073 
 481   0.0000       6.455065       175.6512 
 482   0.0000       6.551637       178.2791 
 483   0.0000       6.749940       183.6752 
 484   0.0000       6.806675       185.2190 
 485   0.0000       6.936427       188.7498 
 486   0.0000       6.997610       190.4146 
 487   0.0000       7.062977       192.1934 
 488   0.0000       7.146506       194.4663 
 489   0.0000       7.377856       200.7617 
 490   0.0000       7.544205       205.2882 
 491   0.0000       7.580739       206.2824 
 492   0.0000       9.608202       261.4525 
 493   0.0000      10.019022       272.6314 
 494   0.0000      12.072094       328.4984 
 495   0.0000      12.589128       342.5676 
 496   0.0000      12.938517       352.0749 
 497   0.0000      13.557942       368.9304 
 498   0.0000      13.636336       371.0636 
 499   0.0000      14.160300       385.3214 
 500   0.0000      14.280256       388.5855 
 501   0.0000      14.601129       397.3169 

                 SPIN DOWN ORBITALS
  NO   OCC          E(Eh)            E(eV) 
   0   1.0000    -104.819564     -2852.2853 
   1   1.0000     -20.550645      -559.2115 
   2   1.0000     -15.555588      -423.2891 
   3   1.0000     -11.337735      -308.5155 
   4   1.0000     -11.298212      -307.4400 
   5   1.0000     -11.280191      -306.9496 
   6   1.0000     -11.268872      -306.6416 
   7   1.0000     -11.249236      -306.1073 
   8   1.0000     -11.243200      -305.9430 
   9   1.0000     -11.240557      -305.8711 
  10   1.0000     -11.232801      -305.6600 
  11   1.0000     -10.544352      -286.9264 
  12   1.0000      -8.011147      -217.9944 
  13   1.0000      -8.009396      -217.9467 
  14   1.0000      -8.009361      -217.9458 
  15   1.0000      -1.394848       -37.9558 
  16   1.0000      -1.241668       -33.7875 
  17   1.0000      -1.129537       -30.7363 
  18   1.0000      -1.077606       -29.3231 
  19   1.0000      -1.057934       -28.7879 
  20   1.0000      -0.981999       -26.7216 
  21   1.0000      -0.941653       -25.6237 
  22   1.0000      -0.914703       -24.8903 
  23   1.0000      -0.808194       -21.9921 
  24   1.0000      -0.745886       -20.2966 
  25   1.0000      -0.732038       -19.9198 
  26   1.0000      -0.702659       -19.1203 
  27   1.0000      -0.662245       -18.0206 
  28   1.0000      -0.652113       -17.7449 
  29   1.0000      -0.630876       -17.1670 
  30   1.0000      -0.622517       -16.9395 
  31   1.0000      -0.597154       -16.2494 
  32   1.0000      -0.591684       -16.1005 
  33   1.0000      -0.573710       -15.6114 
  34   1.0000      -0.552554       -15.0358 
  35   1.0000      -0.549699       -14.9581 
  36   1.0000      -0.542531       -14.7630 
  37   1.0000      -0.519338       -14.1319 
  38   1.0000      -0.514041       -13.9878 
  39   1.0000      -0.503205       -13.6929 
  40   1.0000      -0.486891       -13.2490 
  41   1.0000      -0.442001       -12.0275 
  42   1.0000      -0.431745       -11.7484 
  43   1.0000      -0.412002       -11.2112 
  44   1.0000      -0.393339       -10.7033 
  45   1.0000      -0.345126        -9.3914 
  46   0.0000       0.122809         3.3418 
  47   0.0000       0.136184         3.7058 
  48   0.0000       0.139324         3.7912 
  49   0.0000       0.146475         3.9858 
  50   0.0000       0.156989         4.2719 
  51   0.0000       0.165178         4.4947 
  52   0.0000       0.181880         4.9492 
  53   0.0000       0.190642         5.1876 
  54   0.0000       0.201996         5.4966 
  55   0.0000       0.207203         5.6383 
  56   0.0000       0.214203         5.8288 
  57   0.0000       0.218064         5.9338 
  58   0.0000       0.224502         6.1090 
  59   0.0000       0.234722         6.3871 
  60   0.0000       0.261021         7.1027 
  61   0.0000       0.278653         7.5825 
  62   0.0000       0.298804         8.1309 
  63   0.0000       0.309364         8.4182 
  64   0.0000       0.318128         8.6567 
  65   0.0000       0.330690         8.9985 
  66   0.0000       0.345429         9.3996 
  67   0.0000       0.354045         9.6340 
  68   0.0000       0.363686         9.8964 
  69   0.0000       0.376365        10.2414 
  70   0.0000       0.385628        10.4935 
  71   0.0000       0.428532        11.6609 
  72   0.0000       0.430029        11.7017 
  73   0.0000       0.445715        12.1285 
  74   0.0000       0.446565        12.1516 
  75   0.0000       0.455321        12.3899 
  76   0.0000       0.470204        12.7949 
  77   0.0000       0.485242        13.2041 
  78   0.0000       0.489311        13.3148 
  79   0.0000       0.493758        13.4358 
  80   0.0000       0.509178        13.8554 
  81   0.0000       0.527685        14.3590 
  82   0.0000       0.536392        14.5960 
  83   0.0000       0.540680        14.7126 
  84   0.0000       0.546436        14.8693 
  85   0.0000       0.555937        15.1278 
  86   0.0000       0.563540        15.3347 
  87   0.0000       0.573080        15.5943 
  88   0.0000       0.578682        15.7467 
  89   0.0000       0.583496        15.8777 
  90   0.0000       0.590050        16.0561 
  91   0.0000       0.597261        16.2523 
  92   0.0000       0.603096        16.4111 
  93   0.0000       0.613493        16.6940 
  94   0.0000       0.619875        16.8677 
  95   0.0000       0.624623        16.9969 
  96   0.0000       0.629475        17.1289 
  97   0.0000       0.634935        17.2775 
  98   0.0000       0.642567        17.4851 
  99   0.0000       0.650653        17.7052 
 100   0.0000       0.656092        17.8532 
 101   0.0000       0.661124        17.9901 
 102   0.0000       0.672029        18.2868 
 103   0.0000       0.675609        18.3843 
 104   0.0000       0.694264        18.8919 
 105   0.0000       0.696983        18.9659 
 106   0.0000       0.703189        19.1347 
 107   0.0000       0.707849        19.2616 
 108   0.0000       0.727496        19.7962 
 109   0.0000       0.728164        19.8144 
 110   0.0000       0.741649        20.1813 
 111   0.0000       0.747391        20.3375 
 112   0.0000       0.758284        20.6340 
 113   0.0000       0.763846        20.7853 
 114   0.0000       0.780333        21.2339 
 115   0.0000       0.802471        21.8363 
 116   0.0000       0.809844        22.0370 
 117   0.0000       0.829911        22.5830 
 118   0.0000       0.843033        22.9401 
 119   0.0000       0.863159        23.4877 
 120   0.0000       0.871228        23.7073 
 121   0.0000       0.886574        24.1249 
 122   0.0000       0.914259        24.8783 
 123   0.0000       0.921608        25.0782 
 124   0.0000       0.929347        25.2888 
 125   0.0000       0.947446        25.7813 
 126   0.0000       0.956868        26.0377 
 127   0.0000       0.976064        26.5601 
 128   0.0000       0.986219        26.8364 
 129   0.0000       1.000092        27.2139 
 130   0.0000       1.004719        27.3398 
 131   0.0000       1.019339        27.7376 
 132   0.0000       1.022303        27.8183 
 133   0.0000       1.031916        28.0799 
 134   0.0000       1.048189        28.5227 
 135   0.0000       1.072832        29.1933 
 136   0.0000       1.081197        29.4209 
 137   0.0000       1.097677        29.8693 
 138   0.0000       1.123752        30.5789 
 139   0.0000       1.130576        30.7645 
 140   0.0000       1.145322        31.1658 
 141   0.0000       1.150772        31.3141 
 142   0.0000       1.157900        31.5081 
 143   0.0000       1.175457        31.9858 
 144   0.0000       1.185492        32.2589 
 145   0.0000       1.195249        32.5244 
 146   0.0000       1.208067        32.8732 
 147   0.0000       1.214726        33.0544 
 148   0.0000       1.235292        33.6140 
 149   0.0000       1.238668        33.7059 
 150   0.0000       1.243603        33.8402 
 151   0.0000       1.251870        34.0651 
 152   0.0000       1.271385        34.5962 
 153   0.0000       1.280044        34.8318 
 154   0.0000       1.289642        35.0930 
 155   0.0000       1.305401        35.5218 
 156   0.0000       1.313894        35.7529 
 157   0.0000       1.321736        35.9663 
 158   0.0000       1.342107        36.5206 
 159   0.0000       1.350652        36.7531 
 160   0.0000       1.368462        37.2377 
 161   0.0000       1.374192        37.3937 
 162   0.0000       1.388040        37.7705 
 163   0.0000       1.397113        38.0174 
 164   0.0000       1.400461        38.1085 
 165   0.0000       1.411681        38.4138 
 166   0.0000       1.414426        38.4885 
 167   0.0000       1.427438        38.8426 
 168   0.0000       1.439294        39.1652 
 169   0.0000       1.464948        39.8633 
 170   0.0000       1.471802        40.0498 
 171   0.0000       1.474401        40.1205 
 172   0.0000       1.478698        40.2374 
 173   0.0000       1.496470        40.7210 
 174   0.0000       1.510931        41.1145 
 175   0.0000       1.516778        41.2736 
 176   0.0000       1.525285        41.5051 
 177   0.0000       1.536506        41.8105 
 178   0.0000       1.552147        42.2361 
 179   0.0000       1.555942        42.3393 
 180   0.0000       1.565262        42.5930 
 181   0.0000       1.572529        42.7907 
 182   0.0000       1.576937        42.9106 
 183   0.0000       1.591072        43.2953 
 184   0.0000       1.601051        43.5668 
 185   0.0000       1.619724        44.0749 
 186   0.0000       1.630077        44.3567 
 187   0.0000       1.638365        44.5822 
 188   0.0000       1.642713        44.7005 
 189   0.0000       1.661493        45.2115 
 190   0.0000       1.681081        45.7445 
 191   0.0000       1.701862        46.3100 
 192   0.0000       1.709691        46.5231 
 193   0.0000       1.719263        46.7835 
 194   0.0000       1.728572        47.0368 
 195   0.0000       1.736499        47.2525 
 196   0.0000       1.784793        48.5667 
 197   0.0000       1.811361        49.2896 
 198   0.0000       1.821257        49.5589 
 199   0.0000       1.831414        49.8353 
 200   0.0000       1.853501        50.4363 
 201   0.0000       1.873722        50.9866 
 202   0.0000       1.906962        51.8911 
 203   0.0000       1.927655        52.4542 
 204   0.0000       1.979332        53.8604 
 205   0.0000       1.982062        53.9346 
 206   0.0000       1.995862        54.3102 
 207   0.0000       2.044110        55.6231 
 208   0.0000       2.081971        56.6533 
 209   0.0000       2.112849        57.4935 
 210   0.0000       2.151554        58.5468 
 211   0.0000       2.160562        58.7919 
 212   0.0000       2.210488        60.1504 
 213   0.0000       2.230617        60.6982 
 214   0.0000       2.261382        61.5353 
 215   0.0000       2.276169        61.9377 
 216   0.0000       2.289562        62.3022 
 217   0.0000       2.294967        62.4492 
 218   0.0000       2.311896        62.9099 
 219   0.0000       2.355478        64.0958 
 220   0.0000       2.363996        64.3276 
 221   0.0000       2.370716        64.5105 
 222   0.0000       2.404127        65.4196 
 223   0.0000       2.429394        66.1072 
 224   0.0000       2.430007        66.1239 
 225   0.0000       2.434586        66.2485 
 226   0.0000       2.444769        66.5255 
 227   0.0000       2.506294        68.1997 
 228   0.0000       2.547015        69.3078 
 229   0.0000       2.562571        69.7311 
 230   0.0000       2.567257        69.8586 
 231   0.0000       2.571063        69.9622 
 232   0.0000       2.593583        70.5750 
 233   0.0000       2.610238        71.0282 
 234   0.0000       2.624209        71.4083 
 235   0.0000       2.636167        71.7338 
 236   0.0000       2.645618        71.9909 
 237   0.0000       2.652626        72.1816 
 238   0.0000       2.678950        72.8979 
 239   0.0000       2.685975        73.0891 
 240   0.0000       2.691761        73.2465 
 241   0.0000       2.704270        73.5869 
 242   0.0000       2.710603        73.7592 
 243   0.0000       2.727550        74.2204 
 244   0.0000       2.750037        74.8323 
 245   0.0000       2.776159        75.5431 
 246   0.0000       2.778552        75.6082 
 247   0.0000       2.790622        75.9367 
 248   0.0000       2.820444        76.7482 
 249   0.0000       2.835221        77.1503 
 250   0.0000       2.861639        77.8692 
 251   0.0000       2.878485        78.3276 
 252   0.0000       2.897154        78.8356 
 253   0.0000       2.912688        79.2583 
 254   0.0000       2.919484        79.4432 
 255   0.0000       2.931877        79.7804 
 256   0.0000       2.945822        80.1599 
 257   0.0000       2.963015        80.6277 
 258   0.0000       2.977951        81.0342 
 259   0.0000       3.000429        81.6458 
 260   0.0000       3.004462        81.7556 
 261   0.0000       3.012683        81.9793 
 262   0.0000       3.024830        82.3098 
 263   0.0000       3.038973        82.6947 
 264   0.0000       3.048629        82.9574 
 265   0.0000       3.061343        83.3034 
 266   0.0000       3.067571        83.4728 
 267   0.0000       3.088810        84.0508 
 268   0.0000       3.099282        84.3358 
 269   0.0000       3.104105        84.4670 
 270   0.0000       3.109051        84.6016 
 271   0.0000       3.134043        85.2816 
 272   0.0000       3.139596        85.4327 
 273   0.0000       3.159783        85.9821 
 274   0.0000       3.173201        86.3472 
 275   0.0000       3.184575        86.6567 
 276   0.0000       3.198209        87.0277 
 277   0.0000       3.212861        87.4264 
 278   0.0000       3.217714        87.5585 
 279   0.0000       3.239241        88.1442 
 280   0.0000       3.250629        88.4541 
 281   0.0000       3.252041        88.4925 
 282   0.0000       3.274074        89.0921 
 283   0.0000       3.285736        89.4094 
 284   0.0000       3.300813        89.8197 
 285   0.0000       3.306859        89.9842 
 286   0.0000       3.309645        90.0600 
 287   0.0000       3.315536        90.2203 
 288   0.0000       3.336093        90.7797 
 289   0.0000       3.340514        90.9000 
 290   0.0000       3.346463        91.0619 
 291   0.0000       3.356317        91.3300 
 292   0.0000       3.357526        91.3629 
 293   0.0000       3.383990        92.0831 
 294   0.0000       3.395256        92.3896 
 295   0.0000       3.398738        92.4844 
 296   0.0000       3.401386        92.5564 
 297   0.0000       3.416337        92.9633 
 298   0.0000       3.428810        93.3027 
 299   0.0000       3.436816        93.5205 
 300   0.0000       3.444488        93.7293 
 301   0.0000       3.456689        94.0613 
 302   0.0000       3.462111        94.2088 
 303   0.0000       3.482928        94.7753 
 304   0.0000       3.493083        95.0516 
 305   0.0000       3.504004        95.3488 
 306   0.0000       3.506111        95.4061 
 307   0.0000       3.514010        95.6211 
 308   0.0000       3.514898        95.6452 
 309   0.0000       3.538457        96.2863 
 310   0.0000       3.551917        96.6526 
 311   0.0000       3.565468        97.0213 
 312   0.0000       3.580653        97.4345 
 313   0.0000       3.583545        97.5132 
 314   0.0000       3.607098        98.1541 
 315   0.0000       3.626285        98.6762 
 316   0.0000       3.631760        98.8252 
 317   0.0000       3.638111        98.9980 
 318   0.0000       3.645953        99.2114 
 319   0.0000       3.658960        99.5654 
 320   0.0000       3.689386       100.3933 
 321   0.0000       3.706659       100.8633 
 322   0.0000       3.711812       101.0035 
 323   0.0000       3.714434       101.0749 
 324   0.0000       3.732207       101.5585 
 325   0.0000       3.744322       101.8882 
 326   0.0000       3.751210       102.0756 
 327   0.0000       3.759903       102.3122 
 328   0.0000       3.772052       102.6428 
 329   0.0000       3.780588       102.8750 
 330   0.0000       3.793488       103.2261 
 331   0.0000       3.815608       103.8280 
 332   0.0000       3.823536       104.0437 
 333   0.0000       3.833002       104.3013 
 334   0.0000       3.844213       104.6063 
 335   0.0000       3.851308       104.7994 
 336   0.0000       3.857110       104.9573 
 337   0.0000       3.877091       105.5010 
 338   0.0000       3.885379       105.7265 
 339   0.0000       3.897295       106.0508 
 340   0.0000       3.916679       106.5783 
 341   0.0000       3.927865       106.8826 
[...]
      py      :     1.127253
      dz2     :     0.037075  d :     0.199999
      dxz     :     0.036033
      dyz     :     0.041415
      dx2y2   :     0.044884
      dxy     :     0.040591
      f0      :     0.002206  f :     0.014721
      f+1     :     0.002156
      f-1     :     0.002072
      f+2     :     0.001654
      f-2     :     0.001977
      f+3     :     0.002587
      f-3     :     0.002069
 14 H s       :     0.844663  s :     0.844663
      pz      :     0.068173  p :     0.147515
      px      :     0.037848
      py      :     0.041493
      dz2     :     0.008743  d :     0.027048
      dxz     :     0.006418
      dyz     :     0.007771
      dx2y2   :     0.001739
      dxy     :     0.002378
 15 H s       :     0.855948  s :     0.855948
      pz      :     0.037733  p :     0.145455
      px      :     0.038168
      py      :     0.069555
      dz2     :     0.002876  d :     0.026293
      dxz     :     0.001309
      dyz     :     0.007228
      dx2y2   :     0.007444
      dxy     :     0.007437
 16 H s       :     0.858478  s :     0.858478
      pz      :     0.075208  p :     0.143270
      px      :     0.028792
      py      :     0.039270
      dz2     :     0.009683  d :     0.026146
      dxz     :     0.007213
      dyz     :     0.008712
      dx2y2   :     0.000343
      dxy     :     0.000195
 17 H s       :     0.775563  s :     0.775563
      pz      :     0.083383  p :     0.274138
      px      :     0.080708
      py      :     0.110047
      dz2     :     0.006741  d :     0.061461
      dxz     :     0.003714
      dyz     :     0.017564
      dx2y2   :     0.016571
      dxy     :     0.016870
 18 O s       :     3.369115  s :     3.369115
      pz      :     1.535126  p :     4.396060
      px      :     1.542238
      py      :     1.318695
      dz2     :     0.024788  d :     0.070096
      dxz     :     0.021489
      dyz     :     0.013151
      dx2y2   :     0.004620
      dxy     :     0.006048
      f0      :     0.001674  f :     0.005420
      f+1     :     0.001346
      f-1     :     0.000720
      f+2     :     0.000639
      f-2     :     0.000840
      f+3     :     0.000053
      f-3     :     0.000148
 19 Cls       :     5.658312  s :     5.658312
      pz      :     3.888127  p :    11.034221
      px      :     3.406565
      py      :     3.739530
      dz2     :     0.013764  d :     0.087283
      dxz     :     0.013353
      dyz     :     0.004286
      dx2y2   :     0.024190
      dxy     :     0.031690
      f0      :     0.001077  f :     0.010081
      f+1     :     0.001436
      f-1     :     0.000580
      f+2     :     0.000440
      f-2     :     0.001145
      f+3     :     0.002567
      f-3     :     0.002836
 20 H s       :     0.834314  s :     0.834314
      pz      :     0.052346  p :     0.166788
      px      :     0.066714
      py      :     0.047728
      dz2     :     0.006220  d :     0.028192
      dxz     :     0.006329
      dyz     :     0.003964
      dx2y2   :     0.005643
      dxy     :     0.006037
 21 H s       :     0.842111  s :     0.842111
      pz      :     0.050737  p :     0.155748
      px      :     0.032474
      py      :     0.072536
      dz2     :     0.005557  d :     0.027712
      dxz     :     0.001481
      dyz     :     0.008312
      dx2y2   :     0.005945
      dxy     :     0.006416
 22 H s       :     0.850817  s :     0.850817
      pz      :     0.052786  p :     0.154548
      px      :     0.039495
      py      :     0.062267
      dz2     :     0.006019  d :     0.026416
      dxz     :     0.003713
      dyz     :     0.006469
      dx2y2   :     0.004932
      dxy     :     0.005282

SPIN
  0 C s       :     0.000000  s :     0.000000
      pz      :     0.000000  p :     0.000000
      px      :     0.000000
      py      :     0.000000
      dz2     :     0.000000  d :     0.000000
      dxz     :     0.000000
      dyz     :     0.000000
      dx2y2   :     0.000000
      dxy     :     0.000000
      f0      :     0.000000  f :     0.000000
      f+1     :     0.000000
      f-1     :     0.000000
      f+2     :     0.000000
      f-2     :     0.000000
      f+3     :     0.000000
      f-3     :     0.000000
  1 C s       :     0.000000  s :     0.000000
      pz      :     0.000000  p :     0.000000
      px      :     0.000000
      py      :     0.000000
      dz2     :     0.000000  d :     0.000000
      dxz     :     0.000000
      dyz     :     0.000000
      dx2y2   :     0.000000
      dxy     :     0.000000
      f0      :     0.000000  f :     0.000000
      f+1     :     0.000000
      f-1     :     0.000000
      f+2     :     0.000000
      f-2     :     0.000000
      f+3     :     0.000000
      f-3     :     0.000000
  2 C s       :     0.000000  s :     0.000000
      pz      :     0.000000  p :     0.000000
      px      :     0.000000
      py      :     0.000000
      dz2     :     0.000000  d :     0.000000
      dxz     :     0.000000
      dyz     :     0.000000
      dx2y2   :     0.000000
      dxy     :     0.000000
      f0      :     0.000000  f :     0.000000
      f+1     :     0.000000
      f-1     :     0.000000
      f+2     :     0.000000
      f-2     :     0.000000
      f+3     :     0.000000
      f-3     :     0.000000
  3 C s       :     0.000000  s :     0.000000
      pz      :     0.000000  p :     0.000000
      px      :     0.000000
      py      :     0.000000
      dz2     :     0.000000  d :     0.000000
      dxz     :     0.000000
      dyz     :     0.000000
      dx2y2   :     0.000000
      dxy     :     0.000000
      f0      :     0.000000  f :     0.000000
      f+1     :     0.000000
      f-1     :     0.000000
      f+2     :     0.000000
      f-2     :     0.000000
      f+3     :     0.000000
      f-3     :     0.000000
  4 H s       :     0.000000  s :     0.000000
      pz      :     0.000000  p :     0.000000
      px      :     0.000000
      py      :     0.000000
      dz2     :     0.000000  d :     0.000000
      dxz     :     0.000000
      dyz     :     0.000000
      dx2y2   :     0.000000
      dxy     :     0.000000
  5 H s       :     0.000000  s :     0.000000
      pz      :     0.000000  p :     0.000000
      px      :     0.000000
      py      :     0.000000
      dz2     :     0.000000  d :     0.000000
      dxz     :     0.000000
      dyz     :     0.000000
      dx2y2   :     0.000000
      dxy     :     0.000000
  6 H s       :     0.000000  s :     0.000000
      pz      :     0.000000  p :     0.000000
      px      :     0.000000
      py      :     0.000000
      dz2     :     0.000000  d :     0.000000
      dxz     :     0.000000
      dyz     :     0.000000
      dx2y2   :     0.000000
      dxy     :     0.000000
  7 C s       :     0.000000  s :     0.000000
      pz      :     0.000000  p :     0.000000
      px      :     0.000000
      py      :     0.000000
      dz2     :     0.000000  d :     0.000000
      dxz     :     0.000000
      dyz     :     0.000000
      dx2y2   :     0.000000
      dxy     :     0.000000
      f0      :     0.000000  f :     0.000000
      f+1     :     0.000000
      f-1     :     0.000000
      f+2     :     0.000000
      f-2     :     0.000000
      f+3     :     0.000000
      f-3     :     0.000000
  8 C s       :     0.000000  s :     0.000000
      pz      :     0.000000  p :     0.000000
      px      :     0.000000
      py      :     0.000000
      dz2     :     0.000000  d :     0.000000
      dxz     :     0.000000
      dyz     :     0.000000
      dx2y2   :     0.000000
      dxy     :     0.000000
      f0      :     0.000000  f :     0.000000
      f+1     :     0.000000
      f-1     :     0.000000
      f+2     :     0.000000
      f-2     :     0.000000
      f+3     :     0.000000
      f-3     :     0.000000
  9 C s       :     0.000000  s :     0.000000
      pz      :     0.000000  p :     0.000000
      px      :     0.000000
      py      :     0.000000
      dz2     :     0.000000  d :     0.000000
      dxz     :     0.000000
      dyz     :     0.000000
      dx2y2   :     0.000000
      dxy     :     0.000000
      f0      :     0.000000  f :     0.000000
      f+1     :     0.000000
      f-1     :     0.000000
      f+2     :     0.000000
      f-2     :     0.000000
      f+3     :     0.000000
      f-3     :     0.000000
 10 H s       :     0.000000  s :     0.000000
      pz      :     0.000000  p :     0.000000
      px      :     0.000000
      py      :     0.000000
      dz2     :     0.000000  d :     0.000000
      dxz     :     0.000000
      dyz     :     0.000000
      dx2y2   :     0.000000
      dxy     :     0.000000
 11 H s       :     0.000000  s :     0.000000
      pz      :     0.000000  p :     0.000000
      px      :     0.000000
      py      :     0.000000
      dz2     :     0.000000  d :     0.000000
      dxz     :     0.000000
      dyz     :     0.000000
      dx2y2   :     0.000000
      dxy     :     0.000000
 12 C s       :     0.000000  s :     0.000000
      pz      :     0.000000  p :     0.000000
      px      :     0.000000
      py      :     0.000000
      dz2     :     0.000000  d :     0.000000
      dxz     :     0.000000
      dyz     :     0.000000
      dx2y2   :     0.000000
      dxy     :     0.000000
      f0      :     0.000000  f :     0.000000
      f+1     :     0.000000
      f-1     :     0.000000
      f+2     :     0.000000
      f-2     :     0.000000
      f+3     :     0.000000
      f-3     :     0.000000
 13 N s       :     0.000000  s :     0.000000
      pz      :     0.000000  p :     0.000000
      px      :     0.000000
      py      :     0.000000
      dz2     :     0.000000  d :     0.000000
      dxz     :     0.000000
      dyz     :     0.000000
      dx2y2   :     0.000000
      dxy     :     0.000000
      f0      :     0.000000  f :     0.000000
      f+1     :     0.000000
      f-1     :     0.000000
      f+2     :     0.000000
      f-2     :     0.000000
      f+3     :     0.000000
      f-3     :     0.000000
 14 H s       :     0.000000  s :     0.000000
      pz      :     0.000000  p :     0.000000
      px      :     0.000000
      py      :     0.000000
      dz2     :     0.000000  d :     0.000000
      dxz     :     0.000000
      dyz     :     0.000000
      dx2y2   :     0.000000
      dxy     :     0.000000
 15 H s       :     0.000000  s :     0.000000
      pz      :     0.000000  p :     0.000000
      px      :     0.000000
      py      :     0.000000
      dz2     :     0.000000  d :     0.000000
      dxz     :     0.000000
      dyz     :     0.000000
      dx2y2   :     0.000000
      dxy     :     0.000000
 16 H s       :     0.000000  s :     0.000000
      pz      :     0.000000  p :     0.000000
      px      :     0.000000
      py      :     0.000000
      dz2     :     0.000000  d :     0.000000
      dxz     :     0.000000
      dyz     :     0.000000
      dx2y2   :     0.000000
      dxy     :     0.000000
 17 H s       :     0.000000  s :     0.000000
      pz      :     0.000000  p :     0.000000
      px      :     0.000000
      py      :     0.000000
      dz2     :     0.000000  d :     0.000000
      dxz     :     0.000000
      dyz     :     0.000000
      dx2y2   :     0.000000
      dxy     :     0.000000
 18 O s       :     0.000000  s :     0.000000
      pz      :     0.000000  p :     0.000000
      px      :     0.000000
      py      :     0.000000
      dz2     :     0.000000  d :     0.000000
      dxz     :     0.000000
      dyz     :     0.000000
      dx2y2   :     0.000000
      dxy     :     0.000000
      f0      :     0.000000  f :     0.000000
      f+1     :     0.000000
      f-1     :     0.000000
      f+2     :     0.000000
      f-2     :     0.000000
      f+3     :     0.000000
      f-3     :     0.000000
 19 Cls       :     0.000000  s :     0.000000
      pz      :     0.000000  p :     0.000000
      px      :     0.000000
      py      :     0.000000
      dz2     :     0.000000  d :     0.000000
      dxz     :     0.000000
      dyz     :     0.000000
      dx2y2   :     0.000000
      dxy     :     0.000000
      f0      :     0.000000  f :     0.000000
      f+1     :     0.000000
      f-1     :     0.000000
      f+2     :     0.000000
      f-2     :     0.000000
      f+3     :     0.000000
      f-3     :     0.000000
 20 H s       :     0.000000  s :     0.000000
      pz      :     0.000000  p :     0.000000
      px      :     0.000000
      py      :     0.000000
      dz2     :     0.000000  d :     0.000000
      dxz     :     0.000000
      dyz     :     0.000000
      dx2y2   :     0.000000
      dxy     :     0.000000
 21 H s       :     0.000000  s :     0.000000
      pz      :     0.000000  p :     0.000000
      px      :     0.000000
      py      :     0.000000
      dz2     :     0.000000  d :     0.000000
      dxz     :     0.000000
      dyz     :     0.000000
      dx2y2   :     0.000000
      dxy     :     0.000000
 22 H s       :     0.000000  s :     0.000000
      pz      :     0.000000  p :     0.000000
      px      :     0.000000
      py      :     0.000000
      dz2     :     0.000000  d :     0.000000
      dxz     :     0.000000
      dyz     :     0.000000
      dx2y2   :     0.000000
      dxy     :     0.000000


                      *****************************
                      * MAYER POPULATION ANALYSIS *
                      *****************************

  NA   - Mulliken gross atomic population
  ZA   - Total nuclear charge
  QA   - Mulliken gross atomic charge
  VA   - Mayer's total valence
  BVA  - Mayer's bonded valence
  FA   - Mayer's free valence

  ATOM       NA         ZA         QA         VA         BVA        FA
  0 C      6.2852     6.0000    -0.2852     3.8311     3.8311     0.0000
  1 C      5.9762     6.0000     0.0238     3.7243     3.7243     0.0000
  2 C      6.0566     6.0000    -0.0566     3.9676     3.9676     0.0000
  3 C      6.2675     6.0000    -0.2675     3.8875     3.8875    -0.0000
  4 H      0.8936     1.0000     0.1064     0.9830     0.9830     0.0000
  5 H      0.9017     1.0000     0.0983     0.9753     0.9753     0.0000
  6 H      0.9015     1.0000     0.0985     0.9749     0.9749    -0.0000
  7 C      5.9385     6.0000     0.0615     3.8973     3.8973     0.0000
  8 C      6.1939     6.0000    -0.1939     3.7615     3.7615    -0.0000
  9 C      5.7224     6.0000     0.2776     3.9859     3.9859     0.0000
 10 H      0.8944     1.0000     0.1056     0.9968     0.9968    -0.0000
 11 H      0.8739     1.0000     0.1261     0.9969     0.9969    -0.0000
 12 C      6.0930     6.0000    -0.0930     3.7957     3.7957     0.0000
 13 N      7.3381     7.0000    -0.3381     2.9578     2.9578     0.0000
 14 H      0.8748     1.0000     0.1252     0.9880     0.9880    -0.0000
 15 H      0.9128     1.0000     0.0872     0.9725     0.9725     0.0000
 16 H      0.9208     1.0000     0.0792     0.9679     0.9679    -0.0000
 17 H      0.8537     1.0000     0.1463     1.0083     1.0083     0.0000
 18 O      8.3487     8.0000    -0.3487     2.1408     2.1408     0.0000
 19 Cl    17.1865    17.0000    -0.1865     1.0123     1.0123    -0.0000
 20 H      0.8625     1.0000     0.1375     1.0137     1.0137    -0.0000
 21 H      0.8714     1.0000     0.1286     0.9805     0.9805     0.0000
 22 H      0.8322     1.0000     0.1678     0.9725     0.9725     0.0000

  Mayer bond orders larger than 0.100000
B(  0-C ,  1-C ) :   1.8505 B(  0-C ,  7-C ) :   0.9980 B(  0-C , 22-H ) :   0.9453 
B(  1-C ,  2-C ) :   0.9791 B(  1-C ,  3-C ) :   0.9556 B(  2-C , 13-N ) :   0.9991 
B(  2-C , 15-H ) :   0.9789 B(  2-C , 16-H ) :   0.9747 B(  3-C ,  4-H ) :   0.9889 
B(  3-C ,  5-H ) :   0.9730 B(  3-C ,  6-H ) :   0.9714 B(  7-C ,  8-C ) :   0.9325 
B(  7-C , 13-N ) :   0.9612 B(  7-C , 14-H ) :   0.9806 B(  8-C ,  9-C ) :   0.9325 
B(  8-C , 10-H ) :   0.9766 B(  8-C , 11-H ) :   0.9763 B(  9-C , 12-C ) :   0.9260 
B(  9-C , 18-O ) :   2.1168 B( 12-C , 19-Cl) :   0.9985 B( 12-C , 20-H ) :   0.9474 
B( 12-C , 21-H ) :   0.9625 B( 13-N , 17-H ) :   0.9803 

-------
TIMINGS
-------

Total SCF time: 0 days 0 hours 18 min 29 sec 

Total time                  ....    1109.418 sec
Sum of individual times     ....    1105.667 sec  ( 99.7%)

Fock matrix formation       ....    1085.147 sec  ( 97.8%)
  Split-RI-J                ....      60.078 sec  (  5.5% of F)
  Chain of spheres X        ....    1024.305 sec  ( 94.4% of F)
Diagonalization             ....       3.816 sec  (  0.3%)
Density matrix formation    ....       0.252 sec  (  0.0%)
Population analysis         ....       0.416 sec  (  0.0%)
Initial guess               ....       4.963 sec  (  0.4%)
Orbital Transformation      ....       0.000 sec  (  0.0%)
Orbital Orthonormalization  ....       0.000 sec  (  0.0%)
DIIS solution               ....       1.983 sec  (  0.2%)

Maximum memory used throughout the entire SCF-calculation: 317.4 MB

-------------------------   --------------------
FINAL SINGLE POINT ENERGY      -898.887792179689
-------------------------   --------------------


                            ***************************************
                            *     ORCA property calculations      *
                            ***************************************

                                    ---------------------
                                    Active property flags
                                    ---------------------
   (+) Dipole Moment


------------------------------------------------------------------------------
                       ORCA ELECTRIC PROPERTIES CALCULATION
------------------------------------------------------------------------------

Dipole Moment Calculation                       ... on
Quadrupole Moment Calculation                   ... off
Polarizability Calculation                      ... off
GBWName                                         ... UHF-RI.gbw
Electron density                                ... UHF-RI.scfp
The origin for moment calculation is the CENTER OF MASS  = ( 2.637983,  1.551899  0.056928)

-------------
DIPOLE MOMENT
-------------
                                X             Y             Z
Electronic contribution:     22.44609      -2.16697      -0.98729
Nuclear contribution   :    -24.46675       2.52936       1.68763
                        -----------------------------------------
Total Dipole Moment    :     -2.02066       0.36239       0.70033
                        -----------------------------------------
Magnitude (a.u.)       :      2.16907
Magnitude (Debye)      :      5.51334



--------------------
Rotational spectrum 
--------------------
 
Rotational constants in cm-1:     0.078975     0.013377     0.012208 
Rotational constants in MHz :  2367.608052   401.025928   365.983271 

 Dipole components along the rotational axes: 
x,y,z [a.u.] :    -2.025416    -0.418662     0.653661 
x,y,z [Debye]:    -5.148198    -1.064155     1.661474 

 

Timings for individual modules:

Sum of individual times         ...     1130.191 sec (=  18.837 min)
GTO integral calculation        ...        3.001 sec (=   0.050 min)   0.3 %
SCF iterations                  ...     1127.190 sec (=  18.786 min)  99.7 %
                             ****ORCA TERMINATED NORMALLY****
TOTAL RUN TIME: 0 days 0 hours 18 minutes 52 seconds 427 msec
