
                                 *****************
                                 * O   R   C   A *
                                 *****************

                                            #,                                       
                                            ###                                      
                                            ####                                     
                                            #####                                    
                                            ######                                   
                                           ########,                                 
                                     ,,################,,,,,                         
                               ,,#################################,,                 
                          ,,##########################################,,             
                       ,#########################################, ''#####,          
                    ,#############################################,,   '####,        
                  ,##################################################,,,,####,       
                ,###########''''           ''''###############################       
              ,#####''   ,,,,##########,,,,          '''####'''          '####       
            ,##' ,,,,###########################,,,                        '##       
           ' ,,###''''                  '''############,,,                           
         ,,##''                                '''############,,,,        ,,,,,,###''
      ,#''                                            '''#######################'''  
     '                                                          ''''####''''         
             ,#######,   #######,   ,#######,      ##                                
            ,#'     '#,  ##    ##  ,#'     '#,    #''#        ######   ,####,        
            ##       ##  ##   ,#'  ##            #'  '#       #        #'  '#        
            ##       ##  #######   ##           ,######,      #####,   #    #        
            '#,     ,#'  ##    ##  '#,     ,#' ,#      #,         ##   #,  ,#        
             '#######'   ##     ##  '#######'  #'      '#     #####' # '####'        



                  #######################################################
                  #                        -***-                        #
                  #          Department of theory and spectroscopy      #
                  #    Directorship and core code : Frank Neese         #
                  #        Max Planck Institute fuer Kohlenforschung    #
                  #                Kaiser Wilhelm Platz 1               #
                  #                 D-45470 Muelheim/Ruhr               #
                  #                      Germany                        #
                  #                                                     #
                  #                  All rights reserved                #
                  #                        -***-                        #
                  #######################################################



                         Program Version 5.0.4 -  RELEASE  -

 With contributions from (in alphabetic order):
   Daniel Aravena         : Magnetic Suceptibility
   Michael Atanasov       : Ab Initio Ligand Field Theory (pilot matlab implementation)
   Alexander A. Auer      : GIAO ZORA, VPT2 properties, NMR spectrum
   Ute Becker             : Parallelization
   Giovanni Bistoni       : ED, misc. LED, open-shell LED, HFLD
   Martin Brehm           : Molecular dynamics
   Dmytro Bykov           : SCF Hessian
   Vijay G. Chilkuri      : MRCI spin determinant printing, contributions to CSF-ICE
   Dipayan Datta          : RHF DLPNO-CCSD density
   Achintya Kumar Dutta   : EOM-CC, STEOM-CC
   Dmitry Ganyushin       : Spin-Orbit,Spin-Spin,Magnetic field MRCI
   Miquel Garcia          : C-PCM and meta-GGA Hessian, CC/C-PCM, Gaussian charge scheme
   Yang Guo               : DLPNO-NEVPT2, F12-NEVPT2, CIM, IAO-localization
   Andreas Hansen         : Spin unrestricted coupled pair/coupled cluster methods
   Benjamin Helmich-Paris : MC-RPA, TRAH-SCF, COSX integrals
   Lee Huntington         : MR-EOM, pCC
   Robert Izsak           : Overlap fitted RIJCOSX, COSX-SCS-MP3, EOM
   Marcus Kettner         : VPT2
   Christian Kollmar      : KDIIS, OOCD, Brueckner-CCSD(T), CCSD density, CASPT2, CASPT2-K
   Simone Kossmann        : Meta GGA functionals, TD-DFT gradient, OOMP2, MP2 Hessian
   Martin Krupicka        : Initial AUTO-CI
   Lucas Lang             : DCDCAS
   Marvin Lechner         : AUTO-CI (C++ implementation), FIC-MRCC
   Dagmar Lenk            : GEPOL surface, SMD
   Dimitrios Liakos       : Extrapolation schemes; Compound Job, initial MDCI parallelization
   Dimitrios Manganas     : Further ROCIS development; embedding schemes
   Dimitrios Pantazis     : SARC Basis sets
   Anastasios Papadopoulos: AUTO-CI, single reference methods and gradients
   Taras Petrenko         : DFT Hessian,TD-DFT gradient, ASA, ECA, R-Raman, ABS, FL, XAS/XES, NRVS
   Peter Pinski           : DLPNO-MP2, DLPNO-MP2 Gradient
   Christoph Reimann      : Effective Core Potentials
   Marius Retegan         : Local ZFS, SOC
   Christoph Riplinger    : Optimizer, TS searches, QM/MM, DLPNO-CCSD(T), (RO)-DLPNO pert. Triples
   Tobias Risthaus        : Range-separated hybrids, TD-DFT gradient, RPA, STAB
   Michael Roemelt        : Original ROCIS implementation
   Masaaki Saitow         : Open-shell DLPNO-CCSD energy and density
   Barbara Sandhoefer     : DKH picture change effects
   Avijit Sen             : IP-ROCIS
   Kantharuban Sivalingam : CASSCF convergence, NEVPT2, FIC-MRCI
   Bernardo de Souza      : ESD, SOC TD-DFT
   Georgi Stoychev        : AutoAux, RI-MP2 NMR, DLPNO-MP2 response
   Willem Van den Heuvel  : Paramagnetic NMR
   Boris Wezisla          : Elementary symmetry handling
   Frank Wennmohs         : Technical directorship


 We gratefully acknowledge several colleagues who have allowed us to
 interface, adapt or use parts of their codes:
   Stefan Grimme, W. Hujo, H. Kruse, P. Pracht,  : VdW corrections, initial TS optimization,
                  C. Bannwarth, S. Ehlert          DFT functionals, gCP, sTDA/sTD-DF
   Ed Valeev, F. Pavosevic, A. Kumar             : LibInt (2-el integral package), F12 methods
   Garnet Chan, S. Sharma, J. Yang, R. Olivares  : DMRG
   Ulf Ekstrom                                   : XCFun DFT Library
   Mihaly Kallay                                 : mrcc  (arbitrary order and MRCC methods)
   Jiri Pittner, Ondrej Demel                    : Mk-CCSD
   Frank Weinhold                                : gennbo (NPA and NBO analysis)
   Christopher J. Cramer and Donald G. Truhlar   : smd solvation model
   Lars Goerigk                                  : TD-DFT with DH, B97 family of functionals
   V. Asgeirsson, H. Jonsson                     : NEB implementation
   FAccTs GmbH                                   : IRC, NEB, NEB-TS, DLPNO-Multilevel, CI-OPT
                                                   MM, QMMM, 2- and 3-layer-ONIOM, Crystal-QMMM,
                                                   LR-CPCM, SF, NACMEs, symmetry and pop. for TD-DFT,
                                                   nearIR, NL-DFT gradient (VV10), updates on ESD,
                                                   ML-optimized integration grids
   S Lehtola, MJT Oliveira, MAL Marques          : LibXC Library
   Liviu Ungur et al                             : ANISO software


 Your calculation uses the libint2 library for the computation of 2-el integrals
 For citations please refer to: http://libint.valeyev.net

 Your ORCA version has been built with support for libXC version: 5.1.0
 For citations please refer to: https://tddft.org/programs/libxc/

 This ORCA versions uses:
   CBLAS   interface :  Fast vector & matrix operations
   LAPACKE interface :  Fast linear algebra routines
   Shared memory     :  Shared parallel matrices


Your calculation utilizes the atom-pairwise dispersion correction
based on tight binding partial charges (D4)
Cite in your paper:
E.Caldeweyher, C.Bannwarth, S.Grimme, J.Chem.Phys., (2017), 147, 034112.
E.Caldeweyher, S.Ehlert, A.Hansen, H.Neugebauer, S.Grimme, J.Chem.Phys., (2018), in progress.
   

================================================================================

----- Orbital basis set information -----
Your calculation utilizes the basis: def2-SVP
   F. Weigend and R. Ahlrichs, Phys. Chem. Chem. Phys. 7, 3297 (2005).

----- AuxJ basis set information -----
Your calculation utilizes the auxiliary basis: def2/J
   F. Weigend, Phys. Chem. Chem. Phys. 8, 1057 (2006).

================================================================================
                                        WARNINGS
                       Please study these warnings very carefully!
================================================================================


WARNING: Geometry Optimization
  ===> : Switching off AutoStart
         For restart on a previous wavefunction, please use MOREAD

INFO   : the flag for use of the SHARK integral package has been found!

================================================================================
                                       INPUT FILE
================================================================================
NAME = para_products_optfreq_7.inp
|  1> !B3LYP DEF2-SVP OPT FREQ D4 SOSCF
|  2> 
|  3> %geom 
|  4> optimizeHydrogens true
|  5> end
|  6> 
|  7> * xyz 1 1
|  8>    C       -5.63856        0.97259        0.22218
|  9>    C       -6.64125        1.62526       -0.51066
| 10>    C       -7.28144        0.99945       -1.56030
| 11>    C       -6.91908       -0.30604       -1.88256
| 12>    C       -5.94160       -0.98320       -1.17742
| 13>    C       -5.30551       -0.33290       -0.12581
| 14>    C       -4.94261        1.70389        1.33537
| 15>    H       -4.55106        0.55213        2.34386
| 16>    H       -6.05533        2.77019        1.89952
| 17>    H       -3.70208        2.44177        0.60618
| 18>    H       -6.91828        2.64061       -0.24965
| 19>    H       -8.05266        1.49467       -2.13101
| 20>    H       -5.68704       -1.99561       -1.45248
| 21>    H       -4.53743       -0.85314        0.43145
| 22>    N       -7.59061       -0.97798       -3.00252
| 23>    O       -7.29614       -2.14297       -3.23103
| 24>    O       -8.40624       -0.33353       -3.64640
| 25>    H      -13.94189      -10.65329      -11.89493
| 26> **                         ****END OF INPUT****
================================================================================

                       *****************************
                       * Geometry Optimization Run *
                       *****************************

Geometry optimization settings:
Update method            Update   .... BFGS
Choice of coordinates    CoordSys .... Z-matrix Internals
Initial Hessian          InHess   .... Almoef's Model

Convergence Tolerances:
Energy Change            TolE     ....  5.0000e-06 Eh
Max. Gradient            TolMAXG  ....  3.0000e-04 Eh/bohr
RMS Gradient             TolRMSG  ....  1.0000e-04 Eh/bohr
Max. Displacement        TolMAXD  ....  4.0000e-03 bohr
RMS Displacement         TolRMSD  ....  2.0000e-03 bohr
Strict Convergence                ....  False
------------------------------------------------------------------------------
                        ORCA OPTIMIZATION COORDINATE SETUP
------------------------------------------------------------------------------

The optimization will be done in new redundant internal coordinates
Making redundant internal coordinates   ...  (new redundants) done
Evaluating the initial hessian          ...  (Almloef) done
Evaluating the coordinates              ...  done
Calculating the B-matrix                .... done
Calculating the G-matrix                .... done
Diagonalizing the G-matrix              .... done
Imposing constraints:
 Iter   0:  RMS(Cart)=    0.0000000000 RMS(Int)=    0.0000000000
CONVERGED
Small eigenvalue found = 6.723e-03
Small eigenvalue found = 2.303e-02
The first mode is                       ....   47
The number of degrees of freedom        ....   48
Storing new coordinates                 .... done

    -----------------------------------------------------------------
                    Redundant Internal Coordinates


    -----------------------------------------------------------------
         Definition                    Initial Value    Approx d2E/dq
    -----------------------------------------------------------------
      1. B(C   1,C   0)                  1.4030         0.595651 C 
      2. B(C   2,C   1)                  1.3796         0.649190 C 
      3. B(C   3,C   2)                  1.3926         0.618755 C 
      4. B(C   4,C   3)                  1.3825         0.642311 C 
      5. B(C   5,C   4)                  1.3905         0.623737 C 
      6. B(C   5,C   0)                  1.3915         0.621321 C 
      7. B(C   6,C   0)                  1.5028         0.412867 C 
      8. B(H   7,C   6)                  1.5802         0.059484   
      9. B(H   8,C   6)                  1.6412         0.047543   
     10. B(H   9,C   6)                  1.6171         0.051931   
     11. B(H  10,C   1)                  1.0843         0.367657   
     12. B(H  11,C   2)                  1.0797         0.373999   
     13. B(H  12,C   4)                  1.0796         0.374190   
     14. B(H  13,C   5)                  1.0822         0.370581   
     15. B(N  14,C   3)                  1.4686         0.419261 C 
     16. B(O  15,N  14)                  1.2232         0.925098 C 
     17. B(O  16,N  14)                  1.2228         0.926463 C 
     18. B(H  17,N  14)                 14.5954         0.000000   
     19. B(H  17,O  15)                 13.8439         0.000000   
     20. B(H  17,O  16)                 14.3241         0.000000   
     21. A(C   1,C   0,C   5)          118.4806         0.431116 C 
     22. A(C   1,C   0,C   6)          119.4403         0.400887 C 
     23. A(C   5,C   0,C   6)          122.0699         0.403880 C 
     24. A(C   2,C   1,H  10)          119.2976         0.356928   
     25. A(C   0,C   1,C   2)          121.2006         0.434530 C 
     26. A(C   0,C   1,H  10)          119.5017         0.351759   
     27. A(C   1,C   2,H  11)          121.7071         0.357967   
     28. A(C   3,C   2,H  11)          119.5712         0.355060   
     29. A(C   1,C   2,C   3)          118.7215         0.437519 C 
     30. A(C   2,C   3,N  14)          119.1040         0.402083 C 
     31. A(C   4,C   3,N  14)          119.2203         0.404742 C 
     32. A(C   2,C   3,C   4)          121.6755         0.436680 C 
     33. A(C   3,C   4,C   5)          118.6938         0.437312 C 
     34. A(C   3,C   4,H  12)          119.7436         0.357350   
     35. A(C   5,C   4,H  12)          121.5624         0.355574   
     36. A(C   4,C   5,H  13)          119.2948         0.354990   
     37. A(C   0,C   5,H  13)          119.4791         0.354756   
     38. A(C   0,C   5,C   4)          121.2261         0.434702 C 
     39. A(C   0,C   6,H   7)          103.4631         0.249135   
     40. A(C   0,C   6,H   9)          104.0806         0.244288   
     41. A(H   7,C   6,H   9)          115.4855         0.175627   
     42. A(C   0,C   6,H   8)          104.8814         0.241216   
     43. A(H   7,C   6,H   8)          114.9730         0.173914   
     44. A(H   8,C   6,H   9)          112.2503         0.171343   
     45. A(C   3,N  14,O  15)          117.9153         0.426245 C 
     46. A(C   3,N  14,O  16)          117.7386         0.426357 C 
     47. A(O  15,N  14,O  16)          124.3460         0.489150 C 
     48. A(C   3,N  14,H  17)          165.2198         0.089003   
     49. A(O  15,N  14,H  17)           50.1758         0.089004   
     50. A(O  16,N  14,H  17)           74.8284         0.089004   
     51. A(N  14,O  15,H  17)          125.9333         0.089007   
     52. A(N  14,O  16,H  17)          100.4457         0.089005   
     53. A(O  15,H  17,O  16)            8.5895         0.089000   
     54. D(C   2,C   1,C   0,C   6)    178.4429         0.024440 C 
     55. D(C   2,C   1,C   0,C   5)     -0.4763         0.024440 C 
     56. D(H  10,C   1,C   0,C   6)     -1.4623         0.024440   
     57. D(H  10,C   1,C   0,C   5)    179.6185         0.024440   
     58. D(C   3,C   2,C   1,C   0)      0.2893         0.029339 C 
     59. D(H  11,C   2,C   1,C   0)   -179.8716         0.029339   
     60. D(H  11,C   2,C   1,H  10)      0.0339         0.029339   
     61. D(C   3,C   2,C   1,H  10)   -179.8053         0.029339   
     62. D(C   4,C   3,C   2,C   1)      0.1211         0.026486 C 
     63. D(C   4,C   3,C   2,H  11)   -179.7216         0.026486   
     64. D(N  14,C   3,C   2,C   1)   -179.7077         0.026486 C 
     65. D(N  14,C   3,C   2,H  11)      0.4496         0.026486   
     66. D(H  12,C   4,C   3,C   2)    179.8432         0.028678   
     67. D(C   5,C   4,C   3,C   2)     -0.3286         0.028678 C 
     68. D(C   5,C   4,C   3,N  14)    179.5000         0.028678 C 
     69. D(H  12,C   4,C   3,N  14)     -0.3282         0.028678   
     70. D(C   4,C   5,C   0,C   1)      0.2616         0.026720 C 
     71. D(H  13,C   5,C   4,C   3)   -179.8747         0.026941   
     72. D(H  13,C   5,C   0,C   1)   -179.7327         0.026720   
     73. D(H  13,C   5,C   0,C   6)      1.3780         0.026720   
     74. D(C   0,C   5,C   4,C   3)      0.1310         0.026941 C 
     75. D(C   4,C   5,C   0,C   6)   -178.6277         0.026720 C 
     76. D(C   0,C   5,C   4,H  12)    179.9559         0.026941   
     77. D(H  13,C   5,C   4,H  12)     -0.0498         0.026941   
     78. D(H   7,C   6,C   0,C   1)    150.2207         0.012619   
     79. D(H   7,C   6,C   0,C   5)    -30.9003         0.012619   
     80. D(H   9,C   6,C   0,C   1)    -88.7021         0.012619   
     81. D(H   9,C   6,C   0,C   5)     90.1769         0.012619   
     82. D(H   8,C   6,C   0,C   1)     29.3701         0.012619   
     83. D(H   8,C   6,C   0,C   5)   -151.7510         0.012619   
     84. D(O  15,N  14,C   3,C   2)   -176.9683         0.014989 C 
     85. D(O  15,N  14,C   3,C   4)      3.1987         0.014989 C 
     86. D(O  16,N  14,C   3,C   2)      3.1519         0.014989 C 
     87. D(O  16,N  14,C   3,C   4)   -176.6811         0.014989 C 
     88. D(H  17,N  14,C   3,C   2)   -143.3665         0.014989   
     89. D(H  17,N  14,C   3,C   4)     36.8005         0.014989   
     90. D(H  17,O  15,N  14,C   3)    169.4071         0.090263   
     91. D(H  17,O  15,N  14,O  16)    -10.7217         0.090263   
     92. D(H  17,O  16,N  14,C   3)   -171.6152         0.090572   
     93. D(H  17,O  16,N  14,O  15)      8.5134         0.090572   
     94. D(O  16,H  17,O  15,N  14)      5.0366         0.001500   
     95. D(O  15,H  17,O  16,N  14)     -4.1465         0.001500   
    -----------------------------------------------------------------

Number of atoms                         .... 18
Number of degrees of freedom            .... 95

         *************************************************************
         *                GEOMETRY OPTIMIZATION CYCLE   1            *
         *************************************************************
---------------------------------
CARTESIAN COORDINATES (ANGSTROEM)
---------------------------------
  C     -5.638560    0.972590    0.222180
  C     -6.641250    1.625260   -0.510660
  C     -7.281440    0.999450   -1.560300
  C     -6.919080   -0.306040   -1.882560
  C     -5.941600   -0.983200   -1.177420
  C     -5.305510   -0.332900   -0.125810
  C     -4.942610    1.703890    1.335370
  H     -4.551060    0.552130    2.343860
  H     -6.055330    2.770190    1.899520
  H     -3.702080    2.441770    0.606180
  H     -6.918280    2.640610   -0.249650
  H     -8.052660    1.494670   -2.131010
  H     -5.687040   -1.995610   -1.452480
  H     -4.537430   -0.853140    0.431450
  N     -7.590610   -0.977980   -3.002520
  O     -7.296140   -2.142970   -3.231030
  O     -8.406240   -0.333530   -3.646400
  H    -13.941890  -10.653290  -11.894930

----------------------------
CARTESIAN COORDINATES (A.U.)
----------------------------
  NO LB      ZA    FRAG     MASS         X           Y           Z
   0 C     6.0000    0    12.011  -10.655334    1.837929    0.419859
   1 C     6.0000    0    12.011  -12.550144    3.071296   -0.965008
   2 C     6.0000    0    12.011  -13.759927    1.888687   -2.948540
   3 C     6.0000    0    12.011  -13.075166   -0.578332   -3.557523
   4 C     6.0000    0    12.011  -11.227997   -1.857979   -2.225001
   5 C     6.0000    0    12.011  -10.025961   -0.629090   -0.237746
   6 C     6.0000    0    12.011   -9.340179    3.219885    2.523484
   7 H     1.0000    0     1.008   -8.600257    1.043374    4.429253
   8 H     1.0000    0     1.008  -11.442915    5.234900    3.589573
   9 H     1.0000    0     1.008   -6.995917    4.614277    1.145514
  10 H     1.0000    0     1.008  -13.073655    4.990030   -0.471770
  11 H     1.0000    0     1.008  -15.217322    2.824517   -4.027025
  12 H     1.0000    0     1.008  -10.746948   -3.771156   -2.744789
  13 H     1.0000    0     1.008   -8.574500   -1.612201    0.815322
  14 N     7.0000    0    14.007  -14.344174   -1.848114   -5.673941
  15 O     8.0000    0    15.999  -13.787706   -4.049626   -6.105762
  16 O     8.0000    0    15.999  -15.885491   -0.630280   -6.890697
  17 H     1.0000    0     1.008  -26.346354  -20.131801  -22.478160

--------------------------------
INTERNAL COORDINATES (ANGSTROEM)
--------------------------------
 C      0   0   0     0.000000000000     0.00000000     0.00000000
 C      1   0   0     1.403003859795     0.00000000     0.00000000
 C      2   1   0     1.379574398791   121.20057542     0.00000000
 C      3   2   1     1.392645115347   118.72153767     0.28925374
 C      4   3   2     1.382474316434   121.67546013     0.12105596
 C      5   4   3     1.390461854996   118.69379566   359.67142352
 C      1   2   3     1.502776786020   119.44032126   178.44294391
 H      7   1   2     1.580162833445   103.46306194   150.22074360
 H      7   1   2     1.641160172226   104.88143973    29.37009653
 H      7   1   2     1.617126968237   104.08062499   271.29794223
 H      2   1   3     1.084346560607   119.50174303   180.09476309
 H      3   2   1     1.079691178486   121.70706247   180.12843480
 H      5   4   3     1.079552131812   119.74359734   179.84321981
 H      6   5   4     1.082190025642   119.29479731   180.12529158
 N      4   3   2     1.468593308612   119.10404882   180.29231730
 O     15   4   3     1.223164380245   117.91527330   183.03170676
 O     15   4   3     1.222763081631   117.73863397     3.15187280
 H     16  15   4    13.843941013126   125.93327608   169.40709228

---------------------------
INTERNAL COORDINATES (A.U.)
---------------------------
 C      0   0   0     0.000000000000     0.00000000     0.00000000
 C      1   0   0     2.651293059847     0.00000000     0.00000000
 C      2   1   0     2.607017795084   121.20057542     0.00000000
 C      3   2   1     2.631717869749   118.72153767     0.28925374
 C      4   3   2     2.612497845240   121.67546013     0.12105596
 C      5   4   3     2.627592105607   118.69379566   359.67142352
 C      1   2   3     2.839836565992   119.44032126   178.44294391
 H      7   1   2     2.986075002212   103.46306194   150.22074360
 H      7   1   2     3.101343267406   104.88143973    29.37009653
 H      7   1   2     3.055927093747   104.08062499   271.29794223
 H      2   1   3     2.049118033806   119.50174303   180.09476309
 H      3   2   1     2.040320636549   121.70706247   180.12843480
 H      5   4   3     2.040057876416   119.74359734   179.84321981
 H      6   5   4     2.045042773325   119.29479731   180.12529158
 N      4   3   2     2.775239155386   119.10404882   180.29231730
 O     15   4   3     2.311445695430   117.91527330   183.03170676
 O     15   4   3     2.310687350952   117.73863397     3.15187280
 H     16  15   4    26.161257128968   125.93327608   169.40709228

---------------------
BASIS SET INFORMATION
---------------------
There are 4 groups of distinct atoms

 Group   1 Type C   : 7s4p1d contracted to 3s2p1d pattern {511/31/1}
 Group   2 Type H   : 4s1p contracted to 2s1p pattern {31/1}
 Group   3 Type N   : 7s4p1d contracted to 3s2p1d pattern {511/31/1}
 Group   4 Type O   : 7s4p1d contracted to 3s2p1d pattern {511/31/1}

Atom   0C    basis set group =>   1
Atom   1C    basis set group =>   1
Atom   2C    basis set group =>   1
Atom   3C    basis set group =>   1
Atom   4C    basis set group =>   1
Atom   5C    basis set group =>   1
Atom   6C    basis set group =>   1
Atom   7H    basis set group =>   2
Atom   8H    basis set group =>   2
Atom   9H    basis set group =>   2
Atom  10H    basis set group =>   2
Atom  11H    basis set group =>   2
Atom  12H    basis set group =>   2
Atom  13H    basis set group =>   2
Atom  14N    basis set group =>   3
Atom  15O    basis set group =>   4
Atom  16O    basis set group =>   4
Atom  17H    basis set group =>   2
---------------------------------
AUXILIARY/J BASIS SET INFORMATION
---------------------------------
There are 4 groups of distinct atoms

 Group   1 Type C   : 12s5p4d2f1g contracted to 6s4p3d1f1g pattern {711111/2111/211/2/1}
 Group   2 Type H   : 5s2p1d contracted to 3s1p1d pattern {311/2/1}
 Group   3 Type N   : 12s5p4d2f1g contracted to 6s4p3d1f1g pattern {711111/2111/211/2/1}
 Group   4 Type O   : 12s5p4d2f1g contracted to 6s4p3d1f1g pattern {711111/2111/211/2/1}

Atom   0C    basis set group =>   1
Atom   1C    basis set group =>   1
Atom   2C    basis set group =>   1
Atom   3C    basis set group =>   1
Atom   4C    basis set group =>   1
Atom   5C    basis set group =>   1
Atom   6C    basis set group =>   1
Atom   7H    basis set group =>   2
Atom   8H    basis set group =>   2
Atom   9H    basis set group =>   2
Atom  10H    basis set group =>   2
Atom  11H    basis set group =>   2
Atom  12H    basis set group =>   2
Atom  13H    basis set group =>   2
Atom  14N    basis set group =>   3
Atom  15O    basis set group =>   4
Atom  16O    basis set group =>   4
Atom  17H    basis set group =>   2
------------------------------------------------------------------------------
                           ORCA GTO INTEGRAL CALCULATION
                           -- RI-GTO INTEGRALS CHOSEN --
------------------------------------------------------------------------------
------------------------------------------------------------------------------
                   ___                                                        
                  /   \      - P O W E R E D   B Y -                         
                 /     \                                                     
                 |  |  |   _    _      __       _____    __    __             
                 |  |  |  | |  | |    /  \     |  _  \  |  |  /  |          
                  \  \/   | |  | |   /    \    | | | |  |  | /  /          
                 / \  \   | |__| |  /  /\  \   | |_| |  |  |/  /          
                |  |  |   |  __  | /  /__\  \  |    /   |      \           
                |  |  |   | |  | | |   __   |  |    \   |  |\   \          
                \     /   | |  | | |  |  |  |  | |\  \  |  | \   \       
                 \___/    |_|  |_| |__|  |__|  |_| \__\ |__|  \__/        
                                                                              
                      - O R C A' S   B I G   F R I E N D -                    
                                      &                                       
                       - I N T E G R A L  F E E D E R -                       
                                                                              
 v1 FN, 2020, v2 2021                                                         
------------------------------------------------------------------------------


Reading SHARK input file para_products_optfreq_7.SHARKINP.tmp ... ok
----------------------
SHARK INTEGRAL PACKAGE
----------------------

Number of atoms                             ...     18
Number of basis functions                   ...    180
Number of shells                            ...     84
Maximum angular momentum                    ...      2
Integral batch strategy                     ... SHARK/LIBINT Hybrid
RI-J (if used) integral strategy            ... SPLIT-RIJ (Revised 2003 algorithm where possible)
Printlevel                                  ...      1
Contraction scheme used                     ... SEGMENTED contraction
Coulomb Range Separation                    ... NOT USED
Exchange Range Separation                   ... NOT USED
Finite Nucleus Model                        ... NOT USED
Auxiliary Coulomb fitting basis             ... AVAILABLE
   # of basis functions in Aux-J            ...    578
   # of shells in Aux-J                     ...    190
   Maximum angular momentum in Aux-J        ...      4
Auxiliary J/K fitting basis                 ... NOT available
Auxiliary Correlation fitting basis         ... NOT available
Auxiliary 'external' fitting basis          ... NOT available
Integral threshold                          ...     2.500000e-11
Primitive cut-off                           ...     2.500000e-12
Primitive pair pre-selection threshold      ...     2.500000e-12

Calculating pre-screening integrals         ... done (  0.2 sec) Dimension = 84
Organizing shell pair data                  ... done (  0.1 sec)
Shell pair information
Total number of shell pairs                 ...      3570
Shell pairs after pre-screening             ...      2987
Total number of primitive shell pairs       ...     13034
Primitive shell pairs kept                  ...      7866
          la=0 lb=0:    891 shell pairs
          la=1 lb=0:   1080 shell pairs
          la=1 lb=1:    345 shell pairs
          la=2 lb=0:    385 shell pairs
          la=2 lb=1:    238 shell pairs
          la=2 lb=2:     48 shell pairs

Calculating one electron integrals          ... done (  0.1 sec)
Calculating RI/J V-Matrix + Cholesky decomp.... done (  0.1 sec)
Calculating Nuclear repulsion               ... done (  0.0 sec) ENN=    491.532000408088 Eh

SHARK setup successfully completed in   0.8 seconds

Maximum memory used throughout the entire GTOINT-calculation: 24.5 MB
-------------------------------------------------------------------------------
                                 ORCA SCF
-------------------------------------------------------------------------------

------------
SCF SETTINGS
------------
Hamiltonian:
 Density Functional     Method          .... DFT(GTOs)
 Exchange Functional    Exchange        .... B88
   X-Alpha parameter    XAlpha          ....  0.666667
   Becke's b parameter  XBeta           ....  0.004200
 Correlation Functional Correlation     .... LYP
 LDA part of GGA corr.  LDAOpt          .... VWN-5
 Gradients option       PostSCFGGA      .... off
 Hybrid DFT is turned on
   Fraction HF Exchange ScalHFX         ....  0.200000
   Scaling of DF-GGA-X  ScalDFX         ....  0.720000
   Scaling of DF-GGA-C  ScalDFC         ....  0.810000
   Scaling of DF-LDA-C  ScalLDAC        ....  1.000000
   Perturbative correction              ....  0.000000
   Density functional embedding theory  .... OFF
   NL short-range parameter             ....  4.800000
 RI-approximation to the Coulomb term is turned on
   Number of AuxJ basis functions       .... 578
   RIJ-COSX (HFX calculated with COS-X)).... on


General Settings:
 Integral files         IntName         .... para_products_optfreq_7
 Hartree-Fock type      HFTyp           .... RHF
 Total Charge           Charge          ....    1
 Multiplicity           Mult            ....    1
 Number of Electrons    NEL             ....   72
 Basis Dimension        Dim             ....  180
 Nuclear Repulsion      ENuc            ....    491.5320004081 Eh

Convergence Acceleration:
 DIIS                   CNVDIIS         .... on
   Start iteration      DIISMaxIt       ....    12
   Startup error        DIISStart       ....  0.200000
   # of expansion vecs  DIISMaxEq       ....     5
   Bias factor          DIISBfac        ....   1.050
   Max. coefficient     DIISMaxC        ....  10.000
 Trust-Rad. Augm. Hess. CNVTRAH         .... auto
   Auto Start mean grad. ratio tolernc. ....  1.125000
   Auto Start start iteration           ....    20
   Auto Start num. interpolation iter.  ....    10
   Max. Number of Micro iterations      ....    16
   Max. Number of Macro iterations      .... Maxiter - #DIIS iter
   Number of Davidson start vectors     ....     2
   Converg. threshold I  (grad. norm)   ....   1.000e-05
   Converg. threshold II (energy diff.) ....   1.000e-08
   Grad. Scal. Fac. for Micro threshold ....   0.100
   Minimum threshold for Micro iter.    ....   0.010
   NR start threshold (gradient norm)   ....   0.001
   Initial trust radius                 ....   0.400
   Minimum AH scaling param. (alpha)    ....   1.000
   Maximum AH scaling param. (alpha)    .... 1000.000
   Orbital update algorithm             .... Taylor
   White noise on init. David. guess    .... on
   Maximum white noise                  ....   0.010
   Quad. conv. algorithm                .... NR
 SOSCF                  CNVSOSCF        .... on
   Start iteration      SOSCFMaxIt      ....   150
   Startup grad/error   SOSCFStart      ....  0.003300
 Level Shifting         CNVShift        .... on
   Level shift para.    LevelShift      ....    0.2500
   Turn off err/grad.   ShiftErr        ....    0.0010
 Zerner damping         CNVZerner       .... off
 Static damping         CNVDamp         .... on
   Fraction old density DampFac         ....    0.7000
   Max. Damping (<1)    DampMax         ....    0.9800
   Min. Damping (>=0)   DampMin         ....    0.0000
   Turn off err/grad.   DampErr         ....    0.1000
 Fernandez-Rico         CNVRico         .... off

SCF Procedure:
 Maximum # iterations   MaxIter         ....   125
 SCF integral mode      SCFMode         .... Direct
   Integral package                     .... SHARK and LIBINT hybrid scheme
 Reset frequency        DirectResetFreq ....    20
 Integral Threshold     Thresh          ....  2.500e-11 Eh
 Primitive CutOff       TCut            ....  2.500e-12 Eh

Convergence Tolerance:
 Convergence Check Mode ConvCheckMode   .... Total+1el-Energy
 Convergence forced     ConvForced      .... 0
 Energy Change          TolE            ....  1.000e-08 Eh
 1-El. energy change                    ....  1.000e-05 Eh
 Orbital Gradient       TolG            ....  1.000e-05
 Orbital Rotation angle TolX            ....  1.000e-05
 DIIS Error             TolErr          ....  5.000e-07


Diagonalization of the overlap matrix:
Smallest eigenvalue                        ... 2.605e-04
Time for diagonalization                   ...    0.013 sec
Threshold for overlap eigenvalues          ... 1.000e-08
Number of eigenvalues below threshold      ... 0
Time for construction of square roots      ...    0.034 sec
Total time needed                          ...    0.048 sec

Time for model grid setup =    1.370 sec

------------------------------
INITIAL GUESS: MODEL POTENTIAL
------------------------------
Loading Hartree-Fock densities                     ... done
Calculating cut-offs                               ... done
Initializing the effective Hamiltonian             ... done
Setting up the integral package (SHARK)            ... done
Starting the Coulomb interaction                   ... done (   1.5 sec)
Reading the grid                                   ... done
Mapping shells                                     ... done
Starting the XC term evaluation                    ... done (   1.1 sec)
  promolecular density results
     # of electrons  =     73.003280530
     EX              =    -61.139920614
     EC              =     -2.466469071
     EX+EC           =    -63.606389685
Transforming the Hamiltonian                       ... done (   0.0 sec)
Diagonalizing the Hamiltonian                      ... done (   0.0 sec)
Back transforming the eigenvectors                 ... done (   0.0 sec)
Now organizing SCF variables                       ... done
                      ------------------
                      INITIAL GUESS DONE (   3.9 sec)
                      ------------------
-------------------
DFT GRID GENERATION
-------------------

General Integration Accuracy     IntAcc      ... 4.388
Radial Grid Type                 RadialGrid  ... OptM3 with GC (2021)
Angular Grid (max. ang.)         AngularGrid ... 4 (Lebedev-302)
Angular grid pruning method      GridPruning ... 4 (adaptive)
Weight generation scheme         WeightScheme... Becke
Basis function cutoff            BFCut       ... 1.0000e-11
Integration weight cutoff        WCut        ... 1.0000e-14
Angular grids for H and He will be reduced by one unit
Partially contracted basis set               ... off
Rotationally invariant grid construction     ... off

Total number of grid points                  ...    86324
Total number of batches                      ...     1360
Average number of points per batch           ...       63
Average number of grid points per atom       ...     4796
Time for grid setup =    5.665 sec

--------------------
COSX GRID GENERATION
--------------------

GRIDX 1
-------
General Integration Accuracy     IntAcc      ... 3.816
Radial Grid Type                 RadialGrid  ... OptM3 with GC (2021)
Angular Grid (max. ang.)         AngularGrid ... 1 (Lebedev-50)
Angular grid pruning method      GridPruning ... 4 (adaptive)
Weight generation scheme         WeightScheme... Becke
Basis function cutoff            BFCut       ... 1.0000e-11
Integration weight cutoff        WCut        ... 1.0000e-14
Angular grids for H and He will be reduced by one unit
Partially contracted basis set               ... on
Rotationally invariant grid construction     ... off

Total number of grid points                  ...    11009
Total number of batches                      ...      181
Average number of points per batch           ...       60
Average number of grid points per atom       ...      612
UseSFitting                                  ... on

GRIDX 2
-------
General Integration Accuracy     IntAcc      ... 4.020
Radial Grid Type                 RadialGrid  ... OptM3 with GC (2021)
Angular Grid (max. ang.)         AngularGrid ... 2 (Lebedev-110)
Angular grid pruning method      GridPruning ... 4 (adaptive)
Weight generation scheme         WeightScheme... Becke
Basis function cutoff            BFCut       ... 1.0000e-11
Integration weight cutoff        WCut        ... 1.0000e-14
Angular grids for H and He will be reduced by one unit
Partially contracted basis set               ... on
Rotationally invariant grid construction     ... off

Total number of grid points                  ...    24230
Total number of batches                      ...      388
Average number of points per batch           ...       62
Average number of grid points per atom       ...     1346
UseSFitting                                  ... on

GRIDX 3
-------
General Integration Accuracy     IntAcc      ... 4.338
Radial Grid Type                 RadialGrid  ... OptM3 with GC (2021)
Angular Grid (max. ang.)         AngularGrid ... 3 (Lebedev-194)
Angular grid pruning method      GridPruning ... 4 (adaptive)
Weight generation scheme         WeightScheme... Becke
Basis function cutoff            BFCut       ... 1.0000e-11
Integration weight cutoff        WCut        ... 1.0000e-14
Angular grids for H and He will be reduced by one unit
Partially contracted basis set               ... on
Rotationally invariant grid construction     ... off

Total number of grid points                  ...    53376
Total number of batches                      ...      843
Average number of points per batch           ...       63
Average number of grid points per atom       ...     2965
UseSFitting                                  ... on

Time for X-Grid setup             =    7.196 sec

--------------
SCF ITERATIONS
--------------
ITER       Energy         Delta-E        Max-DP      RMS-DP      [F,P]     Damp
               ***  Starting incremental Fock matrix formation  ***
  0   -474.9892236868   0.000000000000 0.20729196  0.00348791  0.2094164 0.7000
  1   -475.2312303223  -0.242006635590 0.15059156  0.00219584  0.0715588 0.7000
                               ***Turning on DIIS***
  2   -475.2066972520   0.024533070320 0.35788351  0.00493983  0.0360849 0.0000
  3   -475.1866548877   0.020042364308 0.03408936  0.00116329  0.0711520 0.0000
  4   -475.2161618863  -0.029506998545 0.01997648  0.00063951  0.0488634 0.0000
  5   -475.2274803402  -0.011318453975 0.02019255  0.00071458  0.0345812 0.0000
  6   -475.2355001546  -0.008019814386 0.01462410  0.00062738  0.0213654 0.0000
  7   -475.2396478031  -0.004147648425 0.00989015  0.00046441  0.0105368 0.0000
  8   -475.2409734558  -0.001325652794 0.00674548  0.00015017  0.0034155 0.0000
                      *** Initiating the SOSCF procedure ***
                           *** Shutting down DIIS ***
                      *** Re-Reading the Fockian *** 
                      *** Removing any level shift *** 
ITER      Energy       Delta-E        Grad      Rot      Max-DP    RMS-DP
  9   -475.24113061  -0.0001571494  0.001097  0.001097  0.001327  0.000047
               *** Restarting incremental Fock matrix formation ***
 10   -475.24116047  -0.0000298668  0.000609  0.002564  0.001000  0.000043
 11   -475.24116268  -0.0000022081  0.000697  0.000694  0.000764  0.000028
 12   -475.24116609  -0.0000034064  0.000157  0.000742  0.000342  0.000015
 13   -475.24116638  -0.0000002903  0.000251  0.000463  0.000465  0.000011
 14   -475.24116641  -0.0000000365  0.000167  0.000428  0.000193  0.000009
 15   -475.24116680  -0.0000003832  0.000045  0.000148  0.000100  0.000004
 16   -475.24116679   0.0000000042  0.000041  0.000086  0.000085  0.000003
 17   -475.24116684  -0.0000000479  0.000012  0.000032  0.000046  0.000001
 18   -475.24116684   0.0000000040  0.000014  0.000014  0.000023  0.000001
                  ***Gradient check signals convergence***
              ***Rediagonalizing the Fockian in SOSCF/NRSCF***

               *****************************************************
               *                     SUCCESS                       *
               *           SCF CONVERGED AFTER  19 CYCLES          *
               *****************************************************

Old exchange energy                            =    -12.249974663 Eh
New exchange energy                            =    -12.249940911 Eh
Exchange energy change after final integration =      0.000033752 Eh
Total energy after final integration           =   -475.241133091 Eh
Final COS-X integration done in                =    32.411 sec

----------------
TOTAL SCF ENERGY
----------------

Total Energy       :         -475.24113309 Eh          -12931.96868 eV

Components:
Nuclear Repulsion  :          491.53200041 Eh           13375.26572 eV
Electronic Energy  :         -966.77313350 Eh          -26307.23440 eV
One Electron Energy:        -1616.88679807 Eh          -43997.72658 eV
Two Electron Energy:          650.11366457 Eh           17690.49218 eV
Max COSX asymmetry :            0.00000384 Eh               0.00010 eV

Virial components:
Potential Energy   :         -945.79589201 Eh          -25736.41464 eV
Kinetic Energy     :          470.55475892 Eh           12804.44596 eV
Virial Ratio       :            2.00995925


DFT components:
N(Alpha)           :       36.000047295087 electrons
N(Beta)            :       36.000047295087 electrons
N(Total)           :       72.000094590173 electrons
E(X)               :      -48.814415084356 Eh       
E(C)               :       -2.889241161696 Eh       
E(XC)              :      -51.703656246052 Eh       
DFET-embed. en.    :        0.000000000000 Eh       

---------------
SCF CONVERGENCE
---------------

  Last Energy change         ...   -6.9571e-09  Tolerance :   1.0000e-08
  Last MAX-Density change    ...    3.1086e-15  Tolerance :   1.0000e-07
  Last RMS-Density change    ...    4.3089e-17  Tolerance :   5.0000e-09
  Last Orbital Gradient      ...    2.1139e-06  Tolerance :   1.0000e-05
  Last Orbital Rotation      ...    1.1006e-05  Tolerance :   1.0000e-05

             **** THE GBW FILE WAS UPDATED (para_products_optfreq_7.gbw) ****
             **** DENSITY para_products_optfreq_7.scfp WAS UPDATED ****
             **** ENERGY FILE WAS UPDATED (para_products_optfreq_7.en.tmp) ****
             **** THE GBW FILE WAS UPDATED (para_products_optfreq_7.gbw) ****
             **** DENSITY para_products_optfreq_7.scfp WAS UPDATED ****
----------------
ORBITAL ENERGIES
----------------

  NO   OCC          E(Eh)            E(eV) 
   0   2.0000     -19.193895      -522.2924 
   1   2.0000     -19.193864      -522.2916 
   2   2.0000     -14.591216      -397.0472 
   3   2.0000     -10.332947      -281.1738 
   4   2.0000     -10.280418      -279.7444 
   5   2.0000     -10.260537      -279.2034 
   6   2.0000     -10.251241      -278.9504 
   7   2.0000     -10.249845      -278.9125 
   8   2.0000     -10.246053      -278.8093 
   9   2.0000     -10.244786      -278.7748 
  10   2.0000      -1.253825       -34.1183 
  11   2.0000      -1.078810       -29.3559 
  12   2.0000      -0.924668       -25.1615 
  13   2.0000      -0.848276       -23.0828 
  14   2.0000      -0.803215       -21.8566 
  15   2.0000      -0.757042       -20.6002 
  16   2.0000      -0.667673       -18.1683 
  17   2.0000      -0.658023       -17.9057 
  18   2.0000      -0.616265       -16.7694 
  19   2.0000      -0.584958       -15.9175 
  20   2.0000      -0.573255       -15.5991 
  21   2.0000      -0.546296       -14.8655 
  22   2.0000      -0.515864       -14.0374 
  23   2.0000      -0.503553       -13.7024 
  24   2.0000      -0.485449       -13.2097 
  25   2.0000      -0.484101       -13.1730 
  26   2.0000      -0.444006       -12.0820 
  27   2.0000      -0.409370       -11.1395 
  28   2.0000      -0.400424       -10.8961 
  29   2.0000      -0.386465       -10.5162 
  30   2.0000      -0.362339        -9.8597 
  31   2.0000      -0.345432        -9.3997 
  32   2.0000      -0.344011        -9.3610 
  33   2.0000      -0.325956        -8.8697 
  34   2.0000      -0.316906        -8.6235 
  35   2.0000      -0.300859        -8.1868 
  36   0.0000      -0.497230       -13.5303 
  37   0.0000      -0.126845        -3.4516 
  38   0.0000      -0.096744        -2.6325 
  39   0.0000      -0.069020        -1.8781 
  40   0.0000      -0.063192        -1.7195 
  41   0.0000      -0.031167        -0.8481 
  42   0.0000       0.002929         0.0797 
  43   0.0000       0.034359         0.9350 
  44   0.0000       0.065599         1.7850 
  45   0.0000       0.099210         2.6996 
  46   0.0000       0.115555         3.1444 
  47   0.0000       0.119456         3.2505 
  48   0.0000       0.140896         3.8340 
  49   0.0000       0.180072         4.9000 
  50   0.0000       0.183747         5.0000 
  51   0.0000       0.217902         5.9294 
  52   0.0000       0.232174         6.3178 
  53   0.0000       0.242190         6.5903 
  54   0.0000       0.260511         7.0889 
  55   0.0000       0.268360         7.3024 
  56   0.0000       0.297582         8.0976 
  57   0.0000       0.337062         9.1719 
  58   0.0000       0.351846         9.5742 
  59   0.0000       0.363535         9.8923 
  60   0.0000       0.370618        10.0850 
  61   0.0000       0.397742        10.8231 
  62   0.0000       0.400841        10.9074 
  63   0.0000       0.423151        11.5145 
  64   0.0000       0.431082        11.7303 
  65   0.0000       0.437090        11.8938 
  66   0.0000       0.438247        11.9253 
  67   0.0000       0.459493        12.5034 
  68   0.0000       0.465892        12.6776 
  69   0.0000       0.489177        13.3112 
  70   0.0000       0.496703        13.5160 
  71   0.0000       0.539156        14.6712 
  72   0.0000       0.555653        15.1201 
  73   0.0000       0.556113        15.1326 
  74   0.0000       0.561770        15.2865 
  75   0.0000       0.581475        15.8227 
  76   0.0000       0.592381        16.1195 
  77   0.0000       0.618745        16.8369 
  78   0.0000       0.623043        16.9539 
  79   0.0000       0.630672        17.1615 
  80   0.0000       0.639672        17.4064 
  81   0.0000       0.658623        17.9220 
  82   0.0000       0.674692        18.3593 
  83   0.0000       0.682575        18.5738 
  84   0.0000       0.723253        19.6807 
  85   0.0000       0.731626        19.9086 
  86   0.0000       0.748687        20.3728 
  87   0.0000       0.773961        21.0605 
  88   0.0000       0.784469        21.3465 
  89   0.0000       0.835278        22.7291 
  90   0.0000       0.862732        23.4761 
  91   0.0000       0.894958        24.3530 
  92   0.0000       0.919511        25.0212 
  93   0.0000       0.942703        25.6523 
  94   0.0000       0.956094        26.0166 
  95   0.0000       0.986182        26.8354 
  96   0.0000       1.012066        27.5397 
  97   0.0000       1.050516        28.5860 
  98   0.0000       1.050517        28.5860 
  99   0.0000       1.050523        28.5862 
 100   0.0000       1.061696        28.8902 
 101   0.0000       1.142817        31.0976 
 102   0.0000       1.150224        31.2992 
 103   0.0000       1.173504        31.9327 
 104   0.0000       1.180025        32.1101 
 105   0.0000       1.189745        32.3746 
 106   0.0000       1.194454        32.5027 
 107   0.0000       1.221886        33.2492 
 108   0.0000       1.223952        33.3054 
 109   0.0000       1.239005        33.7150 
 110   0.0000       1.283842        34.9351 
 111   0.0000       1.302708        35.4485 
 112   0.0000       1.309597        35.6359 
 113   0.0000       1.351019        36.7631 
 114   0.0000       1.372053        37.3355 
 115   0.0000       1.390425        37.8354 
 116   0.0000       1.436457        39.0880 
 117   0.0000       1.440927        39.2096 
 118   0.0000       1.449357        39.4390 
 119   0.0000       1.459557        39.7166 
 120   0.0000       1.537765        41.8447 
 121   0.0000       1.611743        43.8577 
 122   0.0000       1.633670        44.4544 
 123   0.0000       1.640640        44.6441 
 124   0.0000       1.659127        45.1471 
 125   0.0000       1.668388        45.3991 
 126   0.0000       1.681015        45.7427 
 127   0.0000       1.695668        46.1415 
 128   0.0000       1.699477        46.2451 
 129   0.0000       1.711426        46.5703 
 130   0.0000       1.743906        47.4541 
 131   0.0000       1.746714        47.5305 
 132   0.0000       1.758093        47.8402 
 133   0.0000       1.804844        49.1123 
 134   0.0000       1.822303        49.5874 
 135   0.0000       1.888139        51.3789 
 136   0.0000       1.896525        51.6071 
 137   0.0000       1.932803        52.5942 
 138   0.0000       1.947565        52.9959 
 139   0.0000       1.957743        53.2729 
 140   0.0000       1.971494        53.6471 
 141   0.0000       2.039960        55.5101 
 142   0.0000       2.046898        55.6989 
 143   0.0000       2.071658        56.3727 
 144   0.0000       2.109102        57.3916 
 145   0.0000       2.115817        57.5743 
 146   0.0000       2.205375        60.0113 
 147   0.0000       2.239813        60.9484 
 148   0.0000       2.252521        61.2942 
 149   0.0000       2.278756        62.0081 
 150   0.0000       2.280446        62.0541 
 151   0.0000       2.305195        62.7276 
 152   0.0000       2.316041        63.0227 
 153   0.0000       2.323672        63.2303 
 154   0.0000       2.342258        63.7361 
 155   0.0000       2.376653        64.6720 
 156   0.0000       2.497746        67.9671 
 157   0.0000       2.502475        68.0958 
 158   0.0000       2.559770        69.6549 
 159   0.0000       2.572762        70.0084 
 160   0.0000       2.584675        70.3326 
 161   0.0000       2.600978        70.7762 
 162   0.0000       2.617336        71.2213 
 163   0.0000       2.636528        71.7436 
 164   0.0000       2.661280        72.4171 
 165   0.0000       2.690224        73.2047 
 166   0.0000       2.721559        74.0574 
 167   0.0000       2.726091        74.1807 
 168   0.0000       2.830725        77.0279 
 169   0.0000       2.851861        77.6031 
 170   0.0000       2.946222        80.1708 
 171   0.0000       3.001807        81.6833 
 172   0.0000       3.016950        82.0954 
 173   0.0000       3.134804        85.3024 
 174   0.0000       3.249385        88.4203 
 175   0.0000       3.264497        88.8315 
 176   0.0000       3.351036        91.1863 
 177   0.0000       3.562685        96.9456 
 178   0.0000       3.741556       101.8129 
 179   0.0000       3.744129       101.8829 

                    ********************************
                    * MULLIKEN POPULATION ANALYSIS *
                    ********************************

-----------------------
MULLIKEN ATOMIC CHARGES
-----------------------
   0 C :    0.075903
   1 C :    0.012683
   2 C :   -0.002821
   3 C :    0.180450
   4 C :   -0.010653
   5 C :    0.011511
   6 C :   -0.180040
   7 H :    0.068274
   8 H :    0.061431
   9 H :    0.078960
  10 H :   -0.016130
  11 H :    0.000803
  12 H :   -0.000238
  13 H :   -0.018785
  14 N :    0.231528
  15 O :   -0.248052
  16 O :   -0.244823
  17 H :    1.000000
Sum of atomic charges:    1.0000000

--------------------------------
MULLIKEN REDUCED ORBITAL CHARGES
--------------------------------
  0 C s       :     3.036160  s :     3.036160
      pz      :     0.924554  p :     2.844391
      px      :     0.955815
      py      :     0.964022
      dz2     :     0.008007  d :     0.043547
      dxz     :     0.006721
      dyz     :     0.010322
      dx2y2   :     0.009100
      dxy     :     0.009396
  1 C s       :     3.209160  s :     3.209160
      pz      :     0.933669  p :     2.743369
      px      :     0.957862
      py      :     0.851838
      dz2     :     0.007321  d :     0.034788
      dxz     :     0.006373
      dyz     :     0.007300
      dx2y2   :     0.007337
      dxy     :     0.006456
  2 C s       :     3.269188  s :     3.269188
      pz      :     0.875058  p :     2.698524
      px      :     0.855738
      py      :     0.967728
      dz2     :     0.006612  d :     0.035110
      dxz     :     0.005921
      dyz     :     0.007824
      dx2y2   :     0.007570
      dxy     :     0.007182
  3 C s       :     3.003299  s :     3.003299
      pz      :     0.920533  p :     2.767126
      px      :     0.962671
      py      :     0.883923
      dz2     :     0.008557  d :     0.049126
      dxz     :     0.008332
      dyz     :     0.012311
      dx2y2   :     0.009048
      dxy     :     0.010878
  4 C s       :     3.274133  s :     3.274133
      pz      :     0.924149  p :     2.701405
      px      :     0.968732
      py      :     0.808523
      dz2     :     0.007405  d :     0.035114
      dxz     :     0.006039
      dyz     :     0.007846
      dx2y2   :     0.007649
      dxy     :     0.006175
  5 C s       :     3.212126  s :     3.212126
      pz      :     0.912630  p :     2.741677
      px      :     0.903596
      py      :     0.925452
      dz2     :     0.006161  d :     0.034686
      dxz     :     0.005518
      dyz     :     0.008514
      dx2y2   :     0.006943
      dxy     :     0.007550
  6 C s       :     3.470308  s :     3.470308
      pz      :     0.887084  p :     2.688677
      px      :     0.906239
      py      :     0.895354
      dz2     :     0.003477  d :     0.021055
      dxz     :     0.005095
      dyz     :     0.006181
      dx2y2   :     0.001899
      dxy     :     0.004402
  7 H s       :     0.922532  s :     0.922532
      pz      :     0.003729  p :     0.009194
      px      :     0.001115
      py      :     0.004351
  8 H s       :     0.930571  s :     0.930571
      pz      :     0.001438  p :     0.007998
      px      :     0.003427
      py      :     0.003134
  9 H s       :     0.912638  s :     0.912638
      pz      :     0.001976  p :     0.008402
      px      :     0.004411
      py      :     0.002015
 10 H s       :     0.992674  s :     0.992674
      pz      :     0.004666  p :     0.023456
      px      :     0.004720
      py      :     0.014069
 11 H s       :     0.975156  s :     0.975156
      pz      :     0.007799  p :     0.024041
      px      :     0.010369
      py      :     0.005873
 12 H s       :     0.976193  s :     0.976193
      pz      :     0.004900  p :     0.024045
      px      :     0.004457
      py      :     0.014687
 13 H s       :     0.995262  s :     0.995262
      pz      :     0.007137  p :     0.023523
      px      :     0.010108
      py      :     0.006279
 14 N s       :     3.296679  s :     3.296679
      pz      :     1.151706  p :     3.356751
      px      :     1.135017
      py      :     1.070028
      dz2     :     0.017981  d :     0.115041
      dxz     :     0.012357
      dyz     :     0.028809
      dx2y2   :     0.027211
      dxy     :     0.028683
 15 O s       :     3.857331  s :     3.857331
      pz      :     1.658499  p :     4.368684
      px      :     1.576223
      py      :     1.133963
      dz2     :     0.002842  d :     0.022037
      dxz     :     0.000721
      dyz     :     0.005215
      dx2y2   :     0.007434
      dxy     :     0.005826
 16 O s       :     3.857920  s :     3.857920
      pz      :     1.475684  p :     4.364804
      px      :     1.292818
      py      :     1.596303
      dz2     :     0.003526  d :     0.022098
      dxz     :     0.005088
      dyz     :     0.004276
      dx2y2   :     0.004128
      dxy     :     0.005080
 17 H s       :     0.000000  s :     0.000000
      pz      :     0.000000  p :     0.000000
      px      :     0.000000
      py      :     0.000000


                     *******************************
                     * LOEWDIN POPULATION ANALYSIS *
                     *******************************

----------------------
LOEWDIN ATOMIC CHARGES
----------------------
   0 C :   -0.048042
   1 C :   -0.010897
   2 C :    0.002850
   3 C :   -0.028728
   4 C :    0.003877
   5 C :   -0.013083
   6 C :   -0.109177
   7 H :    0.069695
   8 H :    0.064290
   9 H :    0.074985
  10 H :    0.030535
  11 H :    0.039775
  12 H :    0.039375
  13 H :    0.030054
  14 N :    0.277230
  15 O :   -0.212995
  16 O :   -0.209745
  17 H :    1.000000

-------------------------------
LOEWDIN REDUCED ORBITAL CHARGES
-------------------------------
  0 C s       :     2.865677  s :     2.865677
      pz      :     1.005781  p :     3.072900
      px      :     1.004370
      py      :     1.062749
      dz2     :     0.017996  d :     0.109465
      dxz     :     0.017048
      dyz     :     0.026714
      dx2y2   :     0.022920
      dxy     :     0.024787
  1 C s       :     2.856079  s :     2.856079
      pz      :     1.021798  p :     3.063324
      px      :     1.012844
      py      :     1.028682
      dz2     :     0.017637  d :     0.091494
      dxz     :     0.018556
      dyz     :     0.019591
      dx2y2   :     0.018964
      dxy     :     0.016745
  2 C s       :     2.857551  s :     2.857551
      pz      :     1.012826  p :     3.047514
      px      :     0.998792
      py      :     1.035896
      dz2     :     0.015955  d :     0.092085
      dxz     :     0.015167
      dyz     :     0.022116
      dx2y2   :     0.020054
      dxy     :     0.018792
  3 C s       :     2.858547  s :     2.858547
      pz      :     0.960916  p :     3.045324
      px      :     1.033294
      py      :     1.051114
      dz2     :     0.020705  d :     0.124856
      dxz     :     0.021517
      dyz     :     0.031449
      dx2y2   :     0.023276
      dxy     :     0.027909
  4 C s       :     2.857529  s :     2.857529
      pz      :     1.009470  p :     3.046603
      px      :     0.997135
      py      :     1.039999
      dz2     :     0.018092  d :     0.091991
      dxz     :     0.017475
      dyz     :     0.020680
      dx2y2   :     0.019233
      dxy     :     0.016511
  5 C s       :     2.854419  s :     2.854419
      pz      :     1.020420  p :     3.067150
      px      :     1.006254
      py      :     1.040476
      dz2     :     0.014829  d :     0.091514
      dxz     :     0.014134
      dyz     :     0.024138
      dx2y2   :     0.018758
      dxy     :     0.019655
  6 C s       :     3.149997  s :     3.149997
      pz      :     0.988096  p :     2.916108
      px      :     0.963520
      py      :     0.964491
      dz2     :     0.006852  d :     0.043072
      dxz     :     0.010583
      dyz     :     0.013256
      dx2y2   :     0.003331
      dxy     :     0.009050
  7 H s       :     0.911668  s :     0.911668
      pz      :     0.006865  p :     0.018637
      px      :     0.002017
      py      :     0.009755
  8 H s       :     0.920334  s :     0.920334
      pz      :     0.002194  p :     0.015376
      px      :     0.007185
      py      :     0.005997
  9 H s       :     0.908285  s :     0.908285
      pz      :     0.004241  p :     0.016730
      px      :     0.008768
      py      :     0.003721
 10 H s       :     0.900369  s :     0.900369
      pz      :     0.013880  p :     0.069096
      px      :     0.014833
      py      :     0.040383
 11 H s       :     0.886977  s :     0.886977
      pz      :     0.023570  p :     0.073249
      px      :     0.030845
      py      :     0.018833
 12 H s       :     0.887375  s :     0.887375
      pz      :     0.015722  p :     0.073249
      px      :     0.014485
      py      :     0.043043
 13 H s       :     0.900564  s :     0.900564
      pz      :     0.020830  p :     0.069383
      px      :     0.029492
      py      :     0.019061
 14 N s       :     3.051872  s :     3.051872
      pz      :     1.157844  p :     3.429655
      px      :     1.136466
      py      :     1.135345
      dz2     :     0.036990  d :     0.241243
      dxz     :     0.026410
      dyz     :     0.059013
      dx2y2   :     0.056483
      dxy     :     0.062347
 15 O s       :     3.620892  s :     3.620892
      pz      :     1.665248  p :     4.549786
      px      :     1.588409
      py      :     1.296129
      dz2     :     0.006028  d :     0.042318
      dxz     :     0.001043
      dyz     :     0.008875
      dx2y2   :     0.016442
      dxy     :     0.009930
 16 O s       :     3.620733  s :     3.620733
      pz      :     1.529207  p :     4.546591
      px      :     1.376467
      py      :     1.640918
      dz2     :     0.005051  d :     0.042422
      dxz     :     0.011473
      dyz     :     0.008438
      dx2y2   :     0.006337
      dxy     :     0.011123
 17 H s       :     0.000000  s :     0.000000
      pz      :     0.000000  p :     0.000000
      px      :     0.000000
      py      :     0.000000


                      *****************************
                      * MAYER POPULATION ANALYSIS *
                      *****************************

  NA   - Mulliken gross atomic population
  ZA   - Total nuclear charge
  QA   - Mulliken gross atomic charge
  VA   - Mayer's total valence
  BVA  - Mayer's bonded valence
  FA   - Mayer's free valence

  ATOM       NA         ZA         QA         VA         BVA        FA
  0 C      5.9241     6.0000     0.0759     3.7764     3.7764    -0.0000
  1 C      5.9873     6.0000     0.0127     3.8330     3.8330    -0.0000
  2 C      6.0028     6.0000    -0.0028     3.8275     3.8275    -0.0000
  3 C      5.8196     6.0000     0.1804     3.7730     3.7730     0.0000
  4 C      6.0107     6.0000    -0.0107     3.8266     3.8266    -0.0000
  5 C      5.9885     6.0000     0.0115     3.8264     3.8264     0.0000
  6 C      6.1800     6.0000    -0.1800     3.6600     3.6600    -0.0000
  7 H      0.9317     1.0000     0.0683     0.9807     0.9807    -0.0000
  8 H      0.9386     1.0000     0.0614     0.9827     0.9827    -0.0000
  9 H      0.9210     1.0000     0.0790     0.9752     0.9752    -0.0000
 10 H      1.0161     1.0000    -0.0161     0.9947     0.9947     0.0000
 11 H      0.9992     1.0000     0.0008     1.0176     1.0176    -0.0000
 12 H      1.0002     1.0000    -0.0002     1.0180     1.0180    -0.0000
 13 H      1.0188     1.0000    -0.0188     0.9943     0.9943     0.0000
 14 N      6.7685     7.0000     0.2315     3.9764     3.9764     0.0000
 15 O      8.2481     8.0000    -0.2481     1.9557     1.9557    -0.0000
 16 O      8.2448     8.0000    -0.2448     1.9586     1.9586     0.0000
 17 H      0.0000     1.0000     1.0000     0.0000     0.0000    -0.0000

  Mayer bond orders larger than 0.100000
B(  0-C ,  1-C ) :   1.3364 B(  0-C ,  5-C ) :   1.3615 B(  0-C ,  6-C ) :   0.9875 
B(  1-C ,  2-C ) :   1.3744 B(  1-C , 10-H ) :   0.9844 B(  2-C ,  3-C ) :   1.3524 
B(  2-C , 11-H ) :   0.9888 B(  3-C ,  4-C ) :   1.3791 B(  3-C , 14-N ) :   0.8636 
B(  4-C ,  5-C ) :   1.3434 B(  4-C , 12-H ) :   0.9887 B(  5-C , 13-H ) :   0.9864 
B(  6-C ,  7-H ) :   0.9054 B(  6-C ,  8-H ) :   0.9038 B(  6-C ,  9-H ) :   0.8832 
B( 14-N , 15-O ) :   1.5421 B( 14-N , 16-O ) :   1.5445 B( 15-O , 16-O ) :   0.2778 


-------
TIMINGS
-------

Total SCF time: 0 days 0 hours 6 min 11 sec 

Total time                  ....     371.364 sec
Sum of individual times     ....     369.957 sec  ( 99.6%)

Fock matrix formation       ....     352.259 sec  ( 94.9%)
  Split-RI-J                ....      26.853 sec  (  7.6% of F)
  Chain of spheres X        ....     273.457 sec  ( 77.6% of F)
  XC integration            ....      51.497 sec  ( 14.6% of F)
    Basis function eval.    ....      19.894 sec  ( 38.6% of XC)
    Density eval.           ....      14.560 sec  ( 28.3% of XC)
    XC-Functional eval.     ....       3.777 sec  (  7.3% of XC)
    XC-Potential eval.      ....      10.387 sec  ( 20.2% of XC)
Diagonalization             ....       0.298 sec  (  0.1%)
Density matrix formation    ....       0.042 sec  (  0.0%)
Population analysis         ....       0.138 sec  (  0.0%)
Initial guess               ....       2.559 sec  (  0.7%)
Orbital Transformation      ....       0.000 sec  (  0.0%)
Orbital Orthonormalization  ....       0.000 sec  (  0.0%)
DIIS solution               ....       0.306 sec  (  0.1%)
SOSCF solution              ....       0.124 sec  (  0.0%)
Grid generation             ....      14.231 sec  (  3.8%)

Maximum memory used throughout the entire SCF-calculation: 74.7 MB


-------------------------------------------------------------------------------
                          DFT DISPERSION CORRECTION                            
                                                                               
                                 DFTD4 V2.5                                    
-------------------------------------------------------------------------------
The B3LYP functional is recognized
Active option DFTDOPT                   ...         5   

Starting D4
-------------------------   ----------------
Dispersion correction           -0.028814159
-------------------------   ----------------


-------------------------   --------------------
FINAL SINGLE POINT ENERGY      -475.269947250024
-------------------------   --------------------

------------------------------------------------------------------------------
                         ORCA SCF GRADIENT CALCULATION
------------------------------------------------------------------------------

 ... reading COSX grid (gridx3)
Gradient of the Kohn-Sham DFT energy:
Kohn-Sham wavefunction type      ... RKS
Hartree-Fock exchange scaling    ...    0.200
Number of operators              ...    1
Number of atoms                  ...   18
Basis set dimensions             ...  180
Integral neglect threshold       ... 2.5e-11
Integral primitive cutoff        ... 2.5e-12
SHARK Integral package           ... ON

Nuc. rep. gradient       (SHARK) ... done (  0.0 sec)
HCore & Overlap gradient (SHARK) ... done (  0.8 sec)
RI-J gradient            (SHARK) ... done (  5.7 sec)
COSX-gradient                    ... done ( 40.3 sec)
Exchange-correlation gradient    ... done
Dispersion correction            ... Starting D4


------------------- 
Dispersion Gradient 
------------------- 
   1  :    0.000156980    0.000146768    0.000256386
   2  :   -0.000207002    0.000446253    0.000043956
   3  :   -0.000339949    0.000347959   -0.000177256
   4  :   -0.000172793   -0.000174707   -0.000282594
   5  :    0.000219899   -0.000469422   -0.000011051
   6  :    0.000324124   -0.000329609    0.000196942
   7  :    0.000420882    0.000370778    0.000680818
   8  :    0.000083096    0.000080718    0.000174121
   9  :    0.000026355    0.000140327    0.000197168
  10  :    0.000200971    0.000156813    0.000098387
  11  :   -0.000101612    0.000185661   -0.000004148
  12  :   -0.000143194    0.000127663   -0.000086829
  13  :    0.000075859   -0.000194866   -0.000023176
  14  :    0.000132658   -0.000155660    0.000063125
  15  :   -0.000270189   -0.000272249   -0.000449366
  16  :   -0.000095779   -0.000378049   -0.000296901
  17  :   -0.000310753   -0.000029012   -0.000380220
  18  :    0.000000447    0.000000634    0.000000637

  |G| =    0.001691120

done

------------------
CARTESIAN GRADIENT
------------------

   1   C   :   -0.000836834   -0.016358515   -0.010051305
   2   C   :   -0.000640196   -0.001265602   -0.000403771
   3   C   :    0.000591490    0.002892779    0.002948561
   4   C   :    0.005114337   -0.000915778    0.005568467
   5   C   :   -0.004346725   -0.000543861   -0.003958430
   6   C   :   -0.000996520    0.006045667    0.002291777
   7   C   :   -0.012044876   -0.010041384   -0.023386822
   8   H   :    0.016173710   -0.075786509    0.051308935
   9   H   :   -0.068558408    0.055792650    0.024280351
  10   H   :    0.064231267    0.036969895   -0.049389714
  11   H   :    0.001353759   -0.005259011   -0.002121378
  12   H   :    0.005121282   -0.002871910    0.004019807
  13   H   :   -0.001349230    0.006782688    0.001867250
  14   H   :   -0.005189538    0.003775185   -0.004232036
  15   N   :    0.003034981    0.002456995    0.004130371
  16   O   :   -0.000731337   -0.001370127   -0.001365878
  17   O   :   -0.000953391   -0.000153452   -0.001419401
  18   H   :   -0.000059558   -0.000103658   -0.000075582

Difference to translation invariance:
           :   -0.0000857848    0.0000460525    0.0000112006

Difference to rotation invariance:
           :    0.0000722221    0.0003058557   -0.0003984208

Norm of the cartesian gradient     ...    0.1628624638
RMS gradient                       ...    0.0221627741
MAX gradient                       ...    0.0757865089

-------
TIMINGS
-------

Total SCF gradient time            ...       65.730 sec

One electron gradient       ....       0.841 sec  (  1.3%)
RI-J Coulomb gradient       ....       5.734 sec  (  8.7%)
COSX gradient               ....      40.310 sec  ( 61.3%)
XC gradient                 ....      16.710 sec  ( 25.4%)

Maximum memory used throughout the entire SCFGRAD-calculation: 60.1 MB
------------------------------------------------------------------------------
                         ORCA GEOMETRY RELAXATION STEP
------------------------------------------------------------------------------

Reading the OPT-File                    .... done
Getting information on internals        .... done
Copying old internal coords+grads       .... done
Making the new internal coordinates     .... (new redundants).... done
Validating the new internal coordinates .... (new redundants).... done
Calculating the B-matrix                .... done
Calculating the G,G- and P matrices     .... done
Transforming gradient to internals      .... done
Projecting the internal gradient        .... done
Number of atoms                         ....  18
Number of internal coordinates          ....  95
Current Energy                          ....  -475.269947250 Eh
Current gradient norm                   ....     0.162862464 Eh/bohr
Maximum allowed component of the step   ....  0.300
Current trust radius                    ....  0.300
Evaluating the initial hessian          ....  (Almloef) done
Projecting the Hessian                  .... done
Forming the augmented Hessian           .... done
Diagonalizing the augmented Hessian     .... done
Last element of RFO vector              ....  0.766042470
Lowest eigenvalues of augmented Hessian:
 -0.136519835  0.000001429  0.012618856  0.021721312  0.026529249
Length of the computed step             ....  0.839104862
Warning: the length of the step is outside the trust region - taking restricted step instead
The input lambda is                     ....    -0.136520
   iter:   1  x=   -0.220075  g=    7.349576 f(x)=     0.614097
   iter:   2  x=   -0.322037  g=    2.473113 f(x)=     0.252162
   iter:   3  x=   -0.418633  g=    0.962395 f(x)=     0.092964
   iter:   4  x=   -0.472861  g=    0.487067 f(x)=     0.026413
   iter:   5  x=   -0.483955  g=    0.352509 f(x)=     0.003911
   iter:   6  x=   -0.484315  g=    0.331311 f(x)=     0.000119
   iter:   7  x=   -0.484315  g=    0.330652 f(x)=     0.000000
   iter:   8  x=   -0.484315  g=    0.330652 f(x)=     0.000000
   iter:   9  x=   -0.484315  g=    0.330652 f(x)=     0.000000
The output lambda is                    ....    -0.484315 (9 iterations)
The final length of the internal step   ....  0.300000000
Converting the step to cartesian space:
 Initial RMS(Int)=    0.0307793506
Transforming coordinates:
 Iter   0:  RMS(Cart)=    0.0452666310 RMS(Int)=    0.0306455548
 Iter   1:  RMS(Cart)=    0.0016474575 RMS(Int)=    0.0006871378
 Iter   2:  RMS(Cart)=    0.0001556376 RMS(Int)=    0.0000720121
 Iter   3:  RMS(Cart)=    0.0000133257 RMS(Int)=    0.0000061900
 Iter   4:  RMS(Cart)=    0.0000011372 RMS(Int)=    0.0000005271
 Iter   5:  RMS(Cart)=    0.0000000971 RMS(Int)=    0.0000000449
Imposing constraints:
 Iter   0:  RMS(Cart)=    0.0000000492 RMS(Int)=    0.0000000049
CONVERGED
done
Storing new coordinates                 .... done

                                .--------------------.
          ----------------------|Geometry convergence|-------------------------
          Item                value                   Tolerance       Converged
          ---------------------------------------------------------------------
          RMS gradient        0.0168723176            0.0001000000      NO
          MAX gradient        0.0919970626            0.0003000000      NO
          RMS step            0.0307793506            0.0020000000      NO
          MAX step            0.1712370497            0.0040000000      NO
          ........................................................
          Max(Bonds)      0.0906      Max(Angles)    2.05
          Max(Dihed)        0.10      Max(Improp)    0.00
          ---------------------------------------------------------------------

The optimization has not yet converged - more geometry cycles are needed


    ---------------------------------------------------------------------------
                         Redundant Internal Coordinates
                            (Angstroem and degrees)

        Definition                    Value    dE/dq     Step     New-Value
    ----------------------------------------------------------------------------
     1. B(C   1,C   0)                1.4030 -0.007512 -0.0000    1.4030 C 
     2. B(C   2,C   1)                1.3796 -0.010463 -0.0000    1.3796 C 
     3. B(C   3,C   2)                1.3926 -0.005036 -0.0000    1.3926 C 
     4. B(C   4,C   3)                1.3825 -0.010643  0.0000    1.3825 C 
     5. B(C   5,C   4)                1.3905 -0.004226  0.0000    1.3905 C 
     6. B(C   5,C   0)                1.3915 -0.011932  0.0000    1.3915 C 
     7. B(C   6,C   0)                1.5028  0.005368  0.0000    1.5028 C 
     8. B(H   7,C   6)                1.5802  0.091997 -0.0895    1.4906   
     9. B(H   8,C   6)                1.6412  0.091074 -0.0906    1.5505   
    10. B(H   9,C   6)                1.6171  0.088415 -0.0872    1.5299   
    11. B(H  10,C   1)                1.0843 -0.005785  0.0036    1.0879   
    12. B(H  11,C   2)                1.0797 -0.007105  0.0044    1.0841   
    13. B(H  12,C   4)                1.0796 -0.007151  0.0044    1.0840   
    14. B(H  13,C   5)                1.0822 -0.007673  0.0047    1.0869   
    15. B(N  14,C   3)                1.4686 -0.001940 -0.0000    1.4686 C 
    16. B(O  15,N  14)                1.2232  0.001065 -0.0000    1.2232 C 
    17. B(O  16,N  14)                1.2228  0.001267  0.0000    1.2228 C 
    18. B(H  17,N  14)               14.5954  0.000946 -0.0000   14.5953   
    19. B(H  17,O  15)               13.8439 -0.000574 -0.0000   13.8439   
    20. B(H  17,O  16)               14.3241 -0.000236 -0.0001   14.3240   
    21. A(C   1,C   0,C   5)          118.48  0.000397   -0.00    118.48 C 
    22. A(C   1,C   0,C   6)          119.44 -0.005455   -0.00    119.44 C 
    23. A(C   5,C   0,C   6)          122.07  0.005064    0.00    122.07 C 
    24. A(C   2,C   1,H  10)          119.30 -0.000719    0.04    119.34   
    25. A(C   0,C   1,C   2)          121.20  0.000170    0.00    121.20 C 
    26. A(C   0,C   1,H  10)          119.50  0.000549   -0.04    119.46   
    27. A(C   1,C   2,H  11)          121.71 -0.000470    0.03    121.74   
    28. A(C   3,C   2,H  11)          119.57  0.000487   -0.03    119.54   
    29. A(C   1,C   2,C   3)          118.72 -0.000016    0.00    118.72 C 
    30. A(C   2,C   3,N  14)          119.10  0.000103   -0.00    119.10 C 
[...]
      9      -0.059542   0.052674   0.168984  -0.073580   0.259872  -0.000047
     10       0.089693   0.110545  -0.195417  -0.059137  -0.345295   0.000231
     11      -0.021174   0.112873   0.087526  -0.110309   0.115437   0.000071
     12      -0.026556  -0.109859  -0.170625   0.171760  -0.178665   0.000013
     13      -0.079347   0.022601   0.083808   0.077504   0.143850  -0.000144
     14      -0.068009  -0.108639  -0.144926   0.225427  -0.124006  -0.000032
     15       0.062161   0.024028   0.071291  -0.080004   0.060051   0.000450
     16       0.043905  -0.118004  -0.174290  -0.249033  -0.203676   0.000156
     17       0.089806  -0.031669  -0.008211  -0.209023  -0.035356   0.000601
     18      -0.014187  -0.023038   0.010496  -0.015706   0.009364  -0.020680
     19      -0.005063  -0.024779  -0.023591  -0.020717  -0.021408  -0.041256
     20      -0.021380  -0.036634  -0.000304  -0.027975  -0.000432  -0.026513
     21       0.136882  -0.024628   0.063918  -0.009906   0.050004   0.269344
     22       0.415314  -0.008004   0.146341   0.033862   0.115443  -0.255283
     23       0.248699  -0.020272   0.107089   0.017535   0.087288   0.244927
     24      -0.092869   0.005609  -0.071596  -0.009124  -0.058210  -0.397618
     25      -0.434785  -0.014869  -0.116481  -0.056298  -0.088825   0.232763
     26       0.181076  -0.011227  -0.027797   0.009012  -0.028269   0.343020
     27       0.353682  -0.014432   0.041732   0.017879   0.025303   0.366448
     28      -0.323886  -0.014893  -0.081566  -0.038490  -0.061244   0.503521
     29      -0.108377  -0.008131  -0.065773  -0.027756  -0.054548  -0.285554
     30       0.154460   0.297844  -0.056167   0.294636  -0.090707   0.001814
     31      -0.071223   0.105733  -0.103166  -0.088534  -0.111349  -0.008779
     32       0.133773   0.373288  -0.110515   0.272007  -0.152926  -0.002508
     33       0.045807   0.084416  -0.070609   0.061644  -0.136403  -0.000813
     34      -0.159642   0.376781  -0.015242  -0.302653  -0.050187   0.000170
     35      -0.028302   0.279850  -0.086901  -0.084611  -0.173990  -0.000888
     36       0.136979   0.272699   0.113205  -0.193609   0.085663   0.000047
     37      -0.085378   0.054153   0.107242   0.067894   0.196351  -0.000737
     38       0.108216   0.324457   0.175614  -0.178586   0.192675  -0.000412
     39       0.033122   0.093377   0.120838  -0.010488   0.118908  -0.005872
     40      -0.279261   0.327190   0.099228   0.319307   0.168705   0.002767
     41      -0.104427   0.259730   0.178643   0.142710   0.210208  -0.005210
     42      -0.004304  -0.001222   0.298134  -0.005955  -0.216838   0.000003
     43       0.016958   0.011688  -0.458251  -0.037581   0.330538   0.000021
     44       0.000584   0.003430   0.146152  -0.024091  -0.102373   0.000003
     45       0.003546   0.003994  -0.071237  -0.007197   0.053554  -0.000013
     46      -0.022795  -0.025254   0.258848   0.032298  -0.155032  -0.000003
     47      -0.005737  -0.006513   0.031551   0.006117  -0.007232  -0.000016
     48       0.010107  -0.009047  -0.187478   0.011730   0.106162  -0.000002
     49      -0.005080   0.004232   0.135963  -0.004779  -0.092540  -0.000021
     50       0.009902  -0.008610  -0.160025   0.011576   0.082646  -0.000010
     51       0.000039  -0.000129   0.000657  -0.000133  -0.000553   0.000004
     52      -0.000057  -0.000028  -0.000630  -0.000054   0.000543   0.000008
     53      -0.000002  -0.000136   0.000462  -0.000140  -0.000394   0.000000
                 48         49         50         51         52         53    
      0      -0.000408   0.000090  -0.002558  -0.000105  -0.000716  -0.000048
      1      -0.000363  -0.001338   0.001191   0.003486   0.000334   0.000894
      2      -0.000191  -0.000477  -0.002193   0.001628  -0.000599   0.000394
      3       0.000350  -0.000366   0.023261  -0.002752   0.000700  -0.000567
      4      -0.000349   0.001284  -0.081642   0.008100  -0.012274   0.002405
      5      -0.000322   0.000384  -0.015385   0.001051  -0.005351   0.000581
      6       0.000043  -0.000035  -0.006004   0.001440   0.061959  -0.005749
      7      -0.000003  -0.000323   0.006562  -0.001339  -0.035971   0.003843
      8      -0.000060  -0.000170  -0.003277   0.000909   0.049780  -0.004370
      9       0.000016  -0.000038  -0.000281  -0.000096  -0.001118  -0.002772
     10       0.000006   0.000182   0.000264   0.000325   0.003592   0.001182
     11       0.000039   0.000047  -0.000177   0.000052   0.000562  -0.002439
     12      -0.000051   0.000130  -0.000024  -0.004465   0.001773   0.022756
     13      -0.000011  -0.000076  -0.000201   0.008431  -0.007685  -0.082657
     14      -0.000040   0.000068  -0.000125  -0.000704  -0.001863  -0.016042
     15      -0.000431  -0.002269   0.006203   0.061155  -0.000154   0.009201
     16       0.000059   0.001479  -0.003314  -0.038209   0.000577  -0.002286
     17       0.000027  -0.001891   0.005067   0.047351   0.000117   0.008854
     18      -0.062165   0.056582   0.001179   0.001796   0.000044   0.000057
     19      -0.022695  -0.067643  -0.001482  -0.001909  -0.000019  -0.000083
     20       0.064038   0.029627   0.000016   0.001467   0.000000   0.000049
     21      -0.096544  -0.541319  -0.006563  -0.021393   0.000284  -0.000710
     22       0.074420   0.496093   0.007336   0.016970   0.000087   0.000328
     23      -0.067021  -0.493735  -0.005296  -0.020496   0.000408  -0.000774
     24       0.485742  -0.264921  -0.009336  -0.004182  -0.000057  -0.000085
     25      -0.309521   0.154508   0.006536   0.001527   0.000182  -0.000210
     26      -0.422599   0.242476   0.010612   0.001942   0.000470  -0.000391
     27       0.357215   0.136662   0.004840   0.001795   0.000253  -0.000167
     28       0.510406   0.163507   0.004910   0.002327   0.000056  -0.000173
     29      -0.271425  -0.093561  -0.001664  -0.002593   0.000220  -0.000255
     30      -0.002481   0.003080  -0.266558   0.026794  -0.031580   0.006628
     31       0.004335  -0.013511   0.929905  -0.091409   0.116758  -0.023603
     32       0.002253  -0.003861   0.173375  -0.016472   0.023734  -0.004565
     33       0.000313  -0.001135   0.089804  -0.019474  -0.698165   0.063702
     34      -0.000137   0.000765  -0.055042   0.011830   0.409100  -0.037628
     35       0.000321  -0.000875   0.070833  -0.015410  -0.559764   0.050973
     36      -0.000001  -0.000823  -0.000210   0.034141  -0.023962  -0.253163
     37       0.000291   0.003306   0.001015  -0.118851   0.088877   0.932912
     38       0.000071   0.000777   0.000288  -0.021438   0.017772   0.184624
     39       0.002436   0.024342  -0.071113  -0.697365   0.002241  -0.086994
     40      -0.001298  -0.013100   0.043081   0.428688  -0.001629   0.050951
     41       0.001878   0.020497  -0.055651  -0.543337   0.001613  -0.069075
     42      -0.000038  -0.000041  -0.000056  -0.000098   0.000927   0.000377
     43      -0.000030  -0.000046   0.000148   0.000058  -0.000881  -0.001174
     44      -0.000006  -0.000065  -0.000003  -0.000082   0.000638  -0.000131
     45       0.000006  -0.000005   0.000013   0.000097  -0.000173  -0.000506
     46       0.000014   0.000042  -0.000055  -0.000019   0.000009   0.000394
     47       0.000000   0.000012  -0.000009   0.000099  -0.000189  -0.000375
     48       0.000015   0.000012   0.000015   0.000040  -0.000237   0.000062
     49       0.000001   0.000001  -0.000133  -0.000000   0.000736   0.000090
     50       0.000004   0.000016  -0.000049   0.000044   0.000096   0.000114
     51      -0.000001  -0.000002   0.000002   0.000002   0.000002  -0.000014
     52      -0.000001  -0.000003   0.000005  -0.000013   0.000004   0.000004
     53      -0.000003  -0.000005   0.000003  -0.000002   0.000003  -0.000009


-----------
IR SPECTRUM
-----------

 Mode   freq       eps      Int      T**2         TX        TY        TZ
       cm**-1   L/(mol*cm) km/mol    a.u.
----------------------------------------------------------------------------
  9:     40.95   0.003738   18.89  0.028486  (-0.149657  0.040896  0.066454)
 10:     49.60   0.002375   12.00  0.014945  ( 0.107349 -0.048662 -0.032451)
 11:    105.77   0.000759    3.84  0.002240  (-0.032872 -0.011366  0.032103)
 12:    223.67   0.000306    1.55  0.000427  (-0.012039  0.016159 -0.004554)
 13:    278.89   0.000968    4.89  0.001084  (-0.022961 -0.009615  0.021538)
 14:    360.07   0.000111    0.56  0.000096  (-0.006986  0.006087 -0.003197)
 15:    369.09   0.000307    1.55  0.000259  ( 0.005808  0.009643  0.011508)
 16:    413.16   0.000001    0.00  0.000001  (-0.000380 -0.000439  0.000562)
 17:    481.33   0.001208    6.11  0.000783  ( 0.018948  0.010128 -0.017939)
 18:    542.72   0.000313    1.58  0.000180  (-0.008654  0.010263 -0.000021)
 19:    636.16   0.000922    4.66  0.000452  (-0.008474 -0.011207 -0.015971)
 20:    648.00   0.000111    0.56  0.000053  ( 0.004695 -0.005386  0.001513)
 21:    706.44   0.000991    5.01  0.000438  ( 0.014494  0.006083 -0.013810)
 22:    756.41   0.006078   30.72  0.002508  (-0.035678 -0.015635  0.031466)
 23:    813.12   0.001427    7.21  0.000548  ( 0.010436  0.011219  0.017693)
 24:    862.82   0.000284    1.44  0.000103  (-0.007313 -0.003322  0.006182)
 25:    863.05   0.002654   13.41  0.000960  ( 0.019718  0.008030 -0.022502)
 26:    894.89   0.007640   38.61  0.002664  ( 0.022868  0.026980  0.037596)
 27:   1002.11   0.000805    4.07  0.000251  ( 0.009432  0.006752  0.010780)
 28:   1007.08   0.000414    2.09  0.000128  (-0.008714 -0.004269  0.005833)
 29:   1019.30   0.000031    0.16  0.000010  ( 0.000340 -0.000075 -0.003063)
 30:   1035.26   0.000743    3.75  0.000224  ( 0.006393  0.006851  0.011666)
 31:   1054.72   0.001271    6.42  0.000376  ( 0.015629  0.010266 -0.005144)
 32:   1129.31   0.002174   10.99  0.000601  (-0.012211  0.020926 -0.003713)
 33:   1141.91   0.008819   44.57  0.002410  ( 0.021805  0.024691  0.036402)
 34:   1203.07   0.000069    0.35  0.000018  (-0.000244 -0.003721 -0.002027)
 35:   1249.93   0.000654    3.31  0.000163  ( 0.006956  0.006024  0.008867)
 36:   1316.38   0.000113    0.57  0.000027  (-0.000325  0.004789  0.001940)
 37:   1397.70   0.000354    1.79  0.000079  (-0.001500  0.008722 -0.000841)
 38:   1418.67   0.013153   66.47  0.002893  (-0.011784 -0.040167 -0.033780)
 39:   1422.78   0.060158  304.01  0.013195  ( 0.054144  0.054361  0.085487)
 40:   1452.26   0.000383    1.94  0.000082  ( 0.003127  0.008013 -0.002890)
 41:   1457.74   0.001349    6.82  0.000289  (-0.011848 -0.001939  0.012025)
 42:   1479.95   0.001276    6.45  0.000269  ( 0.009540 -0.012503  0.004664)
 43:   1544.61   0.002795   14.12  0.000565  ( 0.008232  0.015759  0.015766)
 44:   1647.78   0.030178  152.51  0.005715  ( 0.039680 -0.061196  0.019896)
 45:   1693.51   0.007658   38.70  0.001411  ( 0.018882  0.016329  0.028071)
 46:   1701.79   0.014635   73.96  0.002684  (-0.025770  0.043345 -0.011869)
 47:   3028.43   0.002171   10.97  0.000224  (-0.006865 -0.008701 -0.010043)
 48:   3096.20   0.001455    7.35  0.000147  (-0.006872 -0.001681  0.009828)
 49:   3130.93   0.001902    9.61  0.000190  ( 0.009704 -0.006379  0.007397)
 50:   3178.58   0.001331    6.73  0.000131  ( 0.003271 -0.010790 -0.001886)
 51:   3181.32   0.001336    6.75  0.000131  ( 0.008097 -0.002673  0.007640)
 52:   3230.30   0.000361    1.83  0.000035  (-0.004028  0.000703 -0.004264)
 53:   3230.89   0.000419    2.12  0.000040  ( 0.000577  0.005402  0.003306)

* The epsilon (eps) is given for a Dirac delta lineshape.
** The dipole moment derivative (T) already includes vibrational overlap.

The first frequency considered to be a vibration is 9
The total number of vibrations considered is 45


--------------------------
THERMOCHEMISTRY AT 298.15K
--------------------------

Temperature         ... 298.15 K
Pressure            ... 1.00 atm
Total Mass          ... 138.15 AMU

Throughout the following assumptions are being made:
  (1) The electronic state is orbitally nondegenerate
  (2) There are no thermally accessible electronically excited states
  (3) Hindered rotations indicated by low frequency modes are not
      treated as such but are treated as vibrations and this may
      cause some error
  (4) All equations used are the standard statistical mechanics
      equations for an ideal gas
  (5) All vibrations are strictly harmonic

freq.      40.95  E(vib)   ...       0.54 
freq.      49.60  E(vib)   ...       0.52 
freq.     105.77  E(vib)   ...       0.45 
freq.     223.67  E(vib)   ...       0.33 
freq.     278.89  E(vib)   ...       0.28 
freq.     360.07  E(vib)   ...       0.22 
freq.     369.09  E(vib)   ...       0.21 
freq.     413.16  E(vib)   ...       0.19 
freq.     481.33  E(vib)   ...       0.15 
freq.     542.72  E(vib)   ...       0.12 
freq.     636.16  E(vib)   ...       0.09 
freq.     648.00  E(vib)   ...       0.08 
freq.     706.44  E(vib)   ...       0.07 
freq.     756.41  E(vib)   ...       0.06 
freq.     813.12  E(vib)   ...       0.05 
freq.     862.82  E(vib)   ...       0.04 
freq.     863.05  E(vib)   ...       0.04 
freq.     894.89  E(vib)   ...       0.03 
freq.    1002.11  E(vib)   ...       0.02 
freq.    1007.08  E(vib)   ...       0.02 
freq.    1019.30  E(vib)   ...       0.02 
freq.    1035.26  E(vib)   ...       0.02 
freq.    1054.72  E(vib)   ...       0.02 
freq.    1129.31  E(vib)   ...       0.01 
freq.    1141.91  E(vib)   ...       0.01 
freq.    1203.07  E(vib)   ...       0.01 
freq.    1249.93  E(vib)   ...       0.01 
freq.    1316.38  E(vib)   ...       0.01 
freq.    1397.70  E(vib)   ...       0.00 
freq.    1418.67  E(vib)   ...       0.00 
freq.    1422.78  E(vib)   ...       0.00 
freq.    1452.26  E(vib)   ...       0.00 
freq.    1457.74  E(vib)   ...       0.00 
freq.    1479.95  E(vib)   ...       0.00 
freq.    1544.61  E(vib)   ...       0.00 
freq.    1647.78  E(vib)   ...       0.00 
freq.    1693.51  E(vib)   ...       0.00 
freq.    1701.79  E(vib)   ...       0.00 
freq.    3028.43  E(vib)   ...       0.00 
freq.    3096.20  E(vib)   ...       0.00 
freq.    3130.93  E(vib)   ...       0.00 
freq.    3178.58  E(vib)   ...       0.00 
freq.    3181.32  E(vib)   ...       0.00 
freq.    3230.30  E(vib)   ...       0.00 
freq.    3230.89  E(vib)   ...       0.00 

------------
INNER ENERGY
------------

The inner energy is: U= E(el) + E(ZPE) + E(vib) + E(rot) + E(trans)
    E(el)   - is the total energy from the electronic structure calculation
              = E(kin-el) + E(nuc-el) + E(el-el) + E(nuc-nuc)
    E(ZPE)  - the the zero temperature vibrational energy from the frequency calculation
    E(vib)  - the the finite temperature correction to E(ZPE) due to population
              of excited vibrational states
    E(rot)  - is the rotational thermal energy
    E(trans)- is the translational thermal energy

Summary of contributions to the inner energy U:
Electronic energy                ...   -475.48372661 Eh
Zero point energy                ...      0.13099156 Eh      82.20 kcal/mol
Thermal vibrational correction   ...      0.00584016 Eh       3.66 kcal/mol
Thermal rotational correction    ...      0.00141627 Eh       0.89 kcal/mol
Thermal translational correction ...      0.00141627 Eh       0.89 kcal/mol
-----------------------------------------------------------------------
Total thermal energy                   -475.34406235 Eh


Summary of corrections to the electronic energy:
(perhaps to be used in another calculation)
Total thermal correction                  0.00867270 Eh       5.44 kcal/mol
Non-thermal (ZPE) correction              0.13099156 Eh      82.20 kcal/mol
-----------------------------------------------------------------------
Total correction                          0.13966426 Eh      87.64 kcal/mol


--------
ENTHALPY
--------

The enthalpy is H = U + kB*T
                kB is Boltzmann's constant
Total free energy                 ...   -475.34406235 Eh 
Thermal Enthalpy correction       ...      0.00094421 Eh       0.59 kcal/mol
-----------------------------------------------------------------------
Total Enthalpy                    ...   -475.34311814 Eh


Note: Only C1 symmetry has been detected, increase convergence thresholds 
      if your molecule has a higher symmetry. Symmetry factor of 1.0 is   
      used for the rotational entropy correction. 
 

Note: Rotational entropy computed according to Herzberg 
Infrared and Raman Spectra, Chapter V,1, Van Nostrand Reinhold, 1945 
Point Group:  C1, Symmetry Number:   1  
Rotational constants in cm-1:     0.127519     0.019514     0.017039 

Vibrational entropy computed according to the QRRHO of S. Grimme
Chem.Eur.J. 2012 18 9955


-------
ENTROPY
-------

The entropy contributions are T*S = T*(S(el)+S(vib)+S(rot)+S(trans))
     S(el)   - electronic entropy
     S(vib)  - vibrational entropy
     S(rot)  - rotational entropy
     S(trans)- translational entropy
The entropies will be listed as multiplied by the temperature to get
units of energy

Electronic entropy                ...      0.00000000 Eh      0.00 kcal/mol
Vibrational entropy               ...      0.01003157 Eh      6.29 kcal/mol
Rotational entropy                ...      0.01426399 Eh      8.95 kcal/mol
Translational entropy             ...      0.01932890 Eh     12.13 kcal/mol
-----------------------------------------------------------------------
Final entropy term                ...      0.04362446 Eh     27.37 kcal/mol

In case the symmetry of your molecule has not been determined correctly
or in case you have a reason to use a different symmetry number we print 
out the resulting rotational entropy values for sn=1,12 :
 --------------------------------------------------------
|  sn= 1 | S(rot)=       0.01426399 Eh      8.95 kcal/mol|
|  sn= 2 | S(rot)=       0.01360954 Eh      8.54 kcal/mol|
|  sn= 3 | S(rot)=       0.01322670 Eh      8.30 kcal/mol|
|  sn= 4 | S(rot)=       0.01295508 Eh      8.13 kcal/mol|
|  sn= 5 | S(rot)=       0.01274439 Eh      8.00 kcal/mol|
|  sn= 6 | S(rot)=       0.01257225 Eh      7.89 kcal/mol|
|  sn= 7 | S(rot)=       0.01242670 Eh      7.80 kcal/mol|
|  sn= 8 | S(rot)=       0.01230062 Eh      7.72 kcal/mol|
|  sn= 9 | S(rot)=       0.01218941 Eh      7.65 kcal/mol|
|  sn=10 | S(rot)=       0.01208993 Eh      7.59 kcal/mol|
|  sn=11 | S(rot)=       0.01199994 Eh      7.53 kcal/mol|
|  sn=12 | S(rot)=       0.01191779 Eh      7.48 kcal/mol|
 --------------------------------------------------------


-------------------
GIBBS FREE ENERGY
-------------------

The Gibbs free energy is G = H - T*S

Total enthalpy                    ...   -475.34311814 Eh 
Total entropy correction          ...     -0.04362446 Eh    -27.37 kcal/mol
-----------------------------------------------------------------------
Final Gibbs free energy         ...   -475.38674260 Eh

For completeness - the Gibbs free energy minus the electronic energy
G-E(el)                           ...      0.09698401 Eh     60.86 kcal/mol


Timings for individual modules:

Sum of individual times         ...     9007.250 sec (= 150.121 min)
GTO integral calculation        ...       22.397 sec (=   0.373 min)   0.2 %
SCF iterations                  ...     5694.726 sec (=  94.912 min)  63.2 %
SCF Gradient evaluation         ...     1676.532 sec (=  27.942 min)  18.6 %
Geometry relaxation             ...        6.637 sec (=   0.111 min)   0.1 %
Analytical frequency calculation...     1606.958 sec (=  26.783 min)  17.8 %
                             ****ORCA TERMINATED NORMALLY****
TOTAL RUN TIME: 0 days 2 hours 30 minutes 31 seconds 4 msec
