
                                 *****************
                                 * O   R   C   A *
                                 *****************

                                            #,                                       
                                            ###                                      
                                            ####                                     
                                            #####                                    
                                            ######                                   
                                           ########,                                 
                                     ,,################,,,,,                         
                               ,,#################################,,                 
                          ,,##########################################,,             
                       ,#########################################, ''#####,          
                    ,#############################################,,   '####,        
                  ,##################################################,,,,####,       
                ,###########''''           ''''###############################       
              ,#####''   ,,,,##########,,,,          '''####'''          '####       
            ,##' ,,,,###########################,,,                        '##       
           ' ,,###''''                  '''############,,,                           
         ,,##''                                '''############,,,,        ,,,,,,###''
      ,#''                                            '''#######################'''  
     '                                                          ''''####''''         
             ,#######,   #######,   ,#######,      ##                                
            ,#'     '#,  ##    ##  ,#'     '#,    #''#        ######   ,####,        
            ##       ##  ##   ,#'  ##            #'  '#       #        #'  '#        
            ##       ##  #######   ##           ,######,      #####,   #    #        
            '#,     ,#'  ##    ##  '#,     ,#' ,#      #,         ##   #,  ,#        
             '#######'   ##     ##  '#######'  #'      '#     #####' # '####'        



                  #######################################################
                  #                        -***-                        #
                  #          Department of theory and spectroscopy      #
                  #    Directorship and core code : Frank Neese         #
                  #        Max Planck Institute fuer Kohlenforschung    #
                  #                Kaiser Wilhelm Platz 1               #
                  #                 D-45470 Muelheim/Ruhr               #
                  #                      Germany                        #
                  #                                                     #
                  #                  All rights reserved                #
                  #                        -***-                        #
                  #######################################################



                         Program Version 5.0.4 -  RELEASE  -

 With contributions from (in alphabetic order):
   Daniel Aravena         : Magnetic Suceptibility
   Michael Atanasov       : Ab Initio Ligand Field Theory (pilot matlab implementation)
   Alexander A. Auer      : GIAO ZORA, VPT2 properties, NMR spectrum
   Ute Becker             : Parallelization
   Giovanni Bistoni       : ED, misc. LED, open-shell LED, HFLD
   Martin Brehm           : Molecular dynamics
   Dmytro Bykov           : SCF Hessian
   Vijay G. Chilkuri      : MRCI spin determinant printing, contributions to CSF-ICE
   Dipayan Datta          : RHF DLPNO-CCSD density
   Achintya Kumar Dutta   : EOM-CC, STEOM-CC
   Dmitry Ganyushin       : Spin-Orbit,Spin-Spin,Magnetic field MRCI
   Miquel Garcia          : C-PCM and meta-GGA Hessian, CC/C-PCM, Gaussian charge scheme
   Yang Guo               : DLPNO-NEVPT2, F12-NEVPT2, CIM, IAO-localization
   Andreas Hansen         : Spin unrestricted coupled pair/coupled cluster methods
   Benjamin Helmich-Paris : MC-RPA, TRAH-SCF, COSX integrals
   Lee Huntington         : MR-EOM, pCC
   Robert Izsak           : Overlap fitted RIJCOSX, COSX-SCS-MP3, EOM
   Marcus Kettner         : VPT2
   Christian Kollmar      : KDIIS, OOCD, Brueckner-CCSD(T), CCSD density, CASPT2, CASPT2-K
   Simone Kossmann        : Meta GGA functionals, TD-DFT gradient, OOMP2, MP2 Hessian
   Martin Krupicka        : Initial AUTO-CI
   Lucas Lang             : DCDCAS
   Marvin Lechner         : AUTO-CI (C++ implementation), FIC-MRCC
   Dagmar Lenk            : GEPOL surface, SMD
   Dimitrios Liakos       : Extrapolation schemes; Compound Job, initial MDCI parallelization
   Dimitrios Manganas     : Further ROCIS development; embedding schemes
   Dimitrios Pantazis     : SARC Basis sets
   Anastasios Papadopoulos: AUTO-CI, single reference methods and gradients
   Taras Petrenko         : DFT Hessian,TD-DFT gradient, ASA, ECA, R-Raman, ABS, FL, XAS/XES, NRVS
   Peter Pinski           : DLPNO-MP2, DLPNO-MP2 Gradient
   Christoph Reimann      : Effective Core Potentials
   Marius Retegan         : Local ZFS, SOC
   Christoph Riplinger    : Optimizer, TS searches, QM/MM, DLPNO-CCSD(T), (RO)-DLPNO pert. Triples
   Tobias Risthaus        : Range-separated hybrids, TD-DFT gradient, RPA, STAB
   Michael Roemelt        : Original ROCIS implementation
   Masaaki Saitow         : Open-shell DLPNO-CCSD energy and density
   Barbara Sandhoefer     : DKH picture change effects
   Avijit Sen             : IP-ROCIS
   Kantharuban Sivalingam : CASSCF convergence, NEVPT2, FIC-MRCI
   Bernardo de Souza      : ESD, SOC TD-DFT
   Georgi Stoychev        : AutoAux, RI-MP2 NMR, DLPNO-MP2 response
   Willem Van den Heuvel  : Paramagnetic NMR
   Boris Wezisla          : Elementary symmetry handling
   Frank Wennmohs         : Technical directorship


 We gratefully acknowledge several colleagues who have allowed us to
 interface, adapt or use parts of their codes:
   Stefan Grimme, W. Hujo, H. Kruse, P. Pracht,  : VdW corrections, initial TS optimization,
                  C. Bannwarth, S. Ehlert          DFT functionals, gCP, sTDA/sTD-DF
   Ed Valeev, F. Pavosevic, A. Kumar             : LibInt (2-el integral package), F12 methods
   Garnet Chan, S. Sharma, J. Yang, R. Olivares  : DMRG
   Ulf Ekstrom                                   : XCFun DFT Library
   Mihaly Kallay                                 : mrcc  (arbitrary order and MRCC methods)
   Jiri Pittner, Ondrej Demel                    : Mk-CCSD
   Frank Weinhold                                : gennbo (NPA and NBO analysis)
   Christopher J. Cramer and Donald G. Truhlar   : smd solvation model
   Lars Goerigk                                  : TD-DFT with DH, B97 family of functionals
   V. Asgeirsson, H. Jonsson                     : NEB implementation
   FAccTs GmbH                                   : IRC, NEB, NEB-TS, DLPNO-Multilevel, CI-OPT
                                                   MM, QMMM, 2- and 3-layer-ONIOM, Crystal-QMMM,
                                                   LR-CPCM, SF, NACMEs, symmetry and pop. for TD-DFT,
                                                   nearIR, NL-DFT gradient (VV10), updates on ESD,
                                                   ML-optimized integration grids
   S Lehtola, MJT Oliveira, MAL Marques          : LibXC Library
   Liviu Ungur et al                             : ANISO software


 Your calculation uses the libint2 library for the computation of 2-el integrals
 For citations please refer to: http://libint.valeyev.net

 Your ORCA version has been built with support for libXC version: 5.1.0
 For citations please refer to: https://tddft.org/programs/libxc/

 This ORCA versions uses:
   CBLAS   interface :  Fast vector & matrix operations
   LAPACKE interface :  Fast linear algebra routines
   Shared memory     :  Shared parallel matrices


Your calculation utilizes the atom-pairwise dispersion correction
with the Becke-Johnson damping scheme (D3BJ)
Cite in your paper:
S.Grimme, S.Ehrlich, L.Goerigk, J Comput Chem, (2011), 32, 1456–1465 
S.Grimme, J.Antony, S.Ehrlich and H.Krieg, J.Chem.Phys., 132, (2010), 154104 
   

================================================================================

----- Orbital basis set information -----
Your calculation utilizes the basis: def2-SVP
   F. Weigend and R. Ahlrichs, Phys. Chem. Chem. Phys. 7, 3297 (2005).

----- AuxJ basis set information -----
Your calculation utilizes the auxiliary basis: def2/J
   F. Weigend, Phys. Chem. Chem. Phys. 8, 1057 (2006).

================================================================================
                                        WARNINGS
                       Please study these warnings very carefully!
================================================================================


WARNING: your system is open-shell and RHF/RKS was chosen
  ===> : WILL SWITCH to UHF/UKS


INFO   : the flag for use of the SHARK integral package has been found!

================================================================================
                                       INPUT FILE
================================================================================
NAME = benzen_fukui_anion.inp
|  1> !B3LYP D3 DEF2-SVP KEEPDENS
|  2> * xyz -1 2
|  3>   C      -4.127240      1.598090      0.000000
|  4>   C      -5.236140      0.753090      0.000000
|  5>   C      -5.058790     -0.629750      0.000000
|  6>   C      -3.772550     -1.167590      0.000000
|  7>   C      -2.663650     -0.322590      0.000000
|  8>   C      -2.840990      1.060250      0.000000
|  9>   H      -4.265550      2.676550      0.000000
| 10>   H      -1.976170      1.719260      0.000000
| 11>   H      -1.660520     -0.742040      0.000000
| 12>   H      -3.634240     -2.246050      0.000000
| 13>   H      -5.923620     -1.288760      0.000000
| 14>   H      -6.239270      1.172540      0.000000
| 15> *
| 16> 
| 17>                          ****END OF INPUT****
================================================================================

                       ****************************
                       * Single Point Calculation *
                       ****************************

---------------------------------
CARTESIAN COORDINATES (ANGSTROEM)
---------------------------------
  C     -4.127240    1.598090    0.000000
  C     -5.236140    0.753090    0.000000
  C     -5.058790   -0.629750    0.000000
  C     -3.772550   -1.167590    0.000000
  C     -2.663650   -0.322590    0.000000
  C     -2.840990    1.060250    0.000000
  H     -4.265550    2.676550    0.000000
  H     -1.976170    1.719260    0.000000
  H     -1.660520   -0.742040    0.000000
  H     -3.634240   -2.246050    0.000000
  H     -5.923620   -1.288760    0.000000
  H     -6.239270    1.172540    0.000000

----------------------------
CARTESIAN COORDINATES (A.U.)
----------------------------
  NO LB      ZA    FRAG     MASS         X           Y           Z
   0 C     6.0000    0    12.011   -7.799353    3.019952    0.000000
   1 C     6.0000    0    12.011   -9.894871    1.423134    0.000000
   2 C     6.0000    0    12.011   -9.559728   -1.190055    0.000000
   3 C     6.0000    0    12.011   -7.129086   -2.206425    0.000000
   4 C     6.0000    0    12.011   -5.033569   -0.609607    0.000000
   5 C     6.0000    0    12.011   -5.368693    2.003582    0.000000
   6 H     1.0000    0     1.008   -8.060721    5.057946    0.000000
   7 H     1.0000    0     1.008   -3.734420    3.248931    0.000000
   8 H     1.0000    0     1.008   -3.137928   -1.402252    0.000000
   9 H     1.0000    0     1.008   -6.867718   -4.244419    0.000000
  10 H     1.0000    0     1.008  -11.194020   -2.435403    0.000000
  11 H     1.0000    0     1.008  -11.790512    2.215779    0.000000

--------------------------------
INTERNAL COORDINATES (ANGSTROEM)
--------------------------------
 C      0   0   0     0.000000000000     0.00000000     0.00000000
 C      1   0   0     1.394160754719     0.00000000     0.00000000
 C      2   1   0     1.394166234027   119.99967529     0.00000000
 C      3   2   1     1.394161110919   120.00051591     0.00000000
 C      4   3   2     1.394160754719   119.99980880     0.00000000
 C      5   4   3     1.394164961975   120.00008292     0.00000000
 H      1   2   3     1.087292797594   119.99983709   180.00000085
 H      6   5   4     1.087293802291   120.00020724   180.00000000
 H      5   4   3     1.087293934224   120.00018946   180.00000085
 H      4   3   2     1.087292797594   120.00035411   180.00000085
 H      3   2   1     1.087301756184   119.99948022   180.00000085
 H      2   1   3     1.087293934224   120.00018946   180.00000000

---------------------------
INTERNAL COORDINATES (A.U.)
---------------------------
 C      0   0   0     0.000000000000     0.00000000     0.00000000
 C      1   0   0     2.634582013081     0.00000000     0.00000000
 C      2   1   0     2.634592367471   119.99967529     0.00000000
 C      3   2   1     2.634582686201   120.00051591     0.00000000
 C      4   3   2     2.634582013081   119.99980880     0.00000000
 C      5   4   3     2.634589963642   120.00008292     0.00000000
 H      1   2   3     2.054685614838   119.99983709   180.00000085
 H      6   5   4     2.054687513440   120.00020724   180.00000000
 H      5   4   3     2.054687762757   120.00018946   180.00000085
 H      4   3   2     2.054685614838   120.00035411   180.00000085
 H      3   2   1     2.054702544119   119.99948022   180.00000085
 H      2   1   3     2.054687762757   120.00018946   180.00000000

---------------------
BASIS SET INFORMATION
---------------------
There are 2 groups of distinct atoms

 Group   1 Type C   : 7s4p1d contracted to 3s2p1d pattern {511/31/1}
 Group   2 Type H   : 4s1p contracted to 2s1p pattern {31/1}

Atom   0C    basis set group =>   1
Atom   1C    basis set group =>   1
Atom   2C    basis set group =>   1
Atom   3C    basis set group =>   1
Atom   4C    basis set group =>   1
Atom   5C    basis set group =>   1
Atom   6H    basis set group =>   2
Atom   7H    basis set group =>   2
Atom   8H    basis set group =>   2
Atom   9H    basis set group =>   2
Atom  10H    basis set group =>   2
Atom  11H    basis set group =>   2
---------------------------------
AUXILIARY/J BASIS SET INFORMATION
---------------------------------
There are 2 groups of distinct atoms

 Group   1 Type C   : 12s5p4d2f1g contracted to 6s4p3d1f1g pattern {711111/2111/211/2/1}
 Group   2 Type H   : 5s2p1d contracted to 3s1p1d pattern {311/2/1}

Atom   0C    basis set group =>   1
Atom   1C    basis set group =>   1
Atom   2C    basis set group =>   1
Atom   3C    basis set group =>   1
Atom   4C    basis set group =>   1
Atom   5C    basis set group =>   1
Atom   6H    basis set group =>   2
Atom   7H    basis set group =>   2
Atom   8H    basis set group =>   2
Atom   9H    basis set group =>   2
Atom  10H    basis set group =>   2
Atom  11H    basis set group =>   2
------------------------------------------------------------------------------
                           ORCA GTO INTEGRAL CALCULATION
                           -- RI-GTO INTEGRALS CHOSEN --
------------------------------------------------------------------------------
------------------------------------------------------------------------------
                   ___                                                        
                  /   \      - P O W E R E D   B Y -                         
                 /     \                                                     
                 |  |  |   _    _      __       _____    __    __             
                 |  |  |  | |  | |    /  \     |  _  \  |  |  /  |          
                  \  \/   | |  | |   /    \    | | | |  |  | /  /          
                 / \  \   | |__| |  /  /\  \   | |_| |  |  |/  /          
                |  |  |   |  __  | /  /__\  \  |    /   |      \           
                |  |  |   | |  | | |   __   |  |    \   |  |\   \          
                \     /   | |  | | |  |  |  |  | |\  \  |  | \   \       
                 \___/    |_|  |_| |__|  |__|  |_| \__\ |__|  \__/        
                                                                              
                      - O R C A' S   B I G   F R I E N D -                    
                                      &                                       
                       - I N T E G R A L  F E E D E R -                       
                                                                              
 v1 FN, 2020, v2 2021                                                         
------------------------------------------------------------------------------


Reading SHARK input file benzen_fukui_anion.SHARKINP.tmp ... ok
----------------------
SHARK INTEGRAL PACKAGE
----------------------

Number of atoms                             ...     12
Number of basis functions                   ...    114
Number of shells                            ...     54
Maximum angular momentum                    ...      2
Integral batch strategy                     ... SHARK/LIBINT Hybrid
RI-J (if used) integral strategy            ... SPLIT-RIJ (Revised 2003 algorithm where possible)
Printlevel                                  ...      1
Contraction scheme used                     ... SEGMENTED contraction
Coulomb Range Separation                    ... NOT USED
Exchange Range Separation                   ... NOT USED
Finite Nucleus Model                        ... NOT USED
Auxiliary Coulomb fitting basis             ... AVAILABLE
   # of basis functions in Aux-J            ...    360
   # of shells in Aux-J                     ...    120
   Maximum angular momentum in Aux-J        ...      4
Auxiliary J/K fitting basis                 ... NOT available
Auxiliary Correlation fitting basis         ... NOT available
Auxiliary 'external' fitting basis          ... NOT available
Integral threshold                          ...     1.000000e-10
Primitive cut-off                           ...     1.000000e-11
Primitive pair pre-selection threshold      ...     1.000000e-11

Calculating pre-screening integrals         ... done (  0.0 sec) Dimension = 54
Organizing shell pair data                  ... done (  0.0 sec)
Shell pair information
Total number of shell pairs                 ...      1485
Shell pairs after pre-screening             ...      1455
Total number of primitive shell pairs       ...      5349
Primitive shell pairs kept                  ...      4104
          la=0 lb=0:    456 shell pairs
          la=1 lb=0:    522 shell pairs
          la=1 lb=1:    168 shell pairs
          la=2 lb=0:    180 shell pairs
          la=2 lb=1:    108 shell pairs
          la=2 lb=2:     21 shell pairs

Calculating one electron integrals          ... done (  0.0 sec)
Calculating RI/J V-Matrix + Cholesky decomp.... done (  0.0 sec)
Calculating Nuclear repulsion               ... done (  0.0 sec) ENN=    203.482178309162 Eh

SHARK setup successfully completed in   0.2 seconds

Maximum memory used throughout the entire GTOINT-calculation: 13.6 MB
-------------------------------------------------------------------------------
                                 ORCA SCF
-------------------------------------------------------------------------------

------------
SCF SETTINGS
------------
Hamiltonian:
 Density Functional     Method          .... DFT(GTOs)
 Exchange Functional    Exchange        .... B88
   X-Alpha parameter    XAlpha          ....  0.666667
   Becke's b parameter  XBeta           ....  0.004200
 Correlation Functional Correlation     .... LYP
 LDA part of GGA corr.  LDAOpt          .... VWN-5
 Gradients option       PostSCFGGA      .... off
 Hybrid DFT is turned on
   Fraction HF Exchange ScalHFX         ....  0.200000
   Scaling of DF-GGA-X  ScalDFX         ....  0.720000
   Scaling of DF-GGA-C  ScalDFC         ....  0.810000
   Scaling of DF-LDA-C  ScalLDAC        ....  1.000000
   Perturbative correction              ....  0.000000
   Density functional embedding theory  .... OFF
   NL short-range parameter             ....  4.800000
 RI-approximation to the Coulomb term is turned on
   Number of AuxJ basis functions       .... 360
   RIJ-COSX (HFX calculated with COS-X)).... on


General Settings:
 Integral files         IntName         .... benzen_fukui_anion
 Hartree-Fock type      HFTyp           .... UHF
 Total Charge           Charge          ....   -1
 Multiplicity           Mult            ....    2
 Number of Electrons    NEL             ....   43
 Basis Dimension        Dim             ....  114
 Nuclear Repulsion      ENuc            ....    203.4821783092 Eh

Convergence Acceleration:
 DIIS                   CNVDIIS         .... on
   Start iteration      DIISMaxIt       ....    12
   Startup error        DIISStart       ....  0.200000
   # of expansion vecs  DIISMaxEq       ....     5
   Bias factor          DIISBfac        ....   1.050
   Max. coefficient     DIISMaxC        ....  10.000
 Trust-Rad. Augm. Hess. CNVTRAH         .... auto
   Auto Start mean grad. ratio tolernc. ....  1.125000
   Auto Start start iteration           ....    20
   Auto Start num. interpolation iter.  ....    10
   Max. Number of Micro iterations      ....    16
   Max. Number of Macro iterations      .... Maxiter - #DIIS iter
   Number of Davidson start vectors     ....     2
   Converg. threshold I  (grad. norm)   ....   5.000e-05
   Converg. threshold II (energy diff.) ....   1.000e-06
   Grad. Scal. Fac. for Micro threshold ....   0.100
   Minimum threshold for Micro iter.    ....   0.010
   NR start threshold (gradient norm)   ....   0.001
   Initial trust radius                 ....   0.400
   Minimum AH scaling param. (alpha)    ....   1.000
   Maximum AH scaling param. (alpha)    .... 1000.000
   Orbital update algorithm             .... Taylor
   White noise on init. David. guess    .... on
   Maximum white noise                  ....   0.010
   Quad. conv. algorithm                .... NR
 SOSCF                  CNVSOSCF        .... off
 Level Shifting         CNVShift        .... on
   Level shift para.    LevelShift      ....    0.2500
   Turn off err/grad.   ShiftErr        ....    0.0010
 Zerner damping         CNVZerner       .... off
 Static damping         CNVDamp         .... on
   Fraction old density DampFac         ....    0.7000
   Max. Damping (<1)    DampMax         ....    0.9800
   Min. Damping (>=0)   DampMin         ....    0.0000
   Turn off err/grad.   DampErr         ....    0.1000
 Fernandez-Rico         CNVRico         .... off

SCF Procedure:
 Maximum # iterations   MaxIter         ....   125
 SCF integral mode      SCFMode         .... Direct
   Integral package                     .... SHARK and LIBINT hybrid scheme
 Reset frequency        DirectResetFreq ....    20
 Integral Threshold     Thresh          ....  1.000e-10 Eh
 Primitive CutOff       TCut            ....  1.000e-11 Eh

Convergence Tolerance:
 Convergence Check Mode ConvCheckMode   .... Total+1el-Energy
 Convergence forced     ConvForced      .... 0
 Energy Change          TolE            ....  1.000e-06 Eh
 1-El. energy change                    ....  1.000e-03 Eh
 DIIS Error             TolErr          ....  1.000e-06


Diagonalization of the overlap matrix:
Smallest eigenvalue                        ... 3.141e-04
Time for diagonalization                   ...    0.003 sec
Threshold for overlap eigenvalues          ... 1.000e-08
Number of eigenvalues below threshold      ... 0
Time for construction of square roots      ...    0.002 sec
Total time needed                          ...    0.005 sec

Time for model grid setup =    0.150 sec

------------------------------
INITIAL GUESS: MODEL POTENTIAL
------------------------------
Loading Hartree-Fock densities                     ... done
Calculating cut-offs                               ... done
Initializing the effective Hamiltonian             ... done
Setting up the integral package (SHARK)            ... done
Starting the Coulomb interaction                   ... done (   0.1 sec)
Reading the grid                                   ... done
Mapping shells                                     ... done
Starting the XC term evaluation                    ... done (   0.2 sec)
  promolecular density results
     # of electrons  =     41.996733943
     EX              =    -32.606761046
     EC              =     -1.377217074
     EX+EC           =    -33.983978120
Transforming the Hamiltonian                       ... done (   0.0 sec)
Diagonalizing the Hamiltonian                      ... done (   0.0 sec)
Back transforming the eigenvectors                 ... done (   0.0 sec)
Now organizing SCF variables                       ... done
                      ------------------
                      INITIAL GUESS DONE (   0.5 sec)
                      ------------------
-------------------
DFT GRID GENERATION
-------------------

General Integration Accuracy     IntAcc      ... 4.388
Radial Grid Type                 RadialGrid  ... OptM3 with GC (2021)
Angular Grid (max. ang.)         AngularGrid ... 4 (Lebedev-302)
Angular grid pruning method      GridPruning ... 4 (adaptive)
Weight generation scheme         WeightScheme... Becke
Basis function cutoff            BFCut       ... 1.0000e-10
Integration weight cutoff        WCut        ... 1.0000e-14
Angular grids for H and He will be reduced by one unit
Partially contracted basis set               ... off
Rotationally invariant grid construction     ... off

Total number of grid points                  ...    55560
Total number of batches                      ...      872
Average number of points per batch           ...       63
Average number of grid points per atom       ...     4630
Time for grid setup =    0.644 sec

--------------------
COSX GRID GENERATION
--------------------

GRIDX 1
-------
General Integration Accuracy     IntAcc      ... 3.816
Radial Grid Type                 RadialGrid  ... OptM3 with GC (2021)
Angular Grid (max. ang.)         AngularGrid ... 1 (Lebedev-50)
Angular grid pruning method      GridPruning ... 4 (adaptive)
Weight generation scheme         WeightScheme... Becke
Basis function cutoff            BFCut       ... 1.0000e-10
Integration weight cutoff        WCut        ... 1.0000e-14
Angular grids for H and He will be reduced by one unit
Partially contracted basis set               ... on
Rotationally invariant grid construction     ... off

Total number of grid points                  ...     7132
Total number of batches                      ...      114
Average number of points per batch           ...       62
Average number of grid points per atom       ...      594
UseSFitting                                  ... on

GRIDX 2
-------
General Integration Accuracy     IntAcc      ... 4.020
Radial Grid Type                 RadialGrid  ... OptM3 with GC (2021)
Angular Grid (max. ang.)         AngularGrid ... 2 (Lebedev-110)
Angular grid pruning method      GridPruning ... 4 (adaptive)
Weight generation scheme         WeightScheme... Becke
Basis function cutoff            BFCut       ... 1.0000e-10
Integration weight cutoff        WCut        ... 1.0000e-14
Angular grids for H and He will be reduced by one unit
Partially contracted basis set               ... on
Rotationally invariant grid construction     ... off

Total number of grid points                  ...    15506
Total number of batches                      ...      248
Average number of points per batch           ...       62
Average number of grid points per atom       ...     1292
UseSFitting                                  ... on

GRIDX 3
-------
General Integration Accuracy     IntAcc      ... 4.338
Radial Grid Type                 RadialGrid  ... OptM3 with GC (2021)
Angular Grid (max. ang.)         AngularGrid ... 3 (Lebedev-194)
Angular grid pruning method      GridPruning ... 4 (adaptive)
Weight generation scheme         WeightScheme... Becke
Basis function cutoff            BFCut       ... 1.0000e-10
Integration weight cutoff        WCut        ... 1.0000e-14
Angular grids for H and He will be reduced by one unit
Partially contracted basis set               ... on
Rotationally invariant grid construction     ... off

Total number of grid points                  ...    34078
Total number of batches                      ...      538
Average number of points per batch           ...       63
Average number of grid points per atom       ...     2840
UseSFitting                                  ... on

Time for X-Grid setup             =    0.673 sec

--------------
SCF ITERATIONS
--------------
ITER       Energy         Delta-E        Max-DP      RMS-DP      [F,P]     Damp
               ***  Starting incremental Fock matrix formation  ***
  0   -231.5644718212   0.000000000000 0.05837791  0.00231082  0.0889095 0.7000
  1   -231.6990975776  -0.134625756405 0.04258540  0.00171650  0.0462106 0.7000
                               ***Turning on DIIS***
  2   -231.7540762841  -0.054978706454 0.06487321  0.00286898  0.0193768 0.0000
  3   -231.8305414475  -0.076465163407 0.02801156  0.00113499  0.0277979 0.0000
  4   -231.8540532697  -0.023511822213 0.00797373  0.00034559  0.0064105 0.0000
  5   -231.8553828968  -0.001329627065 0.00310180  0.00013907  0.0019775 0.0000
  6   -231.8554948461  -0.000111949270 0.00172338  0.00008455  0.0008824 0.0000
               *** Restarting incremental Fock matrix formation ***
                                   *** Resetting DIIS ***
  7   -231.8556200630  -0.000125216918 0.00120937  0.00003893  0.0005540 0.0000
  8   -231.8556206713  -0.000000608288 0.00051914  0.00001666  0.0005550 0.0000
  9   -231.8556259118  -0.000005240517 0.00090410  0.00002684  0.0001496 0.0000
 10   -231.8556271999  -0.000001288106 0.00034583  0.00000965  0.0001057 0.0000
                 **** Energy Check signals convergence ****

               *****************************************************
               *                     SUCCESS                       *
               *           SCF CONVERGED AFTER  11 CYCLES          *
               *****************************************************

Old exchange energy                            =     -6.689059618 Eh
New exchange energy                            =     -6.689080005 Eh
Exchange energy change after final integration =     -0.000020387 Eh
Total energy after final integration           =   -231.855648083 Eh
Final COS-X integration done in                =     5.913 sec

----------------
TOTAL SCF ENERGY
----------------

Total Energy       :         -231.85564808 Eh           -6309.11293 eV

Components:
Nuclear Repulsion  :          203.48217831 Eh            5537.03157 eV
Electronic Energy  :         -435.33782639 Eh          -11846.14450 eV
One Electron Energy:         -723.19824088 Eh          -19679.22461 eV
Two Electron Energy:          287.86041448 Eh            7833.08010 eV
Max COSX asymmetry :            0.00000080 Eh               0.00002 eV

Virial components:
Potential Energy   :         -461.58318007 Eh          -12560.31688 eV
Kinetic Energy     :          229.72753199 Eh            6251.20395 eV
Virial Ratio       :            2.00926365


DFT components:
N(Alpha)           :       21.999985533272 electrons
N(Beta)            :       20.999984226892 electrons
N(Total)           :       42.999969760163 electrons
E(X)               :      -26.541335562569 Eh       
E(C)               :       -1.664532494118 Eh       
E(XC)              :      -28.205868056687 Eh       
DFET-embed. en.    :        0.000000000000 Eh       

---------------
SCF CONVERGENCE
---------------

  Last Energy change         ...   -4.9565e-07  Tolerance :   1.0000e-06
  Last MAX-Density change    ...    0.0000e+00  Tolerance :   1.0000e-05
  Last RMS-Density change    ...    0.0000e+00  Tolerance :   1.0000e-06
  Last DIIS Error            ...    6.5527e-05  Tolerance :   1.0000e-06

             **** THE GBW FILE WAS UPDATED (benzen_fukui_anion.gbw) ****
             **** DENSITY benzen_fukui_anion.scfp WAS UPDATED ****
             **** ENERGY FILE WAS UPDATED (benzen_fukui_anion.en.tmp) ****
----------------------
UHF SPIN CONTAMINATION
----------------------

Warning: in a DFT calculation there is little theoretical justification to 
         calculate <S**2> as in Hartree-Fock theory. We will do it anyways
         but you should keep in mind that the values have only limited relevance

Expectation value of <S**2>     :     0.759958
Ideal value S*(S+1) for S=0.5   :     0.750000
Deviation                       :     0.009958

             **** THE GBW FILE WAS UPDATED (benzen_fukui_anion.gbw) ****
             **** DENSITY benzen_fukui_anion.scfp WAS UPDATED ****
----------------
ORBITAL ENERGIES
----------------
                 SPIN UP ORBITALS
  NO   OCC          E(Eh)            E(eV) 
   0   1.0000      -9.969747      -271.2906 
   1   1.0000      -9.969706      -271.2895 
   2   1.0000      -9.949115      -270.7292 
   3   1.0000      -9.949075      -270.7281 
   4   1.0000      -9.938721      -270.4464 
   5   1.0000      -9.938682      -270.4453 
   6   1.0000      -0.616120       -16.7655 
   7   1.0000      -0.514164       -13.9911 
   8   1.0000      -0.509463       -13.8632 
   9   1.0000      -0.376022       -10.2321 
  10   1.0000      -0.375486       -10.2175 
  11   1.0000      -0.303726        -8.2648 
  12   1.0000      -0.245876        -6.6906 
  13   1.0000      -0.217909        -5.9296 
  14   1.0000      -0.205531        -5.5928 
  15   1.0000      -0.197445        -5.3727 
  16   1.0000      -0.150861        -4.1051 
  17   1.0000      -0.126567        -3.4441 
  18   1.0000      -0.123898        -3.3714 
  19   1.0000      -0.043219        -1.1761 
  20   1.0000      -0.042282        -1.1506 
  21   1.0000       0.154056         4.1921 
  22   0.0000       0.210363         5.7243 
  23   0.0000       0.234132         6.3711 
  24   0.0000       0.268239         7.2992 
  25   0.0000       0.273778         7.4499 
  26   0.0000       0.304611         8.2889 
  27   0.0000       0.308598         8.3974 
  28   0.0000       0.324416         8.8278 
  29   0.0000       0.354223         9.6389 
  30   0.0000       0.496231        13.5031 
  31   0.0000       0.498955        13.5773 
  32   0.0000       0.512258        13.9392 
  33   0.0000       0.515273        14.0213 
  34   0.0000       0.577564        15.7163 
  35   0.0000       0.613378        16.6909 
  36   0.0000       0.622644        16.9430 
  37   0.0000       0.627587        17.0775 
  38   0.0000       0.641971        17.4689 
  39   0.0000       0.666774        18.1438 
  40   0.0000       0.681704        18.5501 
  41   0.0000       0.709704        19.3120 
  42   0.0000       0.715722        19.4758 
  43   0.0000       0.743533        20.2326 
  44   0.0000       0.745429        20.2842 
  45   0.0000       0.750273        20.4160 
  46   0.0000       0.802467        21.8362 
  47   0.0000       0.807724        21.9793 
  48   0.0000       0.832065        22.6416 
  49   0.0000       0.839044        22.8315 
  50   0.0000       0.864754        23.5312 
  51   0.0000       0.871938        23.7266 
  52   0.0000       0.873600        23.7719 
  53   0.0000       0.939818        25.5738 
  54   0.0000       0.941218        25.6118 
  55   0.0000       0.943969        25.6867 
  56   0.0000       0.951299        25.8862 
  57   0.0000       0.983683        26.7674 
  58   0.0000       0.989498        26.9256 
  59   0.0000       1.050143        28.5758 
  60   0.0000       1.106233        30.1021 
  61   0.0000       1.236261        33.6404 
  62   0.0000       1.239671        33.7332 
  63   0.0000       1.371335        37.3159 
  64   0.0000       1.457030        39.6478 
  65   0.0000       1.464396        39.8483 
  66   0.0000       1.470195        40.0060 
  67   0.0000       1.472736        40.0752 
  68   0.0000       1.481655        40.3179 
  69   0.0000       1.524045        41.4714 
  70   0.0000       1.526507        41.5384 
  71   0.0000       1.710335        46.5406 
  72   0.0000       1.862761        50.6883 
  73   0.0000       1.863242        50.7014 
  74   0.0000       1.874114        50.9972 
  75   0.0000       1.965393        53.4811 
  76   0.0000       1.966754        53.5181 
  77   0.0000       1.971134        53.6373 
  78   0.0000       1.973733        53.7080 
  79   0.0000       1.973779        53.7092 
  80   0.0000       1.974771        53.7363 
  81   0.0000       1.976077        53.7718 
  82   0.0000       2.032054        55.2950 
  83   0.0000       2.037950        55.4554 
  84   0.0000       2.146134        58.3993 
  85   0.0000       2.197092        59.7859 
  86   0.0000       2.202692        59.9383 
  87   0.0000       2.203055        59.9482 
  88   0.0000       2.203501        59.9603 
  89   0.0000       2.205319        60.0098 
  90   0.0000       2.310389        62.8689 
  91   0.0000       2.356160        64.1144 
  92   0.0000       2.365314        64.3635 
  93   0.0000       2.365872        64.3786 
  94   0.0000       2.531944        68.8977 
  95   0.0000       2.533704        68.9456 
  96   0.0000       2.537271        69.0427 
  97   0.0000       2.538468        69.0752 
  98   0.0000       2.575756        70.0899 
  99   0.0000       2.578648        70.1686 
 100   0.0000       2.789744        75.9128 
 101   0.0000       2.828506        76.9676 
 102   0.0000       2.830898        77.0327 
 103   0.0000       2.881469        78.4088 
 104   0.0000       2.937790        79.9413 
 105   0.0000       2.941959        80.0548 
 106   0.0000       2.948232        80.2255 
 107   0.0000       3.094999        84.2192 
 108   0.0000       3.102379        84.4200 
 109   0.0000       3.120026        84.9002 
 110   0.0000       3.352112        91.2156 
 111   0.0000       3.359404        91.4140 
 112   0.0000       3.483972        94.8037 
 113   0.0000       3.902569       106.1943 

                 SPIN DOWN ORBITALS
  NO   OCC          E(Eh)            E(eV) 
   0   1.0000      -9.970985      -271.3243 
   1   1.0000      -9.970944      -271.3232 
   2   1.0000      -9.945904      -270.6418 
   3   1.0000      -9.945862      -270.6407 
   4   1.0000      -9.933352      -270.3002 
   5   1.0000      -9.933311      -270.2991 
   6   1.0000      -0.609395       -16.5825 
   7   1.0000      -0.509869       -13.8742 
   8   1.0000      -0.498464       -13.5639 
   9   1.0000      -0.374582       -10.1929 
  10   1.0000      -0.363560        -9.8930 
  11   1.0000      -0.301015        -8.1910 
  12   1.0000      -0.241004        -6.5581 
  13   1.0000      -0.214325        -5.8321 
  14   1.0000      -0.204325        -5.5600 
  15   1.0000      -0.194064        -5.2808 
  16   1.0000      -0.132509        -3.6058 
  17   1.0000      -0.124236        -3.3806 
  18   1.0000      -0.121275        -3.3001 
  19   1.0000      -0.030267        -0.8236 
  20   1.0000      -0.008641        -0.2351 
  21   0.0000       0.214278         5.8308 
  22   0.0000       0.235176         6.3995 
  23   0.0000       0.237554         6.4642 
  24   0.0000       0.268326         7.3015 
  25   0.0000       0.275545         7.4980 
  26   0.0000       0.305632         8.3167 
  27   0.0000       0.311451         8.4750 
  28   0.0000       0.326449         8.8831 
  29   0.0000       0.383156        10.4262 
  30   0.0000       0.500637        13.6230 
  31   0.0000       0.503295        13.6954 
  32   0.0000       0.514625        14.0037 
  33   0.0000       0.518642        14.1130 
  34   0.0000       0.581163        15.8142 
  35   0.0000       0.615589        16.7510 
  36   0.0000       0.625407        17.0182 
  37   0.0000       0.633883        17.2488 
  38   0.0000       0.642305        17.4780 
  39   0.0000       0.676811        18.4170 
  40   0.0000       0.692140        18.8341 
  41   0.0000       0.717195        19.5159 
  42   0.0000       0.721794        19.6410 
  43   0.0000       0.747979        20.3535 
  44   0.0000       0.752885        20.4870 
  45   0.0000       0.763803        20.7841 
  46   0.0000       0.811610        22.0850 
  47   0.0000       0.828006        22.5312 
  48   0.0000       0.833458        22.6795 
  49   0.0000       0.845049        22.9949 
  50   0.0000       0.865088        23.5402 
  51   0.0000       0.878285        23.8994 
  52   0.0000       0.888796        24.1854 
  53   0.0000       0.943800        25.6821 
  54   0.0000       0.947516        25.7832 
  55   0.0000       0.948673        25.8147 
  56   0.0000       0.953668        25.9506 
  57   0.0000       0.984963        26.8022 
  58   0.0000       0.993235        27.0273 
  59   0.0000       1.057937        28.7879 
  60   0.0000       1.108929        30.1755 
  61   0.0000       1.237326        33.6694 
  62   0.0000       1.242509        33.8104 
  63   0.0000       1.378521        37.5115 
  64   0.0000       1.460152        39.7328 
  65   0.0000       1.471255        40.0349 
  66   0.0000       1.475564        40.1521 
  67   0.0000       1.476927        40.1892 
  68   0.0000       1.494197        40.6592 
  69   0.0000       1.531268        41.6679 
  70   0.0000       1.536220        41.8027 
  71   0.0000       1.711599        46.5750 
  72   0.0000       1.864363        50.7319 
  73   0.0000       1.866479        50.7895 
  74   0.0000       1.878620        51.1198 
  75   0.0000       1.967948        53.5506 
  76   0.0000       1.968757        53.5726 
  77   0.0000       1.973117        53.6913 
  78   0.0000       1.979607        53.8678 
  79   0.0000       1.982312        53.9414 
  80   0.0000       1.985785        54.0360 
  81   0.0000       1.985943        54.0403 
  82   0.0000       2.038939        55.4824 
  83   0.0000       2.039071        55.4859 
  84   0.0000       2.152517        58.5730 
  85   0.0000       2.200201        59.8705 
  86   0.0000       2.203843        59.9696 
  87   0.0000       2.203871        59.9704 
  88   0.0000       2.213394        60.2295 
  89   0.0000       2.214737        60.2660 
  90   0.0000       2.310677        62.8767 
  91   0.0000       2.359751        64.2121 
  92   0.0000       2.371355        64.5278 
  93   0.0000       2.380881        64.7871 
  94   0.0000       2.538400        69.0734 
  95   0.0000       2.539505        69.1034 
  96   0.0000       2.540582        69.1327 
  97   0.0000       2.554084        69.5002 
  98   0.0000       2.579282        70.1858 
  99   0.0000       2.596302        70.6490 
 100   0.0000       2.801095        76.2217 
 101   0.0000       2.830542        77.0230 
 102   0.0000       2.844184        77.3942 
 103   0.0000       2.896107        78.8071 
 104   0.0000       2.938086        79.9494 
 105   0.0000       2.942972        80.0824 
 106   0.0000       2.950204        80.2791 
 107   0.0000       3.095505        84.2330 
 108   0.0000       3.105920        84.5164 
 109   0.0000       3.127810        85.1120 
 110   0.0000       3.352586        91.2285 
 111   0.0000       3.362810        91.5067 
 112   0.0000       3.486279        94.8665 
 113   0.0000       3.905035       106.2614 

                    ********************************
                    * MULLIKEN POPULATION ANALYSIS *
                    ********************************

--------------------------------------------
MULLIKEN ATOMIC CHARGES AND SPIN POPULATIONS
--------------------------------------------
   0 C :    0.031679   -0.106935
   1 C :   -0.041725    0.238202
   2 C :   -0.074532    0.404427
   3 C :    0.031684   -0.106933
   4 C :   -0.041727    0.238206
   5 C :   -0.074530    0.404433
   6 H :   -0.126754    0.002851
   7 H :   -0.147887   -0.023691
   8 H :   -0.140785   -0.014861
   9 H :   -0.126754    0.002852
  10 H :   -0.147885   -0.023690
  11 H :   -0.140784   -0.014861
Sum of atomic charges         :   -1.0000000
Sum of atomic spin populations:    1.0000000

-----------------------------------------------------
MULLIKEN REDUCED ORBITAL CHARGES AND SPIN POPULATIONS
-----------------------------------------------------
CHARGE
  0 C s       :     3.138659  s :     3.138659
      pz      :     1.026889  p :     2.789432
      px      :     0.989575
      py      :     0.772969
      dz2     :     0.002560  d :     0.040229
      dxz     :     0.012415
      dyz     :     0.001838
      dx2y2   :     0.013421
      dxy     :     0.009996
  1 C s       :     3.123233  s :     3.123233
      pz      :     1.173860  p :     2.882050
      px      :     0.778187
      py      :     0.930003
      dz2     :     0.002647  d :     0.036442
      dxz     :     0.002536
      dyz     :     0.008330
      dx2y2   :     0.011566
      dxy     :     0.011363
  2 C s       :     3.114596  s :     3.114596
      pz      :     1.243808  p :     2.925405
      px      :     0.811932
      py      :     0.869665
      dz2     :     0.002720  d :     0.034530
      dxz     :     0.003391
      dyz     :     0.005722
      dx2y2   :     0.010332
      dxy     :     0.012366
  3 C s       :     3.138656  s :     3.138656
      pz      :     1.026890  p :     2.789430
      px      :     0.989576
      py      :     0.772964
      dz2     :     0.002560  d :     0.040230
      dxz     :     0.012415
      dyz     :     0.001838
      dx2y2   :     0.013421
      dxy     :     0.009996
  4 C s       :     3.123233  s :     3.123233
      pz      :     1.173862  p :     2.882052
      px      :     0.778189
      py      :     0.930002
      dz2     :     0.002647  d :     0.036442
      dxz     :     0.002536
      dyz     :     0.008330
      dx2y2   :     0.011566
      dxy     :     0.011363
  5 C s       :     3.114596  s :     3.114596
      pz      :     1.243811  p :     2.925404
      px      :     0.811931
      py      :     0.869662
      dz2     :     0.002720  d :     0.034530
      dxz     :     0.003391
      dyz     :     0.005722
      dx2y2   :     0.010332
      dxy     :     0.012366
  6 H s       :     1.103872  s :     1.103872
      pz      :     0.005638  p :     0.022882
      px      :     0.004061
      py      :     0.013183
  7 H s       :     1.123288  s :     1.123288
      pz      :     0.008184  p :     0.024598
      px      :     0.009362
      py      :     0.007052
  8 H s       :     1.116710  s :     1.116710
      pz      :     0.007387  p :     0.024075
      px      :     0.011532
      py      :     0.005156
  9 H s       :     1.103872  s :     1.103872
      pz      :     0.005638  p :     0.022882
      px      :     0.004061
      py      :     0.013183
 10 H s       :     1.123287  s :     1.123287
      pz      :     0.008184  p :     0.024598
      px      :     0.009362
      py      :     0.007052
 11 H s       :     1.116709  s :     1.116709
      pz      :     0.007387  p :     0.024075
      px      :     0.011532
      py      :     0.005156

SPIN
  0 C s       :    -0.021692  s :    -0.021692
      pz      :    -0.060722  p :    -0.091599
      px      :    -0.025103
      py      :    -0.005775
      dz2     :     0.000089  d :     0.006356
      dxz     :     0.006094
      dyz     :     0.000094
      dx2y2   :     0.000022
      dxy     :     0.000058
  1 C s       :     0.025529  s :     0.025529
      pz      :     0.208303  p :     0.210394
      px      :     0.007151
      py      :    -0.005059
      dz2     :    -0.000576  d :     0.002278
      dxz     :    -0.000175
      dyz     :     0.003011
      dx2y2   :    -0.000124
      dxy     :     0.000142
  2 C s       :     0.048673  s :     0.048673
      pz      :     0.337244  p :     0.355575
      px      :     0.012629
      py      :     0.005702
      dz2     :    -0.000888  d :     0.000180
      dxz     :    -0.000217
      dyz     :     0.001300
      dx2y2   :    -0.000128
      dxy     :     0.000113
  3 C s       :    -0.021691  s :    -0.021691
      pz      :    -0.060721  p :    -0.091599
      px      :    -0.025103
      py      :    -0.005775
      dz2     :     0.000089  d :     0.006357
      dxz     :     0.006094
      dyz     :     0.000094
      dx2y2   :     0.000022
      dxy     :     0.000058
  4 C s       :     0.025529  s :     0.025529
      pz      :     0.208307  p :     0.210399
      px      :     0.007151
      py      :    -0.005059
      dz2     :    -0.000576  d :     0.002278
      dxz     :    -0.000175
      dyz     :     0.003011
      dx2y2   :    -0.000124
      dxy     :     0.000142
  5 C s       :     0.048674  s :     0.048674
      pz      :     0.337247  p :     0.355579
      px      :     0.012630
      py      :     0.005702
      dz2     :    -0.000888  d :     0.000180
      dxz     :    -0.000217
      dyz     :     0.001300
      dx2y2   :    -0.000128
      dxy     :     0.000113
  6 H s       :     0.003239  s :     0.003239
      pz      :    -0.000325  p :    -0.000388
      px      :    -0.000037
      py      :    -0.000026
  7 H s       :    -0.027089  s :    -0.027089
      pz      :     0.003265  p :     0.003399
      px      :     0.000084
      py      :     0.000050
  8 H s       :    -0.017052  s :    -0.017052
      pz      :     0.002125  p :     0.002191
      px      :     0.000073
      py      :    -0.000006
  9 H s       :     0.003239  s :     0.003239
      pz      :    -0.000325  p :    -0.000388
      px      :    -0.000037
      py      :    -0.000026
 10 H s       :    -0.027089  s :    -0.027089
      pz      :     0.003265  p :     0.003399
      px      :     0.000084
      py      :     0.000050
 11 H s       :    -0.017052  s :    -0.017052
      pz      :     0.002125  p :     0.002191
      px      :     0.000073
      py      :    -0.000006


                     *******************************
                     * LOEWDIN POPULATION ANALYSIS *
                     *******************************

-------------------------------------------
LOEWDIN ATOMIC CHARGES AND SPIN POPULATIONS
-------------------------------------------
   0 C :   -0.057410   -0.041170
   1 C :   -0.159025    0.207667
   2 C :   -0.207657    0.327546
   3 C :   -0.057411   -0.041169
   4 C :   -0.159025    0.207672
   5 C :   -0.207658    0.327549
   6 H :   -0.017552   -0.000419
   7 H :   -0.031504    0.003868
   8 H :   -0.026852    0.002504
   9 H :   -0.017551   -0.000419
  10 H :   -0.031504    0.003868
  11 H :   -0.026851    0.002504

----------------------------------------------------
LOEWDIN REDUCED ORBITAL CHARGES AND SPIN POPULATIONS
----------------------------------------------------
CHARGE
  0 C s       :     2.857345  s :     2.857345
      pz      :     1.000675  p :     3.096512
      px      :     1.083877
      py      :     1.011961
      dz2     :     0.006039  d :     0.103553
      dxz     :     0.028676
      dyz     :     0.003446
      dx2y2   :     0.036694
      dxy     :     0.028697
  1 C s       :     2.847619  s :     2.847619
      pz      :     1.143480  p :     3.214789
      px      :     1.011320
      py      :     1.059989
      dz2     :     0.006310  d :     0.096616
      dxz     :     0.005092
      dyz     :     0.019333
      dx2y2   :     0.032763
      dxy     :     0.033118
  2 C s       :     2.842638  s :     2.842638
      pz      :     1.212667  p :     3.271859
      px      :     1.019889
      py      :     1.039303
      dz2     :     0.006484  d :     0.093160
      dxz     :     0.007302
      dyz     :     0.013227
      dx2y2   :     0.030070
      dxy     :     0.036077
  3 C s       :     2.857342  s :     2.857342
      pz      :     1.000675  p :     3.096515
      px      :     1.083879
      py      :     1.011961
      dz2     :     0.006039  d :     0.103554
      dxz     :     0.028677
      dyz     :     0.003446
      dx2y2   :     0.036694
      dxy     :     0.028698
  4 C s       :     2.847619  s :     2.847619
      pz      :     1.143481  p :     3.214790
      px      :     1.011319
      py      :     1.059989
      dz2     :     0.006310  d :     0.096616
      dxz     :     0.005092
      dyz     :     0.019334
      dx2y2   :     0.032763
      dxy     :     0.033118
  5 C s       :     2.842638  s :     2.842638
      pz      :     1.212669  p :     3.271862
      px      :     1.019889
      py      :     1.039304
      dz2     :     0.006484  d :     0.093159
      dxz     :     0.007302
      dyz     :     0.013227
      dx2y2   :     0.030069
      dxy     :     0.036077
  6 H s       :     0.952280  s :     0.952280
      pz      :     0.016167  p :     0.065272
      px      :     0.012834
      py      :     0.036271
  7 H s       :     0.958712  s :     0.958712
      pz      :     0.026674  p :     0.072792
      px      :     0.025994
      py      :     0.020124
  8 H s       :     0.956490  s :     0.956490
      pz      :     0.023260  p :     0.070362
      px      :     0.031649
      py      :     0.015453
  9 H s       :     0.952280  s :     0.952280
      pz      :     0.016167  p :     0.065272
      px      :     0.012834
      py      :     0.036270
 10 H s       :     0.958713  s :     0.958713
      pz      :     0.026673  p :     0.072790
      px      :     0.025994
      py      :     0.020123
 11 H s       :     0.956490  s :     0.956490
      pz      :     0.023259  p :     0.070362
      px      :     0.031649
      py      :     0.015453

SPIN
  0 C s       :    -0.004030  s :    -0.004030
      pz      :    -0.044594  p :    -0.053549
      px      :    -0.006488
      py      :    -0.002467
      dz2     :     0.000177  d :     0.016409
      dxz     :     0.015182
      dyz     :     0.000312
      dx2y2   :     0.000321
      dxy     :     0.000418
  1 C s       :     0.005332  s :     0.005332
      pz      :     0.192020  p :     0.195662
      px      :     0.003321
      py      :     0.000322
      dz2     :    -0.000571  d :     0.006673
      dxz     :    -0.000443
      dyz     :     0.007818
      dx2y2   :    -0.000166
      dxy     :     0.000034
  2 C s       :     0.009895  s :     0.009895
      pz      :     0.306086  p :     0.315899
      px      :     0.005771
      py      :     0.004042
      dz2     :    -0.000932  d :     0.001752
      dxz     :    -0.000503
      dyz     :     0.003763
      dx2y2   :    -0.000350
      dxy     :    -0.000226
  3 C s       :    -0.004030  s :    -0.004030
      pz      :    -0.044593  p :    -0.053548
      px      :    -0.006488
      py      :    -0.002467
      dz2     :     0.000177  d :     0.016409
      dxz     :     0.015182
      dyz     :     0.000312
      dx2y2   :     0.000321
      dxy     :     0.000418
  4 C s       :     0.005332  s :     0.005332
      pz      :     0.192024  p :     0.195667
      px      :     0.003321
      py      :     0.000322
      dz2     :    -0.000571  d :     0.006673
      dxz     :    -0.000443
      dyz     :     0.007818
      dx2y2   :    -0.000166
      dxy     :     0.000034
  5 C s       :     0.009895  s :     0.009895
      pz      :     0.306089  p :     0.315902
      px      :     0.005771
      py      :     0.004042
      dz2     :    -0.000932  d :     0.001752
      dxz     :    -0.000503
      dyz     :     0.003764
      dx2y2   :    -0.000350
      dxy     :    -0.000226
  6 H s       :     0.001141  s :     0.001141
      pz      :    -0.001126  p :    -0.001560
      px      :    -0.000240
      py      :    -0.000194
  7 H s       :    -0.010546  s :    -0.010546
      pz      :     0.013054  p :     0.014415
      px      :     0.000892
      py      :     0.000468
  8 H s       :    -0.006702  s :    -0.006702
      pz      :     0.008427  p :     0.009207
      px      :     0.000737
      py      :     0.000042
  9 H s       :     0.001141  s :     0.001141
      pz      :    -0.001126  p :    -0.001560
      px      :    -0.000240
      py      :    -0.000194
 10 H s       :    -0.010546  s :    -0.010546
      pz      :     0.013054  p :     0.014414
      px      :     0.000892
      py      :     0.000468
 11 H s       :    -0.006702  s :    -0.006702
      pz      :     0.008427  p :     0.009207
      px      :     0.000737
      py      :     0.000042


                      *****************************
                      * MAYER POPULATION ANALYSIS *
                      *****************************

  NA   - Mulliken gross atomic population
  ZA   - Total nuclear charge
  QA   - Mulliken gross atomic charge
  VA   - Mayer's total valence
  BVA  - Mayer's bonded valence
  FA   - Mayer's free valence

  ATOM       NA         ZA         QA         VA         BVA        FA
  0 C      5.9683     6.0000     0.0317     3.8445     3.8397     0.0048
  1 C      6.0417     6.0000    -0.0417     3.7543     3.7059     0.0483
  2 C      6.0745     6.0000    -0.0745     3.6950     3.5732     0.1218
  3 C      5.9683     6.0000     0.0317     3.8445     3.8397     0.0048
  4 C      6.0417     6.0000    -0.0417     3.7543     3.7059     0.0483
  5 C      6.0745     6.0000    -0.0745     3.6950     3.5732     0.1218
  6 H      1.1268     1.0000    -0.1268     0.9482     0.9481     0.0000
  7 H      1.1479     1.0000    -0.1479     0.9495     0.9488     0.0008
  8 H      1.1408     1.0000    -0.1408     0.9493     0.9490     0.0003
  9 H      1.1268     1.0000    -0.1268     0.9482     0.9481     0.0000
 10 H      1.1479     1.0000    -0.1479     0.9495     0.9488     0.0008
 11 H      1.1408     1.0000    -0.1408     0.9493     0.9490     0.0003

  Mayer bond orders larger than 0.100000
B(  0-C ,  1-C ) :   1.4740 B(  0-C ,  5-C ) :   1.3259 B(  0-C ,  6-H ) :   0.9621 
B(  1-C ,  2-C ) :   1.1447 B(  1-C , 11-H ) :   0.9630 B(  2-C ,  3-C ) :   1.3260 
B(  2-C , 10-H ) :   0.9630 B(  3-C ,  4-C ) :   1.4739 B(  3-C ,  9-H ) :   0.9621 
B(  4-C ,  5-C ) :   1.1447 B(  4-C ,  8-H ) :   0.9630 B(  5-C ,  7-H ) :   0.9630 


-------
TIMINGS
-------

Total SCF time: 0 days 0 hours 0 min 43 sec 

Total time                  ....      43.141 sec
Sum of individual times     ....      42.864 sec  ( 99.4%)

Fock matrix formation       ....      40.857 sec  ( 94.7%)
  Split-RI-J                ....       2.395 sec  (  5.9% of F)
  Chain of spheres X        ....      28.302 sec  ( 69.3% of F)
  XC integration            ....      10.018 sec  ( 24.5% of F)
    Basis function eval.    ....       2.616 sec  ( 26.1% of XC)
    Density eval.           ....       3.079 sec  ( 30.7% of XC)
    XC-Functional eval.     ....       0.838 sec  (  8.4% of XC)
    XC-Potential eval.      ....       2.917 sec  ( 29.1% of XC)
Diagonalization             ....       0.081 sec  (  0.2%)
Density matrix formation    ....       0.008 sec  (  0.0%)
Population analysis         ....       0.033 sec  (  0.1%)
Initial guess               ....       0.316 sec  (  0.7%)
Orbital Transformation      ....       0.000 sec  (  0.0%)
Orbital Orthonormalization  ....       0.000 sec  (  0.0%)
DIIS solution               ....       0.102 sec  (  0.2%)
Grid generation             ....       1.467 sec  (  3.4%)

Maximum memory used throughout the entire SCF-calculation: 58.7 MB


-------------------------------------------------------------------------------
                          DFT DISPERSION CORRECTION                            
                                                                               
                              DFTD3 V3.1  Rev 1                                
                          USING Becke-Johnson damping                          
-------------------------------------------------------------------------------
The B3LYP functional is recognized
Active option DFTDOPT                   ...         4   

molecular C6(AA) [au] = 1659.433054 


            DFT-D V3
 parameters
 s6 scaling factor         :     1.0000 
 a1 scaling factor         :     0.3981 
 s8 scaling factor         :     1.9889 
 a2 scaling factor         :     4.4211 
 ad hoc parameters k1-k3   :    16.0000     1.3333    -4.0000 

 Edisp/kcal,au: -11.869319796057  -0.018914963073 
 E6   /kcal   :  -5.472106328 
 E8   /kcal   :  -6.397213468 
 % E8         :  53.897052044 

-------------------------   ----------------
Dispersion correction           -0.018914963
-------------------------   ----------------


-------------------------   --------------------
FINAL SINGLE POINT ENERGY      -231.874563045708
-------------------------   --------------------


                            ***************************************
                            *     ORCA property calculations      *
                            ***************************************

                                    ---------------------
                                    Active property flags
                                    ---------------------
   (+) Dipole Moment


------------------------------------------------------------------------------
                       ORCA ELECTRIC PROPERTIES CALCULATION
------------------------------------------------------------------------------

Dipole Moment Calculation                       ... on
Quadrupole Moment Calculation                   ... off
Polarizability Calculation                      ... off
GBWName                                         ... benzen_fukui_anion.gbw
Electron density                                ... benzen_fukui_anion.scfp
The origin for moment calculation is the CENTER OF MASS  = (-7.464217,  0.406764  0.000000)

-------------
DIPOLE MOMENT
-------------
                                X             Y             Z
Electronic contribution:      0.00000       0.00000      -0.00000
Nuclear contribution   :     -0.00001      -0.00000       0.00000
                        -----------------------------------------
Total Dipole Moment    :     -0.00001       0.00000      -0.00000
                        -----------------------------------------
Magnitude (a.u.)       :      0.00001
Magnitude (Debye)      :      0.00001



--------------------
Rotational spectrum 
--------------------
 
Rotational constants in cm-1:     0.190144     0.190142     0.095071 
Rotational constants in MHz :  5700.361471  5700.315818  2850.169322 

 Dipole components along the rotational axes: 
x,y,z [a.u.] :    -0.000005     0.000003    -0.000000 
x,y,z [Debye]:    -0.000013     0.000008    -0.000000 

 

Timings for individual modules:

Sum of individual times         ...       43.437 sec (=   0.724 min)
GTO integral calculation        ...        0.251 sec (=   0.004 min)   0.6 %
SCF iterations                  ...       43.186 sec (=   0.720 min)  99.4 %
                             ****ORCA TERMINATED NORMALLY****
TOTAL RUN TIME: 0 days 0 hours 0 minutes 43 seconds 852 msec
