
                                 *****************
                                 * O   R   C   A *
                                 *****************

                                            #,                                       
                                            ###                                      
                                            ####                                     
                                            #####                                    
                                            ######                                   
                                           ########,                                 
                                     ,,################,,,,,                         
                               ,,#################################,,                 
                          ,,##########################################,,             
                       ,#########################################, ''#####,          
                    ,#############################################,,   '####,        
                  ,##################################################,,,,####,       
                ,###########''''           ''''###############################       
              ,#####''   ,,,,##########,,,,          '''####'''          '####       
            ,##' ,,,,###########################,,,                        '##       
           ' ,,###''''                  '''############,,,                           
         ,,##''                                '''############,,,,        ,,,,,,###''
      ,#''                                            '''#######################'''  
     '                                                          ''''####''''         
             ,#######,   #######,   ,#######,      ##                                
            ,#'     '#,  ##    ##  ,#'     '#,    #''#        ######   ,####,        
            ##       ##  ##   ,#'  ##            #'  '#       #        #'  '#        
            ##       ##  #######   ##           ,######,      #####,   #    #        
            '#,     ,#'  ##    ##  '#,     ,#' ,#      #,         ##   #,  ,#        
             '#######'   ##     ##  '#######'  #'      '#     #####' # '####'        



                  #######################################################
                  #                        -***-                        #
                  #          Department of theory and spectroscopy      #
                  #    Directorship and core code : Frank Neese         #
                  #        Max Planck Institute fuer Kohlenforschung    #
                  #                Kaiser Wilhelm Platz 1               #
                  #                 D-45470 Muelheim/Ruhr               #
                  #                      Germany                        #
                  #                                                     #
                  #                  All rights reserved                #
                  #                        -***-                        #
                  #######################################################



                         Program Version 5.0.4 -  RELEASE  -

 With contributions from (in alphabetic order):
   Daniel Aravena         : Magnetic Suceptibility
   Michael Atanasov       : Ab Initio Ligand Field Theory (pilot matlab implementation)
   Alexander A. Auer      : GIAO ZORA, VPT2 properties, NMR spectrum
   Ute Becker             : Parallelization
   Giovanni Bistoni       : ED, misc. LED, open-shell LED, HFLD
   Martin Brehm           : Molecular dynamics
   Dmytro Bykov           : SCF Hessian
   Vijay G. Chilkuri      : MRCI spin determinant printing, contributions to CSF-ICE
   Dipayan Datta          : RHF DLPNO-CCSD density
   Achintya Kumar Dutta   : EOM-CC, STEOM-CC
   Dmitry Ganyushin       : Spin-Orbit,Spin-Spin,Magnetic field MRCI
   Miquel Garcia          : C-PCM and meta-GGA Hessian, CC/C-PCM, Gaussian charge scheme
   Yang Guo               : DLPNO-NEVPT2, F12-NEVPT2, CIM, IAO-localization
   Andreas Hansen         : Spin unrestricted coupled pair/coupled cluster methods
   Benjamin Helmich-Paris : MC-RPA, TRAH-SCF, COSX integrals
   Lee Huntington         : MR-EOM, pCC
   Robert Izsak           : Overlap fitted RIJCOSX, COSX-SCS-MP3, EOM
   Marcus Kettner         : VPT2
   Christian Kollmar      : KDIIS, OOCD, Brueckner-CCSD(T), CCSD density, CASPT2, CASPT2-K
   Simone Kossmann        : Meta GGA functionals, TD-DFT gradient, OOMP2, MP2 Hessian
   Martin Krupicka        : Initial AUTO-CI
   Lucas Lang             : DCDCAS
   Marvin Lechner         : AUTO-CI (C++ implementation), FIC-MRCC
   Dagmar Lenk            : GEPOL surface, SMD
   Dimitrios Liakos       : Extrapolation schemes; Compound Job, initial MDCI parallelization
   Dimitrios Manganas     : Further ROCIS development; embedding schemes
   Dimitrios Pantazis     : SARC Basis sets
   Anastasios Papadopoulos: AUTO-CI, single reference methods and gradients
   Taras Petrenko         : DFT Hessian,TD-DFT gradient, ASA, ECA, R-Raman, ABS, FL, XAS/XES, NRVS
   Peter Pinski           : DLPNO-MP2, DLPNO-MP2 Gradient
   Christoph Reimann      : Effective Core Potentials
   Marius Retegan         : Local ZFS, SOC
   Christoph Riplinger    : Optimizer, TS searches, QM/MM, DLPNO-CCSD(T), (RO)-DLPNO pert. Triples
   Tobias Risthaus        : Range-separated hybrids, TD-DFT gradient, RPA, STAB
   Michael Roemelt        : Original ROCIS implementation
   Masaaki Saitow         : Open-shell DLPNO-CCSD energy and density
   Barbara Sandhoefer     : DKH picture change effects
   Avijit Sen             : IP-ROCIS
   Kantharuban Sivalingam : CASSCF convergence, NEVPT2, FIC-MRCI
   Bernardo de Souza      : ESD, SOC TD-DFT
   Georgi Stoychev        : AutoAux, RI-MP2 NMR, DLPNO-MP2 response
   Willem Van den Heuvel  : Paramagnetic NMR
   Boris Wezisla          : Elementary symmetry handling
   Frank Wennmohs         : Technical directorship


 We gratefully acknowledge several colleagues who have allowed us to
 interface, adapt or use parts of their codes:
   Stefan Grimme, W. Hujo, H. Kruse, P. Pracht,  : VdW corrections, initial TS optimization,
                  C. Bannwarth, S. Ehlert          DFT functionals, gCP, sTDA/sTD-DF
   Ed Valeev, F. Pavosevic, A. Kumar             : LibInt (2-el integral package), F12 methods
   Garnet Chan, S. Sharma, J. Yang, R. Olivares  : DMRG
   Ulf Ekstrom                                   : XCFun DFT Library
   Mihaly Kallay                                 : mrcc  (arbitrary order and MRCC methods)
   Jiri Pittner, Ondrej Demel                    : Mk-CCSD
   Frank Weinhold                                : gennbo (NPA and NBO analysis)
   Christopher J. Cramer and Donald G. Truhlar   : smd solvation model
   Lars Goerigk                                  : TD-DFT with DH, B97 family of functionals
   V. Asgeirsson, H. Jonsson                     : NEB implementation
   FAccTs GmbH                                   : IRC, NEB, NEB-TS, DLPNO-Multilevel, CI-OPT
                                                   MM, QMMM, 2- and 3-layer-ONIOM, Crystal-QMMM,
                                                   LR-CPCM, SF, NACMEs, symmetry and pop. for TD-DFT,
                                                   nearIR, NL-DFT gradient (VV10), updates on ESD,
                                                   ML-optimized integration grids
   S Lehtola, MJT Oliveira, MAL Marques          : LibXC Library
   Liviu Ungur et al                             : ANISO software


 Your calculation uses the libint2 library for the computation of 2-el integrals
 For citations please refer to: http://libint.valeyev.net

 Your ORCA version has been built with support for libXC version: 5.1.0
 For citations please refer to: https://tddft.org/programs/libxc/

 This ORCA versions uses:
   CBLAS   interface :  Fast vector & matrix operations
   LAPACKE interface :  Fast linear algebra routines
   Shared memory     :  Shared parallel matrices


Your calculation utilizes the atom-pairwise dispersion correction
based on tight binding partial charges (D4)
Cite in your paper:
E.Caldeweyher, C.Bannwarth, S.Grimme, J.Chem.Phys., (2017), 147, 034112.
E.Caldeweyher, S.Ehlert, A.Hansen, H.Neugebauer, S.Grimme, J.Chem.Phys., (2018), in progress.
   

================================================================================

----- Orbital basis set information -----
Your calculation utilizes the basis: def2-SVP
   F. Weigend and R. Ahlrichs, Phys. Chem. Chem. Phys. 7, 3297 (2005).

----- AuxJ basis set information -----
Your calculation utilizes the auxiliary basis: def2/J
   F. Weigend, Phys. Chem. Chem. Phys. 8, 1057 (2006).

================================================================================
                                        WARNINGS
                       Please study these warnings very carefully!
================================================================================


WARNING: Geometry Optimization
  ===> : Switching off AutoStart
         For restart on a previous wavefunction, please use MOREAD

INFO   : the flag for use of the SHARK integral package has been found!

================================================================================
                                       INPUT FILE
================================================================================
NAME = meta_productds_7.inp
|  1> !B3LYP DEF2-SVP OPT FREQ D4 SOSCF
|  2> 
|  3> %geom
|  4> convergence tight
|  5> end
|  6> 
|  7> * xyz 1 1
|  8>    C       -3.20102        2.61416       -0.88321
|  9>    C       -4.33831        1.81781       -1.20132
| 10>    C       -4.16481        0.67999       -1.94570
| 11>    C       -2.90791        0.27299       -2.41562
| 12>    C       -1.78185        1.05882       -2.10948
| 13>    C       -1.92736        2.19974       -1.34732
| 14>    C       -3.37707        3.85078       -0.08242
| 15>    H       -2.82053       -0.63567       -2.99403
| 16>    H       -5.32258        2.10248       -0.85213
| 17>    H       -2.41818        4.29649        0.18650
| 18>    H       -3.92782        3.65638        0.84469
| 19>    H       -3.94495        4.60609       -0.63560
| 20>    H       -1.06267        2.80352       -1.09742
| 21>    H       -0.80714        0.75105       -2.46862
| 22>    N       -5.33525       -0.18868       -2.22017
| 23>    O       -5.08988       -1.30597       -2.64712
| 24>    O       -6.43793        0.26548       -1.98332
| 25>    H      -14.91699       -0.92146        7.41375
| 26> **                         ****END OF INPUT****
================================================================================

                       *****************************
                       * Geometry Optimization Run *
                       *****************************

Geometry optimization settings:
Update method            Update   .... BFGS
Choice of coordinates    CoordSys .... Z-matrix Internals
Initial Hessian          InHess   .... Almoef's Model

Convergence Tolerances:
Energy Change            TolE     ....  1.0000e-06 Eh
Max. Gradient            TolMAXG  ....  1.0000e-04 Eh/bohr
RMS Gradient             TolRMSG  ....  3.0000e-05 Eh/bohr
Max. Displacement        TolMAXD  ....  1.0000e-03 bohr
RMS Displacement         TolRMSD  ....  6.0000e-04 bohr
Strict Convergence                ....  False
------------------------------------------------------------------------------
                        ORCA OPTIMIZATION COORDINATE SETUP
------------------------------------------------------------------------------

The optimization will be done in new redundant internal coordinates
Making redundant internal coordinates   ...  (new redundants) done
Evaluating the initial hessian          ...  (Almloef) done
Evaluating the coordinates              ...  done
Calculating the B-matrix                .... done
Calculating the G-matrix                .... done
Diagonalizing the G-matrix              .... done
The first mode is                       ....   68
The number of degrees of freedom        ....   48

    -----------------------------------------------------------------
                    Redundant Internal Coordinates


    -----------------------------------------------------------------
         Definition                    Initial Value    Approx d2E/dq
    -----------------------------------------------------------------
      1. B(C   1,C   0)                  1.4244         0.550709   
      2. B(C   2,C   1)                  1.3707         0.670686   
      3. B(C   3,C   2)                  1.4022         0.597329   
      4. B(C   4,C   3)                  1.4069         0.587267   
      5. B(C   5,C   4)                  1.3798         0.648729   
      6. B(C   5,C   0)                  1.4175         0.564727   
      7. B(C   6,C   0)                  1.4837         0.442773   
      8. B(H   7,C   3)                  1.0807         0.372651   
      9. B(H   8,C   1)                  1.0825         0.370190   
     10. B(H   9,C   6)                  1.0911         0.358680   
     11. B(H  10,C   6)                  1.0957         0.352584   
     12. B(H  11,C   6)                  1.0950         0.353567   
     13. B(H  12,C   5)                  1.0838         0.368354   
     14. B(H  13,C   4)                  1.0834         0.368933   
     15. B(N  14,C   2)                  1.4832         0.397372   
     16. B(O  15,N  14)                  1.2210         0.932499   
     17. B(O  16,N  14)                  1.2158         0.950335   
     18. B(H  17,O  16)                 12.7125         0.000000   
     19. B(H  17,N  14)                 13.6073         0.000000   
     20. B(H  17,H  10)                 13.5967         0.000000   
     21. B(H  17,H   8)                 13.0200         0.000000   
     22. A(C   1,C   0,C   6)          119.4572         0.400286   
     23. A(C   1,C   0,C   5)          118.7409         0.417908   
     24. A(C   5,C   0,C   6)          121.8018         0.402062   
     25. A(C   0,C   1,H   8)          120.4604         0.347536   
     26. A(C   0,C   1,C   2)          118.9680         0.430961   
     27. A(C   2,C   1,H   8)          120.5690         0.359330   
     28. A(C   3,C   2,N  14)          118.3813         0.395849   
     29. A(C   1,C   2,N  14)          119.1290         0.404000   
     30. A(C   1,C   2,C   3)          122.4379         0.437309   
     31. A(C   2,C   3,C   4)          118.8420         0.426994   
     32. A(C   4,C   3,H   7)          121.4269         0.351718   
     33. A(C   2,C   3,H   7)          119.7287         0.352730   
     34. A(C   3,C   4,H  13)          119.2941         0.351123   
     35. A(C   5,C   4,H  13)          120.8566         0.357095   
     36. A(C   3,C   4,C   5)          119.8458         0.433368   
     37. A(C   0,C   5,C   4)          121.1554         0.430331   
     38. A(C   4,C   5,H  12)          120.2565         0.357000   
     39. A(C   0,C   5,H  12)          118.5866         0.348719   
     40. A(H   9,C   6,H  10)          107.7983         0.289699   
     41. A(C   0,C   6,H  10)          111.6184         0.332382   
     42. A(C   0,C   6,H   9)          111.6671         0.333328   
     43. A(H  10,C   6,H  11)          106.8072         0.289047   
     44. A(H   9,C   6,H  11)          107.3688         0.289825   
     45. A(C   0,C   6,H  11)          111.3326         0.332535   
     46. A(C   1,H   8,H  17)          144.4647         0.089005   
     47. A(C   6,H  10,H  17)          151.0154         0.089003   
     48. A(C   2,N  14,H  17)          117.1423         0.089007   
     49. A(O  15,N  14,O  16)          126.3121         0.492187   
     50. A(C   2,N  14,O  16)          117.4433         0.424212   
     51. A(C   2,N  14,O  15)          116.2352         0.422778   
     52. A(O  16,N  14,H  17)           40.8496         0.089008   
     53. A(O  15,N  14,H  17)          109.8645         0.089008   
     54. A(N  14,O  16,H  17)          135.5638         0.089018   
     55. A(H   8,H  17,H  10)           11.3355         0.089000   
     56. A(H  10,H  17,O  16)           21.9301         0.089000   
     57. A(H   8,H  17,O  16)           10.7445         0.089000   
     58. A(H  10,H  17,N  14)           21.6730         0.089000   
     59. A(H   8,H  17,N  14)           11.2232         0.089000   
     60. D(H   8,C   1,C   0,C   5)    179.3362         0.020749   
     61. D(H   8,C   1,C   0,C   6)     -0.8132         0.020749   
     62. D(C   2,C   1,C   0,C   5)     -0.0815         0.020749   
     63. D(C   2,C   1,C   0,C   6)    179.7691         0.020749   
     64. D(N  14,C   2,C   1,H   8)     -2.5270         0.031464   
     65. D(N  14,C   2,C   1,C   0)    176.8900         0.031464   
     66. D(C   3,C   2,C   1,H   8)   -179.8666         0.031464   
     67. D(C   3,C   2,C   1,C   0)     -0.4496         0.031464   
     68. D(H   7,C   3,C   2,N  14)      2.2665         0.024585   
     69. D(H   7,C   3,C   2,C   1)    179.6251         0.024585   
     70. D(C   4,C   3,C   2,N  14)   -177.1874         0.024585   
     71. D(C   4,C   3,C   2,C   1)      0.1712         0.024585   
     72. D(C   5,C   4,C   3,C   2)      0.6581         0.023723   
     73. D(H  13,C   4,C   3,H   7)      0.5398         0.023723   
     74. D(H  13,C   4,C   3,C   2)    179.9841         0.023723   
     75. D(C   5,C   4,C   3,H   7)   -178.7862         0.023723   
     76. D(H  12,C   5,C   4,H  13)     -0.0574         0.029294   
     77. D(C   0,C   5,C   4,H  13)    179.4850         0.029294   
     78. D(C   0,C   5,C   4,C   3)     -1.1998         0.029294   
     79. D(H  12,C   5,C   0,C   1)   -179.5402         0.021860   
     80. D(C   4,C   5,C   0,C   6)   -178.9370         0.021860   
     81. D(H  12,C   5,C   4,C   3)    179.2578         0.029294   
     82. D(C   4,C   5,C   0,C   1)      0.9099         0.021860   
     83. D(H  12,C   5,C   0,C   6)      0.6129         0.021860   
     84. D(H  11,C   6,C   0,C   5)    113.0959         0.014463   
     85. D(H  11,C   6,C   0,C   1)    -66.7499         0.014463   
     86. D(H  10,C   6,C   0,C   5)   -127.6503         0.014463   
     87. D(H   9,C   6,C   0,C   1)    173.2501         0.014463   
     88. D(H   9,C   6,C   0,C   5)     -6.9041         0.014463   
     89. D(H  10,C   6,C   0,C   1)     52.5039         0.014463   
     90. D(H  17,H   8,C   1,C   0)   -109.0981         0.117261   
     91. D(H  17,H   8,C   1,C   2)     70.3102         0.117261   
     92. D(H  17,H  10,C   6,H  11)     65.0365         0.115398   
     93. D(H  17,H  10,C   6,H   9)   -179.8453         0.115398   
     94. D(H  17,H  10,C   6,C   0)    -56.8659         0.115398   
     95. D(H  17,N  14,C   2,C   3)    144.3210         0.013486   
     96. D(H  17,N  14,C   2,C   1)    -33.1270         0.013486   
     97. D(O  16,N  14,C   2,C   3)   -169.4357         0.013486   
     98. D(O  16,N  14,C   2,C   1)     13.1163         0.013486   
     99. D(O  15,N  14,C   2,C   3)     11.6061         0.013486   
    100. D(O  15,N  14,C   2,C   1)   -165.8419         0.013486   
    101. D(H  17,O  16,N  14,O  15)     78.1592         0.096081   
    102. D(H  17,O  16,N  14,C   2)   -100.6811         0.096081   
    103. D(H  10,H  17,O  16,N  14)     81.4247         0.001500   
    104. D(H   8,H  17,O  16,N  14)     88.3680         0.001500   
    105. D(H  10,H  17,N  14,O  15)    147.3676         0.001500   
    106. D(H  10,H  17,N  14,C   2)     11.8545         0.001500   
    107. D(H   8,H  17,N  14,O  16)    -73.2290         0.001500   
    108. D(H   8,H  17,N  14,O  15)    163.7585         0.001500   
    109. D(H   8,H  17,N  14,C   2)     28.2454         0.001500   
    110. D(O  16,H  17,H  10,C   6)     23.6365         0.001500   
    111. D(N  14,H  17,H  10,C   6)     33.2787         0.001500   
    112. D(H   8,H  17,H  10,C   6)     17.0524         0.001500   
    113. D(H  10,H  17,N  14,O  16)    -89.6199         0.001500   
    114. D(O  16,H  17,H   8,C   1)    -78.8888         0.001500   
    115. D(N  14,H  17,H   8,C   1)    -60.1485         0.001500   
    116. D(H  10,H  17,H   8,C   1)     87.8318         0.001500   
    -----------------------------------------------------------------

Number of atoms                         .... 18
Number of degrees of freedom            .... 116

         *************************************************************
         *                GEOMETRY OPTIMIZATION CYCLE   1            *
         *************************************************************
---------------------------------
CARTESIAN COORDINATES (ANGSTROEM)
---------------------------------
  C     -3.201020    2.614160   -0.883210
  C     -4.338310    1.817810   -1.201320
  C     -4.164810    0.679990   -1.945700
  C     -2.907910    0.272990   -2.415620
  C     -1.781850    1.058820   -2.109480
  C     -1.927360    2.199740   -1.347320
  C     -3.377070    3.850780   -0.082420
  H     -2.820530   -0.635670   -2.994030
  H     -5.322580    2.102480   -0.852130
  H     -2.418180    4.296490    0.186500
  H     -3.927820    3.656380    0.844690
  H     -3.944950    4.606090   -0.635600
  H     -1.062670    2.803520   -1.097420
  H     -0.807140    0.751050   -2.468620
  N     -5.335250   -0.188680   -2.220170
  O     -5.089880   -1.305970   -2.647120
  O     -6.437930    0.265480   -1.983320
  H    -14.916990   -0.921460    7.413750

----------------------------
CARTESIAN COORDINATES (A.U.)
----------------------------
  NO LB      ZA    FRAG     MASS         X           Y           Z
   0 C     6.0000    0    12.011   -6.049051    4.940046   -1.669025
   1 C     6.0000    0    12.011   -8.198218    3.435163   -2.270166
   2 C     6.0000    0    12.011   -7.870350    1.284995   -3.676840
   3 C     6.0000    0    12.011   -5.495154    0.515876   -4.564860
   4 C     6.0000    0    12.011   -3.367209    2.000880   -3.986339
   5 C     6.0000    0    12.011   -3.642183    4.156906   -2.546066
   6 C     6.0000    0    12.011   -6.381737    7.276920   -0.155751
   7 H     1.0000    0     1.008   -5.330029   -1.201242   -5.657897
   8 H     1.0000    0     1.008  -10.058219    3.973111   -1.610292
   9 H     1.0000    0     1.008   -4.569698    8.119189    0.352434
  10 H     1.0000    0     1.008   -7.422504    6.909557    1.596233
  11 H     1.0000    0     1.008   -7.454875    8.704249   -1.201110
  12 H     1.0000    0     1.008   -2.008155    5.297885   -2.073823
  13 H     1.0000    0     1.008   -1.525274    1.419279   -4.665016
  14 N     7.0000    0    14.007  -10.082161   -0.356554   -4.195513
  15 O     8.0000    0    15.999   -9.618479   -2.467926   -5.002332
  16 O     8.0000    0    15.999  -12.165925    0.501684   -3.747932
  17 H     1.0000    0     1.008  -28.189026   -1.741307   14.009957

--------------------------------
INTERNAL COORDINATES (ANGSTROEM)
--------------------------------
 C      0   0   0     0.000000000000     0.00000000     0.00000000
 C      1   0   0     1.424358044419     0.00000000     0.00000000
 C      2   1   0     1.370707184923   118.96800557     0.00000000
 C      3   2   1     1.402238002766   122.43792347   359.55040118
 C      4   3   2     1.406862328766   118.84204487     0.17115454
 C      5   4   3     1.379767905157   119.84579613     0.65811651
 C      1   2   3     1.483740964926   119.45716111   179.76910362
 H      4   3   2     1.080674043410   119.72871640   179.62508024
 H      2   1   3     1.082477758617   120.46040631   179.41765353
 H      7   1   2     1.091075342311   111.66711728   173.25008995
 H      7   1   2     1.095741700676   111.61839525    52.50390995
 H      7   1   2     1.094983562845   111.33261746   293.25005308
 H      6   5   4     1.083830749933   120.25648646   179.25783938
 H      5   4   3     1.083403662815   119.29410720   179.98409995
 N      3   2   1     1.483189517021   119.12902940   176.88998971
 O     15   3   2     1.220995365880   116.23518329   194.15812282
 O     15   3   2     1.215838151441   117.44333435    13.11631800
 H     17  15   3    12.712521765256   135.56383515   259.31892508

---------------------------
INTERNAL COORDINATES (A.U.)
---------------------------
 C      0   0   0     0.000000000000     0.00000000     0.00000000
 C      1   0   0     2.691646620599     0.00000000     0.00000000
 C      2   1   0     2.590261189303   118.96800557     0.00000000
 C      3   2   1     2.649845799804   122.43792347   359.55040118
 C      4   3   2     2.658584509498   118.84204487     0.17115454
 C      5   4   3     2.607383469120   119.84579613     0.65811651
 C      1   2   3     2.803864077390   119.45716111   179.76910362
 H      4   3   2     2.042177982082   119.72871640   179.62508024
 H      2   1   3     2.045586509847   120.46040631   179.41765353
 H      7   1   2     2.061833588443   111.66711728   173.25008995
 H      7   1   2     2.070651727794   111.61839525    52.50390995
 H      7   1   2     2.069219054922   111.33261746   293.25005308
 H      6   5   4     2.048143292896   120.25648646   179.25783938
 H      5   4   3     2.047336215207   119.29410720   179.98409995
 N      3   2   1     2.802821991872   119.12902940   176.88998971
 O     15   3   2     2.307346852300   116.23518329   194.15812282
 O     15   3   2     2.297601129397   117.44333435    13.11631800
 H     17  15   3    24.023184607846   135.56383515   259.31892508

---------------------
BASIS SET INFORMATION
---------------------
There are 4 groups of distinct atoms

 Group   1 Type C   : 7s4p1d contracted to 3s2p1d pattern {511/31/1}
 Group   2 Type H   : 4s1p contracted to 2s1p pattern {31/1}
 Group   3 Type N   : 7s4p1d contracted to 3s2p1d pattern {511/31/1}
 Group   4 Type O   : 7s4p1d contracted to 3s2p1d pattern {511/31/1}

Atom   0C    basis set group =>   1
Atom   1C    basis set group =>   1
Atom   2C    basis set group =>   1
Atom   3C    basis set group =>   1
Atom   4C    basis set group =>   1
Atom   5C    basis set group =>   1
Atom   6C    basis set group =>   1
Atom   7H    basis set group =>   2
Atom   8H    basis set group =>   2
Atom   9H    basis set group =>   2
Atom  10H    basis set group =>   2
Atom  11H    basis set group =>   2
Atom  12H    basis set group =>   2
Atom  13H    basis set group =>   2
Atom  14N    basis set group =>   3
Atom  15O    basis set group =>   4
Atom  16O    basis set group =>   4
Atom  17H    basis set group =>   2
---------------------------------
AUXILIARY/J BASIS SET INFORMATION
---------------------------------
There are 4 groups of distinct atoms

 Group   1 Type C   : 12s5p4d2f1g contracted to 6s4p3d1f1g pattern {711111/2111/211/2/1}
 Group   2 Type H   : 5s2p1d contracted to 3s1p1d pattern {311/2/1}
 Group   3 Type N   : 12s5p4d2f1g contracted to 6s4p3d1f1g pattern {711111/2111/211/2/1}
 Group   4 Type O   : 12s5p4d2f1g contracted to 6s4p3d1f1g pattern {711111/2111/211/2/1}

Atom   0C    basis set group =>   1
Atom   1C    basis set group =>   1
Atom   2C    basis set group =>   1
Atom   3C    basis set group =>   1
Atom   4C    basis set group =>   1
Atom   5C    basis set group =>   1
Atom   6C    basis set group =>   1
Atom   7H    basis set group =>   2
Atom   8H    basis set group =>   2
Atom   9H    basis set group =>   2
Atom  10H    basis set group =>   2
Atom  11H    basis set group =>   2
Atom  12H    basis set group =>   2
Atom  13H    basis set group =>   2
Atom  14N    basis set group =>   3
Atom  15O    basis set group =>   4
Atom  16O    basis set group =>   4
Atom  17H    basis set group =>   2
------------------------------------------------------------------------------
                           ORCA GTO INTEGRAL CALCULATION
                           -- RI-GTO INTEGRALS CHOSEN --
------------------------------------------------------------------------------
------------------------------------------------------------------------------
                   ___                                                        
                  /   \      - P O W E R E D   B Y -                         
                 /     \                                                     
                 |  |  |   _    _      __       _____    __    __             
                 |  |  |  | |  | |    /  \     |  _  \  |  |  /  |          
                  \  \/   | |  | |   /    \    | | | |  |  | /  /          
                 / \  \   | |__| |  /  /\  \   | |_| |  |  |/  /          
                |  |  |   |  __  | /  /__\  \  |    /   |      \           
                |  |  |   | |  | | |   __   |  |    \   |  |\   \          
                \     /   | |  | | |  |  |  |  | |\  \  |  | \   \       
                 \___/    |_|  |_| |__|  |__|  |_| \__\ |__|  \__/        
                                                                              
                      - O R C A' S   B I G   F R I E N D -                    
                                      &                                       
                       - I N T E G R A L  F E E D E R -                       
                                                                              
 v1 FN, 2020, v2 2021                                                         
------------------------------------------------------------------------------


Reading SHARK input file meta_productds_7.SHARKINP.tmp ... ok
----------------------
SHARK INTEGRAL PACKAGE
----------------------

Number of atoms                             ...     18
Number of basis functions                   ...    180
Number of shells                            ...     84
Maximum angular momentum                    ...      2
Integral batch strategy                     ... SHARK/LIBINT Hybrid
RI-J (if used) integral strategy            ... SPLIT-RIJ (Revised 2003 algorithm where possible)
Printlevel                                  ...      1
Contraction scheme used                     ... SEGMENTED contraction
Coulomb Range Separation                    ... NOT USED
Exchange Range Separation                   ... NOT USED
Finite Nucleus Model                        ... NOT USED
Auxiliary Coulomb fitting basis             ... AVAILABLE
   # of basis functions in Aux-J            ...    578
   # of shells in Aux-J                     ...    190
   Maximum angular momentum in Aux-J        ...      4
Auxiliary J/K fitting basis                 ... NOT available
Auxiliary Correlation fitting basis         ... NOT available
Auxiliary 'external' fitting basis          ... NOT available
Integral threshold                          ...     2.500000e-11
Primitive cut-off                           ...     2.500000e-12
Primitive pair pre-selection threshold      ...     2.500000e-12

Calculating pre-screening integrals         ... done (  0.1 sec) Dimension = 84
Organizing shell pair data                  ... done (  0.1 sec)
Shell pair information
Total number of shell pairs                 ...      3570
Shell pairs after pre-screening             ...      3012
Total number of primitive shell pairs       ...     13034
Primitive shell pairs kept                  ...      7963
          la=0 lb=0:    900 shell pairs
          la=1 lb=0:   1089 shell pairs
          la=1 lb=1:    351 shell pairs
          la=2 lb=0:    385 shell pairs
          la=2 lb=1:    239 shell pairs
          la=2 lb=2:     48 shell pairs

Calculating one electron integrals          ... done (  0.0 sec)
Calculating RI/J V-Matrix + Cholesky decomp.... done (  0.0 sec)
Calculating Nuclear repulsion               ... done (  0.0 sec) ENN=    497.287510118499 Eh

SHARK setup successfully completed in   0.5 seconds

Maximum memory used throughout the entire GTOINT-calculation: 24.7 MB
-------------------------------------------------------------------------------
                                 ORCA SCF
-------------------------------------------------------------------------------

------------
SCF SETTINGS
------------
Hamiltonian:
 Density Functional     Method          .... DFT(GTOs)
 Exchange Functional    Exchange        .... B88
   X-Alpha parameter    XAlpha          ....  0.666667
   Becke's b parameter  XBeta           ....  0.004200
 Correlation Functional Correlation     .... LYP
 LDA part of GGA corr.  LDAOpt          .... VWN-5
 Gradients option       PostSCFGGA      .... off
 Hybrid DFT is turned on
   Fraction HF Exchange ScalHFX         ....  0.200000
   Scaling of DF-GGA-X  ScalDFX         ....  0.720000
   Scaling of DF-GGA-C  ScalDFC         ....  0.810000
   Scaling of DF-LDA-C  ScalLDAC        ....  1.000000
   Perturbative correction              ....  0.000000
   Density functional embedding theory  .... OFF
   NL short-range parameter             ....  4.800000
 RI-approximation to the Coulomb term is turned on
   Number of AuxJ basis functions       .... 578
   RIJ-COSX (HFX calculated with COS-X)).... on


General Settings:
 Integral files         IntName         .... meta_productds_7
 Hartree-Fock type      HFTyp           .... RHF
 Total Charge           Charge          ....    1
 Multiplicity           Mult            ....    1
 Number of Electrons    NEL             ....   72
 Basis Dimension        Dim             ....  180
 Nuclear Repulsion      ENuc            ....    497.2875101185 Eh

Convergence Acceleration:
 DIIS                   CNVDIIS         .... on
   Start iteration      DIISMaxIt       ....    12
   Startup error        DIISStart       ....  0.200000
   # of expansion vecs  DIISMaxEq       ....     5
   Bias factor          DIISBfac        ....   1.050
   Max. coefficient     DIISMaxC        ....  10.000
 Trust-Rad. Augm. Hess. CNVTRAH         .... auto
   Auto Start mean grad. ratio tolernc. ....  1.125000
   Auto Start start iteration           ....    20
   Auto Start num. interpolation iter.  ....    10
   Max. Number of Micro iterations      ....    16
   Max. Number of Macro iterations      .... Maxiter - #DIIS iter
   Number of Davidson start vectors     ....     2
   Converg. threshold I  (grad. norm)   ....   1.000e-05
   Converg. threshold II (energy diff.) ....   1.000e-08
   Grad. Scal. Fac. for Micro threshold ....   0.100
   Minimum threshold for Micro iter.    ....   0.010
   NR start threshold (gradient norm)   ....   0.001
   Initial trust radius                 ....   0.400
   Minimum AH scaling param. (alpha)    ....   1.000
   Maximum AH scaling param. (alpha)    .... 1000.000
   Orbital update algorithm             .... Taylor
   White noise on init. David. guess    .... on
   Maximum white noise                  ....   0.010
   Quad. conv. algorithm                .... NR
 SOSCF                  CNVSOSCF        .... on
   Start iteration      SOSCFMaxIt      ....   150
   Startup grad/error   SOSCFStart      ....  0.003300
 Level Shifting         CNVShift        .... on
   Level shift para.    LevelShift      ....    0.2500
   Turn off err/grad.   ShiftErr        ....    0.0010
 Zerner damping         CNVZerner       .... off
 Static damping         CNVDamp         .... on
   Fraction old density DampFac         ....    0.7000
   Max. Damping (<1)    DampMax         ....    0.9800
   Min. Damping (>=0)   DampMin         ....    0.0000
   Turn off err/grad.   DampErr         ....    0.1000
 Fernandez-Rico         CNVRico         .... off

SCF Procedure:
 Maximum # iterations   MaxIter         ....   125
 SCF integral mode      SCFMode         .... Direct
   Integral package                     .... SHARK and LIBINT hybrid scheme
 Reset frequency        DirectResetFreq ....    20
 Integral Threshold     Thresh          ....  2.500e-11 Eh
 Primitive CutOff       TCut            ....  2.500e-12 Eh

Convergence Tolerance:
 Convergence Check Mode ConvCheckMode   .... Total+1el-Energy
 Convergence forced     ConvForced      .... 0
 Energy Change          TolE            ....  1.000e-08 Eh
 1-El. energy change                    ....  1.000e-05 Eh
 Orbital Gradient       TolG            ....  1.000e-05
 Orbital Rotation angle TolX            ....  1.000e-05
 DIIS Error             TolErr          ....  5.000e-07


Diagonalization of the overlap matrix:
Smallest eigenvalue                        ... 2.799e-04
Time for diagonalization                   ...    0.031 sec
Threshold for overlap eigenvalues          ... 1.000e-08
Number of eigenvalues below threshold      ... 0
Time for construction of square roots      ...    0.007 sec
Total time needed                          ...    0.038 sec

Time for model grid setup =    1.617 sec

------------------------------
INITIAL GUESS: MODEL POTENTIAL
------------------------------
Loading Hartree-Fock densities                     ... done
Calculating cut-offs                               ... done
Initializing the effective Hamiltonian             ... done
Setting up the integral package (SHARK)            ... done
Starting the Coulomb interaction                   ... done (   1.6 sec)
Reading the grid                                   ... done
Mapping shells                                     ... done
Starting the XC term evaluation                    ... done (   1.3 sec)
  promolecular density results
     # of electrons  =     72.992047056
     EX              =    -61.286929100
     EC              =     -2.481444137
     EX+EC           =    -63.768373238
Transforming the Hamiltonian                       ... done (   0.0 sec)
Diagonalizing the Hamiltonian                      ... done (   0.0 sec)
Back transforming the eigenvectors                 ... done (   0.0 sec)
Now organizing SCF variables                       ... done
                      ------------------
                      INITIAL GUESS DONE (   4.5 sec)
                      ------------------
-------------------
DFT GRID GENERATION
-------------------

General Integration Accuracy     IntAcc      ... 4.388
Radial Grid Type                 RadialGrid  ... OptM3 with GC (2021)
Angular Grid (max. ang.)         AngularGrid ... 4 (Lebedev-302)
Angular grid pruning method      GridPruning ... 4 (adaptive)
Weight generation scheme         WeightScheme... Becke
Basis function cutoff            BFCut       ... 1.0000e-11
Integration weight cutoff        WCut        ... 1.0000e-14
Angular grids for H and He will be reduced by one unit
Partially contracted basis set               ... off
Rotationally invariant grid construction     ... off

Total number of grid points                  ...    86180
Total number of batches                      ...     1357
Average number of points per batch           ...       63
Average number of grid points per atom       ...     4788
Time for grid setup =    2.293 sec

--------------------
COSX GRID GENERATION
--------------------

GRIDX 1
-------
General Integration Accuracy     IntAcc      ... 3.816
Radial Grid Type                 RadialGrid  ... OptM3 with GC (2021)
Angular Grid (max. ang.)         AngularGrid ... 1 (Lebedev-50)
Angular grid pruning method      GridPruning ... 4 (adaptive)
Weight generation scheme         WeightScheme... Becke
Basis function cutoff            BFCut       ... 1.0000e-11
Integration weight cutoff        WCut        ... 1.0000e-14
Angular grids for H and He will be reduced by one unit
Partially contracted basis set               ... on
Rotationally invariant grid construction     ... off

Total number of grid points                  ...    10973
Total number of batches                      ...      178
Average number of points per batch           ...       61
Average number of grid points per atom       ...      610
UseSFitting                                  ... on

GRIDX 2
-------
General Integration Accuracy     IntAcc      ... 4.020
Radial Grid Type                 RadialGrid  ... OptM3 with GC (2021)
Angular Grid (max. ang.)         AngularGrid ... 2 (Lebedev-110)
Angular grid pruning method      GridPruning ... 4 (adaptive)
Weight generation scheme         WeightScheme... Becke
Basis function cutoff            BFCut       ... 1.0000e-11
Integration weight cutoff        WCut        ... 1.0000e-14
Angular grids for H and He will be reduced by one unit
Partially contracted basis set               ... on
Rotationally invariant grid construction     ... off

Total number of grid points                  ...    24160
Total number of batches                      ...      385
Average number of points per batch           ...       62
Average number of grid points per atom       ...     1342
UseSFitting                                  ... on

GRIDX 3
-------
General Integration Accuracy     IntAcc      ... 4.338
Radial Grid Type                 RadialGrid  ... OptM3 with GC (2021)
Angular Grid (max. ang.)         AngularGrid ... 3 (Lebedev-194)
Angular grid pruning method      GridPruning ... 4 (adaptive)
Weight generation scheme         WeightScheme... Becke
Basis function cutoff            BFCut       ... 1.0000e-11
Integration weight cutoff        WCut        ... 1.0000e-14
Angular grids for H and He will be reduced by one unit
Partially contracted basis set               ... on
Rotationally invariant grid construction     ... off

Total number of grid points                  ...    53256
Total number of batches                      ...      843
Average number of points per batch           ...       63
Average number of grid points per atom       ...     2959
UseSFitting                                  ... on

Time for X-Grid setup             =    3.539 sec

--------------
SCF ITERATIONS
--------------
ITER       Energy         Delta-E        Max-DP      RMS-DP      [F,P]     Damp
               ***  Starting incremental Fock matrix formation  ***
  0   -475.1805915389   0.000000000000 0.20729155  0.00356326  0.2030733 0.7000
  1   -475.4406708308  -0.260079291899 0.15059195  0.00227528  0.0794579 0.7000
                               ***Turning on DIIS***
  2   -475.4364012719   0.004269558842 0.38000883  0.00500702  0.0360845 0.0000
  3   -475.0240851355   0.412316136392 0.18941323  0.00228416  0.2005494 0.7000
  4   -475.4044510764  -0.380365940907 0.44196420  0.00534035  0.0587248 0.0000
  5   -475.4118197130  -0.007368636598 0.01815584  0.00054849  0.0602038 0.0000
  6   -475.4253950921  -0.013575379072 0.00740888  0.00024885  0.0486271 0.0000
  7   -475.4303290766  -0.004933984435 0.02169012  0.00074976  0.0440279 0.0000
  8   -475.4409780378  -0.010648961199 0.01012873  0.00034137  0.0307894 0.0000
  9   -475.4446913202  -0.003713282486 0.02636671  0.00108966  0.0263957 0.0000
 10   -475.4509315242  -0.006240203964 0.02690175  0.00056863  0.0254706 0.0000
 11   -475.4524884600  -0.001556935820 0.00712093  0.00017203  0.0142812 0.0000
                      *** Initiating the SOSCF procedure ***
                           *** Shutting down DIIS ***
                      *** Re-Reading the Fockian *** 
                      *** Removing any level shift *** 
ITER      Energy       Delta-E        Grad      Rot      Max-DP    RMS-DP
 12   -475.45292442  -0.0004359635  0.000722  0.000722  0.001693  0.000056
               *** Restarting incremental Fock matrix formation ***
 13   -475.45292450  -0.0000000789  0.000768  0.003354  0.003114  0.000069
 14   -475.45290483   0.0000196707  0.002346  0.002550  0.002375  0.000040
 15   -475.45293081  -0.0000259816  0.000071  0.000230  0.000438  0.000014
 16   -475.45293051   0.0000002991  0.000103  0.000186  0.000258  0.000008
 17   -475.45293112  -0.0000006048  0.000020  0.000076  0.000063  0.000002
 18   -475.45293111   0.0000000092  0.000030  0.000047  0.000045  0.000001
                  ***Gradient check signals convergence***
              ***Rediagonalizing the Fockian in SOSCF/NRSCF***

               *****************************************************
               *                     SUCCESS                       *
               *           SCF CONVERGED AFTER  19 CYCLES          *
               *****************************************************

Old exchange energy                            =    -12.329516822 Eh
New exchange energy                            =    -12.329534870 Eh
Exchange energy change after final integration =     -0.000018049 Eh
Total energy after final integration           =   -475.452949178 Eh
Final COS-X integration done in                =    21.626 sec

----------------
TOTAL SCF ENERGY
----------------

Total Energy       :         -475.45294918 Eh          -12937.73249 eV

Components:
Nuclear Repulsion  :          497.28751012 Eh           13531.88110 eV
Electronic Energy  :         -972.74045930 Eh          -26469.61359 eV
One Electron Energy:        -1628.31734646 Eh          -44308.76761 eV
Two Electron Energy:          655.57688716 Eh           17839.15402 eV
Max COSX asymmetry :            0.00000258 Eh               0.00007 eV

Virial components:
Potential Energy   :         -946.81721823 Eh          -25764.20633 eV
Kinetic Energy     :          471.36426905 Eh           12826.47385 eV
Virial Ratio       :            2.00867414


DFT components:
N(Alpha)           :       35.999991568374 electrons
N(Beta)            :       35.999991568374 electrons
N(Total)           :       71.999983136749 electrons
E(X)               :      -49.071849273082 Eh       
E(C)               :       -2.907368243985 Eh       
E(XC)              :      -51.979217517067 Eh       
DFET-embed. en.    :        0.000000000000 Eh       

---------------
SCF CONVERGENCE
---------------

  Last Energy change         ...   -1.8875e-08  Tolerance :   1.0000e-08
  Last MAX-Density change    ...    1.3323e-15  Tolerance :   1.0000e-07
  Last RMS-Density change    ...    3.6847e-17  Tolerance :   5.0000e-09
  Last Orbital Gradient      ...    1.7006e-06  Tolerance :   1.0000e-05
  Last Orbital Rotation      ...    6.5894e-06  Tolerance :   1.0000e-05

             **** THE GBW FILE WAS UPDATED (meta_productds_7.gbw) ****
             **** DENSITY meta_productds_7.scfp WAS UPDATED ****
             **** ENERGY FILE WAS UPDATED (meta_productds_7.en.tmp) ****
             **** THE GBW FILE WAS UPDATED (meta_productds_7.gbw) ****
             **** DENSITY meta_productds_7.scfp WAS UPDATED ****
----------------
ORBITAL ENERGIES
----------------

  NO   OCC          E(Eh)            E(eV) 
   0   2.0000     -19.199726      -522.4511 
   1   2.0000     -19.197375      -522.3871 
   2   2.0000     -14.594363      -397.1328 
   3   2.0000     -10.281106      -279.7631 
   4   2.0000     -10.256098      -279.0826 
   5   2.0000     -10.248453      -278.8746 
   6   2.0000     -10.248416      -278.8736 
   7   2.0000     -10.246027      -278.8086 
   8   2.0000     -10.245428      -278.7923 
   9   2.0000     -10.234472      -278.4941 
  10   2.0000      -1.259083       -34.2614 
  11   2.0000      -1.087715       -29.5982 
  12   2.0000      -0.917857       -24.9762 
  13   2.0000      -0.842028       -22.9128 
  14   2.0000      -0.814744       -22.1703 
  15   2.0000      -0.740856       -20.1597 
  16   2.0000      -0.725705       -19.7474 
  17   2.0000      -0.651056       -17.7161 
  18   2.0000      -0.613497       -16.6941 
  19   2.0000      -0.588165       -16.0048 
  20   2.0000      -0.576634       -15.6910 
  21   2.0000      -0.548290       -14.9197 
  22   2.0000      -0.542878       -14.7724 
  23   2.0000      -0.518210       -14.1012 
  24   2.0000      -0.494844       -13.4654 
  25   2.0000      -0.474030       -12.8990 
  26   2.0000      -0.467566       -12.7231 
  27   2.0000      -0.439609       -11.9624 
  28   2.0000      -0.418650       -11.3921 
  29   2.0000      -0.414692       -11.2843 
  30   2.0000      -0.405015       -11.0210 
  31   2.0000      -0.350225        -9.5301 
  32   2.0000      -0.343618        -9.3503 
  33   2.0000      -0.333929        -9.0867 
  34   2.0000      -0.319885        -8.7045 
  35   2.0000      -0.298488        -8.1223 
  36   0.0000      -0.498072       -13.5532 
  37   0.0000      -0.121607        -3.3091 
  38   0.0000      -0.069817        -1.8998 
  39   0.0000      -0.035957        -0.9784 
  40   0.0000       0.020084         0.5465 
  41   0.0000       0.036619         0.9964 
  42   0.0000       0.057978         1.5776 
  43   0.0000       0.073685         2.0051 
  44   0.0000       0.083565         2.2739 
  45   0.0000       0.096600         2.6286 
  46   0.0000       0.120302         3.2736 
  47   0.0000       0.123749         3.3674 
  48   0.0000       0.136110         3.7037 
  49   0.0000       0.182904         4.9771 
  50   0.0000       0.183635         4.9970 
  51   0.0000       0.223047         6.0694 
  52   0.0000       0.236070         6.4238 
  53   0.0000       0.241122         6.5613 
  54   0.0000       0.253615         6.9012 
  55   0.0000       0.271991         7.4013 
  56   0.0000       0.296503         8.0683 
  57   0.0000       0.330757         9.0004 
  58   0.0000       0.348153         9.4737 
  59   0.0000       0.358967         9.7680 
  60   0.0000       0.383466        10.4346 
  61   0.0000       0.390423        10.6239 
  62   0.0000       0.399200        10.8628 
  63   0.0000       0.424276        11.5451 
  64   0.0000       0.429280        11.6813 
  65   0.0000       0.441826        12.0227 
  66   0.0000       0.456951        12.4343 
  67   0.0000       0.481140        13.0925 
  68   0.0000       0.519101        14.1254 
  69   0.0000       0.530721        14.4416 
  70   0.0000       0.548811        14.9339 
  71   0.0000       0.558468        15.1967 
  72   0.0000       0.582183        15.8420 
  73   0.0000       0.587872        15.9968 
  74   0.0000       0.591061        16.0836 
  75   0.0000       0.599427        16.3112 
  76   0.0000       0.616644        16.7797 
  77   0.0000       0.627071        17.0635 
  78   0.0000       0.632066        17.1994 
  79   0.0000       0.636022        17.3071 
  80   0.0000       0.651303        17.7229 
  81   0.0000       0.673281        18.3209 
  82   0.0000       0.677246        18.4288 
  83   0.0000       0.689581        18.7644 
  84   0.0000       0.710915        19.3450 
  85   0.0000       0.729268        19.8444 
  86   0.0000       0.742126        20.1943 
  87   0.0000       0.773655        21.0522 
  88   0.0000       0.797013        21.6878 
  89   0.0000       0.836376        22.7590 
  90   0.0000       0.870070        23.6758 
  91   0.0000       0.891253        24.2522 
  92   0.0000       0.923557        25.1313 
  93   0.0000       0.940684        25.5973 
  94   0.0000       0.972479        26.4625 
  95   0.0000       0.979809        26.6620 
  96   0.0000       1.019948        27.7542 
  97   0.0000       1.041697        28.3460 
  98   0.0000       1.049676        28.5631 
  99   0.0000       1.049677        28.5632 
 100   0.0000       1.049684        28.5633 
 101   0.0000       1.088907        29.6307 
 102   0.0000       1.136651        30.9298 
 103   0.0000       1.147224        31.2176 
 104   0.0000       1.173660        31.9369 
 105   0.0000       1.184455        32.2307 
 106   0.0000       1.212640        32.9976 
 107   0.0000       1.221024        33.2257 
 108   0.0000       1.231717        33.5167 
 109   0.0000       1.264419        34.4066 
 110   0.0000       1.288291        35.0562 
 111   0.0000       1.329871        36.1876 
 112   0.0000       1.356420        36.9101 
 113   0.0000       1.441995        39.2387 
 114   0.0000       1.450183        39.4615 
 115   0.0000       1.454811        39.5874 
 116   0.0000       1.494688        40.6725 
 117   0.0000       1.498905        40.7873 
 118   0.0000       1.630335        44.3637 
 119   0.0000       1.636904        44.5424 
 120   0.0000       1.644973        44.7620 
 121   0.0000       1.666929        45.3594 
 122   0.0000       1.692004        46.0418 
 123   0.0000       1.702068        46.3156 
 124   0.0000       1.706112        46.4257 
 125   0.0000       1.722809        46.8800 
 126   0.0000       1.730444        47.0878 
 127   0.0000       1.750825        47.6424 
 128   0.0000       1.757940        47.8360 
 129   0.0000       1.764387        48.0114 
 130   0.0000       1.774928        48.2982 
 131   0.0000       1.840689        50.0877 
 132   0.0000       1.866380        50.7868 
 133   0.0000       1.914185        52.0876 
 134   0.0000       1.923544        52.3423 
 135   0.0000       1.977702        53.8160 
 136   0.0000       1.989656        54.1413 
 137   0.0000       1.994514        54.2735 
 138   0.0000       2.029274        55.2194 
 139   0.0000       2.056817        55.9688 
 140   0.0000       2.077700        56.5371 
 141   0.0000       2.092119        56.9295 
 142   0.0000       2.126412        57.8626 
 143   0.0000       2.185747        59.4772 
 144   0.0000       2.225282        60.5530 
 145   0.0000       2.232678        60.7543 
 146   0.0000       2.260224        61.5038 
 147   0.0000       2.270573        61.7854 
 148   0.0000       2.300143        62.5901 
 149   0.0000       2.323444        63.2241 
 150   0.0000       2.351682        63.9925 
 151   0.0000       2.409016        65.5527 
 152   0.0000       2.417857        65.7932 
 153   0.0000       2.441665        66.4411 
 154   0.0000       2.527276        68.7707 
 155   0.0000       2.531824        68.8944 
 156   0.0000       2.555400        69.5360 
 157   0.0000       2.572923        70.0128 
 158   0.0000       2.595651        70.6313 
 159   0.0000       2.615612        71.1744 
 160   0.0000       2.625128        71.4334 
 161   0.0000       2.648284        72.0635 
 162   0.0000       2.686242        73.0964 
 163   0.0000       2.691241        73.2324 
 164   0.0000       2.718616        73.9773 
 165   0.0000       2.727460        74.2180 
 166   0.0000       2.818629        76.6988 
 167   0.0000       2.844186        77.3942 
 168   0.0000       2.891015        78.6685 
 169   0.0000       2.908645        79.1483 
 170   0.0000       2.978511        81.0494 
 171   0.0000       3.006081        81.7996 
 172   0.0000       3.036879        82.6377 
 173   0.0000       3.115149        84.7675 
 174   0.0000       3.263339        88.8000 
 175   0.0000       3.274472        89.1029 
 176   0.0000       3.344675        91.0132 
 177   0.0000       3.547102        96.5215 
 178   0.0000       3.721196       101.2589 
 179   0.0000       3.749817       102.0377 

                    ********************************
                    * MULLIKEN POPULATION ANALYSIS *
                    ********************************

-----------------------
MULLIKEN ATOMIC CHARGES
-----------------------
   0 C :   -0.071710
   1 C :   -0.053571
   2 C :    0.190333
   3 C :   -0.008242
   4 C :    0.030837
   5 C :    0.036200
   6 C :    0.092614
   7 H :    0.002812
   8 H :   -0.016982
   9 H :    0.010847
  10 H :    0.023047
  11 H :    0.034458
  12 H :   -0.018569
  13 H :   -0.003444
  14 N :    0.230939
  15 O :   -0.238114
  16 O :   -0.241456
  17 H :    1.000000
Sum of atomic charges:    1.0000000

--------------------------------
MULLIKEN REDUCED ORBITAL CHARGES
--------------------------------
  0 C s       :     3.103150  s :     3.103150
      pz      :     0.979146  p :     2.925923
      px      :     0.955858
      py      :     0.990919
      dz2     :     0.005774  d :     0.042637
      dxz     :     0.008010
      dyz     :     0.006073
      dx2y2   :     0.010963
      dxy     :     0.011818
  1 C s       :     3.326691  s :     3.326691
      pz      :     0.954231  p :     2.693552
      px      :     0.777149
      py      :     0.962173
      dz2     :     0.004952  d :     0.033328
      dxz     :     0.004914
      dyz     :     0.005883
      dx2y2   :     0.010189
      dxy     :     0.007389
  2 C s       :     3.003292  s :     3.003292
      pz      :     1.017635  p :     2.757413
      px      :     0.845784
      py      :     0.893994
      dz2     :     0.007634  d :     0.048962
      dxz     :     0.008034
      dyz     :     0.005836
      dx2y2   :     0.010244
      dxy     :     0.017214
  3 C s       :     3.261122  s :     3.261122
      pz      :     0.918528  p :     2.713852
      px      :     0.962585
      py      :     0.832740
      dz2     :     0.003323  d :     0.033268
      dxz     :     0.007442
      dyz     :     0.004123
      dx2y2   :     0.009872
      dxy     :     0.008508
  4 C s       :     3.165893  s :     3.165893
      pz      :     0.952412  p :     2.768030
      px      :     0.871220
      py      :     0.944398
      dz2     :     0.004752  d :     0.035239
      dxz     :     0.005907
      dyz     :     0.005450
      dx2y2   :     0.009860
      dxy     :     0.009271
  5 C s       :     3.196674  s :     3.196674
      pz      :     0.950385  p :     2.732630
      px      :     0.886083
      py      :     0.896161
      dz2     :     0.005036  d :     0.034496
      dxz     :     0.006022
      dyz     :     0.004872
      dx2y2   :     0.008402
      dxy     :     0.010164
  6 C s       :     2.914908  s :     2.914908
      pz      :     0.991365  p :     2.963507
      px      :     0.999766
      py      :     0.972376
      dz2     :     0.004737  d :     0.028971
      dxz     :     0.005782
      dyz     :     0.007176
      dx2y2   :     0.005029
      dxy     :     0.006247
  7 H s       :     0.973251  s :     0.973251
      pz      :     0.007579  p :     0.023936
      px      :     0.003473
      py      :     0.012885
  8 H s       :     0.993224  s :     0.993224
      pz      :     0.005283  p :     0.023758
      px      :     0.014053
      py      :     0.004421
  9 H s       :     0.965548  s :     0.965548
      pz      :     0.005450  p :     0.023605
      px      :     0.012093
      py      :     0.006062
 10 H s       :     0.953006  s :     0.953006
      pz      :     0.011854  p :     0.023947
      px      :     0.007436
      py      :     0.004657
 11 H s       :     0.941334  s :     0.941334
      pz      :     0.007189  p :     0.024208
      px      :     0.007708
      py      :     0.009311
 12 H s       :     0.995468  s :     0.995468
      pz      :     0.004820  p :     0.023101
      px      :     0.010879
      py      :     0.007402
 13 H s       :     0.980196  s :     0.980196
      pz      :     0.005537  p :     0.023248
      px      :     0.012983
      py      :     0.004727
 14 N s       :     3.301908  s :     3.301908
      pz      :     1.163874  p :     3.350753
      px      :     1.100055
      py      :     1.086824
      dz2     :     0.010314  d :     0.116401
      dxz     :     0.018183
      dyz     :     0.016708
      dx2y2   :     0.031834
      dxy     :     0.039362
 15 O s       :     3.859133  s :     3.859133
      pz      :     1.378643  p :     4.356675
      px      :     1.805533
      py      :     1.172498
      dz2     :     0.003258  d :     0.022307
      dxz     :     0.000861
      dyz     :     0.007045
      dx2y2   :     0.006601
      dxy     :     0.004542
 16 O s       :     3.854115  s :     3.854115
      pz      :     1.441250  p :     4.364807
      px      :     1.240532
      py      :     1.683025
      dz2     :     0.002841  d :     0.022534
      dxz     :     0.006074
      dyz     :     0.000994
      dx2y2   :     0.006084
      dxy     :     0.006540
 17 H s       :     0.000000  s :     0.000000
      pz      :     0.000000  p :     0.000000
      px      :     0.000000
      py      :     0.000000


                     *******************************
                     * LOEWDIN POPULATION ANALYSIS *
                     *******************************

----------------------
LOEWDIN ATOMIC CHARGES
----------------------
   0 C :   -0.011487
   1 C :   -0.009832
   2 C :   -0.021716
   3 C :   -0.005365
   4 C :   -0.009533
   5 C :   -0.008136
   6 C :   -0.043129
   7 H :    0.037639
   8 H :    0.033612
   9 H :    0.030572
  10 H :    0.035594
  11 H :    0.040329
  12 H :    0.029681
  13 H :    0.034536
  14 N :    0.275147
  15 O :   -0.201950
  16 O :   -0.205962
  17 H :    1.000000

-------------------------------
LOEWDIN REDUCED ORBITAL CHARGES
-------------------------------
  0 C s       :     2.860105  s :     2.860105
      pz      :     0.970070  p :     3.046902
      px      :     1.064970
      py      :     1.011863
      dz2     :     0.011988  d :     0.104480
      dxz     :     0.019025
      dyz     :     0.013643
      dx2y2   :     0.029321
      dxy     :     0.030502
  1 C s       :     2.861893  s :     2.861893
      pz      :     0.988121  p :     3.059255
      px      :     1.047470
      py      :     1.023664
      dz2     :     0.010962  d :     0.088684
      dxz     :     0.012475
      dyz     :     0.015720
      dx2y2   :     0.027331
      dxy     :     0.022197
  2 C s       :     2.863652  s :     2.863652
      pz      :     1.048679  p :     3.033924
      px      :     0.966625
      py      :     1.018620
      dz2     :     0.016916  d :     0.124140
      dxz     :     0.019393
      dyz     :     0.015314
      dx2y2   :     0.028331
      dxy     :     0.044186
  3 C s       :     2.865424  s :     2.865424
      pz      :     0.980728  p :     3.053314
      px      :     1.047284
      py      :     1.025301
      dz2     :     0.007614  d :     0.086628
      dxz     :     0.018345
      dyz     :     0.009465
      dx2y2   :     0.027361
      dxy     :     0.023842
  4 C s       :     2.857464  s :     2.857464
      pz      :     0.986841  p :     3.060618
      px      :     1.039800
      py      :     1.033978
      dz2     :     0.010585  d :     0.091451
      dxz     :     0.014305
      dyz     :     0.014706
      dx2y2   :     0.026096
      dxy     :     0.025759
  5 C s       :     2.861629  s :     2.861629
      pz      :     0.988289  p :     3.056143
      px      :     1.038976
      py      :     1.028878
      dz2     :     0.011049  d :     0.090363
      dxz     :     0.015370
      dyz     :     0.013170
      dx2y2   :     0.023115
      dxy     :     0.027659
  6 C s       :     2.823664  s :     2.823664
      pz      :     1.050387  p :     3.144369
      px      :     1.064089
      py      :     1.029893
      dz2     :     0.011599  d :     0.075096
      dxz     :     0.014871
      dyz     :     0.019180
      dx2y2   :     0.013315
      dxy     :     0.016130
  7 H s       :     0.888811  s :     0.888811
      pz      :     0.023206  p :     0.073550
      px      :     0.012332
      py      :     0.038012
  8 H s       :     0.893610  s :     0.893610
      pz      :     0.016476  p :     0.072778
      px      :     0.041819
      py      :     0.014484
  9 H s       :     0.904008  s :     0.904008
      pz      :     0.014297  p :     0.065420
      px      :     0.033901
      py      :     0.017221
 10 H s       :     0.899228  s :     0.899228
      pz      :     0.032481  p :     0.065178
      px      :     0.019564
      py      :     0.013133
 11 H s       :     0.893991  s :     0.893991
      pz      :     0.019623  p :     0.065680
      px      :     0.020093
      py      :     0.025964
 12 H s       :     0.901743  s :     0.901743
      pz      :     0.014825  p :     0.068575
      px      :     0.031818
      py      :     0.021932
 13 H s       :     0.897140  s :     0.897140
      pz      :     0.016650  p :     0.068324
      px      :     0.037068
      py      :     0.014605
 14 N s       :     3.052029  s :     3.052029
      pz      :     1.123303  p :     3.428155
      px      :     1.159794
      py      :     1.145058
      dz2     :     0.020464  d :     0.244669
      dxz     :     0.034637
      dyz     :     0.032760
      dx2y2   :     0.069793
      dxy     :     0.087013
 15 O s       :     3.619680  s :     3.619680
      pz      :     1.407613  p :     4.539445
      px      :     1.806375
      py      :     1.325457
      dz2     :     0.005608  d :     0.042825
      dxz     :     0.001463
      dyz     :     0.013153
      dx2y2   :     0.014855
      dxy     :     0.007747
 16 O s       :     3.615251  s :     3.615251
      pz      :     1.455176  p :     4.547343
      px      :     1.388742
      py      :     1.703426
      dz2     :     0.006240  d :     0.043367
      dxz     :     0.009328
      dyz     :     0.001700
      dx2y2   :     0.013218
      dxy     :     0.012882
 17 H s       :     0.000000  s :     0.000000
      pz      :     0.000000  p :     0.000000
      px      :     0.000000
      py      :     0.000000


                      *****************************
                      * MAYER POPULATION ANALYSIS *
                      *****************************

  NA   - Mulliken gross atomic population
  ZA   - Total nuclear charge
  QA   - Mulliken gross atomic charge
  VA   - Mayer's total valence
  BVA  - Mayer's bonded valence
  FA   - Mayer's free valence

  ATOM       NA         ZA         QA         VA         BVA        FA
  0 C      6.0717     6.0000    -0.0717     3.9751     3.9751     0.0000
  1 C      6.0536     6.0000    -0.0536     3.8274     3.8274     0.0000
  2 C      5.8097     6.0000     0.1903     3.7848     3.7848    -0.0000
  3 C      6.0082     6.0000    -0.0082     3.8416     3.8416    -0.0000
  4 C      5.9692     6.0000     0.0308     3.8087     3.8087    -0.0000
  5 C      5.9638     6.0000     0.0362     3.8235     3.8235     0.0000
  6 C      5.9074     6.0000     0.0926     3.9111     3.9111    -0.0000
  7 H      0.9972     1.0000     0.0028     1.0161     1.0161     0.0000
  8 H      1.0170     1.0000    -0.0170     1.0237     1.0237     0.0000
  9 H      0.9892     1.0000     0.0108     0.9984     0.9984    -0.0000
 10 H      0.9770     1.0000     0.0230     0.9903     0.9903     0.0000
 11 H      0.9655     1.0000     0.0345     0.9896     0.9896    -0.0000
 12 H      1.0186     1.0000    -0.0186     0.9874     0.9874     0.0000
 13 H      1.0034     1.0000    -0.0034     0.9806     0.9806    -0.0000
 14 N      6.7691     7.0000     0.2309     3.9719     3.9719    -0.0000
 15 O      8.2381     8.0000    -0.2381     1.9639     1.9639     0.0000
 16 O      8.2415     8.0000    -0.2415     1.9610     1.9610     0.0000
 17 H      0.0000     1.0000     1.0000     0.0000     0.0000     0.0000

  Mayer bond orders larger than 0.100000
B(  0-C ,  1-C ) :   1.3274 B(  0-C ,  5-C ) :   1.3921 B(  0-C ,  6-C ) :   1.0716 
B(  1-C ,  2-C ) :   1.3811 B(  1-C ,  8-H ) :   0.9927 B(  2-C ,  3-C ) :   1.3760 
B(  2-C , 14-N ) :   0.8463 B(  3-C ,  4-C ) :   1.3541 B(  3-C ,  7-H ) :   0.9843 
B(  4-C ,  5-C ) :   1.3669 B(  4-C , 13-H ) :   0.9842 B(  5-C , 12-H ) :   0.9872 
B(  6-C ,  9-H ) :   0.9567 B(  6-C , 10-H ) :   0.9519 B(  6-C , 11-H ) :   0.9494 
B( 14-N , 15-O ) :   1.5522 B( 14-N , 16-O ) :   1.5502 B( 15-O , 16-O ) :   0.2819 


-------
TIMINGS
-------

Total SCF time: 0 days 0 hours 3 min 36 sec 

Total time                  ....     216.478 sec
Sum of individual times     ....     215.583 sec  ( 99.6%)

Fock matrix formation       ....     204.295 sec  ( 94.4%)
  Split-RI-J                ....      18.308 sec  (  9.0% of F)
  Chain of spheres X        ....     148.945 sec  ( 72.9% of F)
  XC integration            ....      36.673 sec  ( 18.0% of F)
    Basis function eval.    ....      13.764 sec  ( 37.5% of XC)
    Density eval.           ....      10.954 sec  ( 29.9% of XC)
    XC-Functional eval.     ....       2.724 sec  (  7.4% of XC)
    XC-Potential eval.      ....       7.372 sec  ( 20.1% of XC)
Diagonalization             ....       0.214 sec  (  0.1%)
Density matrix formation    ....       0.033 sec  (  0.0%)
Population analysis         ....       0.090 sec  (  0.0%)
Initial guess               ....       2.887 sec  (  1.3%)
Orbital Transformation      ....       0.000 sec  (  0.0%)
Orbital Orthonormalization  ....       0.000 sec  (  0.0%)
DIIS solution               ....       0.474 sec  (  0.2%)
SOSCF solution              ....       0.141 sec  (  0.1%)
Grid generation             ....       7.449 sec  (  3.4%)

Maximum memory used throughout the entire SCF-calculation: 74.9 MB


-------------------------------------------------------------------------------
                          DFT DISPERSION CORRECTION                            
                                                                               
                                 DFTD4 V2.5                                    
-------------------------------------------------------------------------------
The B3LYP functional is recognized
Active option DFTDOPT                   ...         5   

Starting D4
-------------------------   ----------------
Dispersion correction           -0.026520364
-------------------------   ----------------


-------------------------   --------------------
FINAL SINGLE POINT ENERGY      -475.479469542092
-------------------------   --------------------

------------------------------------------------------------------------------
                         ORCA SCF GRADIENT CALCULATION
------------------------------------------------------------------------------

 ... reading COSX grid (gridx3)
Gradient of the Kohn-Sham DFT energy:
Kohn-Sham wavefunction type      ... RKS
Hartree-Fock exchange scaling    ...    0.200
Number of operators              ...    1
Number of atoms                  ...   18
Basis set dimensions             ...  180
Integral neglect threshold       ... 2.5e-11
Integral primitive cutoff        ... 2.5e-12
SHARK Integral package           ... ON

Nuc. rep. gradient       (SHARK) ... done (  0.0 sec)
HCore & Overlap gradient (SHARK) ... done (  0.4 sec)
RI-J gradient            (SHARK) ... done (  2.3 sec)
COSX-gradient                    ... done ( 25.5 sec)
Exchange-correlation gradient    ... done
Dispersion correction            ... Starting D4


------------------- 
Dispersion Gradient 
------------------- 
   1  :    0.000110804    0.000406499    0.000235658
   2  :   -0.000248327    0.000180237    0.000140887
   3  :   -0.000238404   -0.000288852   -0.000147503
   4  :    0.000342217   -0.000295111   -0.000255664
   5  :    0.000604165   -0.000132870   -0.000197305
   6  :    0.000481003    0.000117691   -0.000004268
   7  :   -0.000053870    0.000549740    0.000353652
   8  :    0.000071593   -0.000161696   -0.000114837
   9  :   -0.000215240    0.000058615    0.000071127
  10  :    0.000014171    0.000132206    0.000087570
  11  :   -0.000027798    0.000117628    0.000126531
  12  :   -0.000034062    0.000166502    0.000052952
  13  :    0.000191987    0.000070126    0.000015319
  14  :    0.000167471   -0.000048653   -0.000059902
  15  :   -0.000460369   -0.000344541   -0.000125110
  16  :   -0.000223846   -0.000411740   -0.000148189
  17  :   -0.000482358   -0.000116069   -0.000030354
  18  :    0.000000863    0.000000289   -0.000000563

  |G| =    0.001558579

done

------------------
CARTESIAN GRADIENT
------------------

   1   C   :    0.003622795    0.020297210    0.011710970
   2   C   :   -0.019339748   -0.022725204   -0.010306698
   3   C   :   -0.008186251    0.016635296    0.009671446
   4   C   :   -0.004831578   -0.008868459   -0.004791390
   5   C   :    0.015825078    0.017208229    0.007900403
   6   C   :    0.018616537   -0.013389741   -0.010026856
   7   C   :   -0.000171477   -0.006584817   -0.005190565
   8   H   :    0.000213211    0.005208838    0.003044605
   9   H   :    0.005468523   -0.000570982   -0.000993573
  10   H   :   -0.005218312   -0.002687763   -0.001752407
  11   H   :    0.002371942    0.000877599   -0.003752270
  12   H   :    0.003142593   -0.003814725    0.002982088
  13   H   :   -0.005434342   -0.003613869   -0.001435606
  14   H   :   -0.005727005    0.001485164    0.001981294
  15   N   :   -0.014133030   -0.000707585   -0.000036216
  16   O   :    0.007457337   -0.000265938    0.000817031
  17   O   :    0.006420651    0.001482913    0.000062368
  18   H   :   -0.000024025    0.000049805    0.000112517

Difference to translation invariance:
           :    0.0000729004    0.0000159711   -0.0000028591

Difference to rotation invariance:
           :   -0.0000444767    0.0005526754   -0.0004707166

Norm of the cartesian gradient     ...    0.0630038366
RMS gradient                       ...    0.0085737362
MAX gradient                       ...    0.0227252037

-------
TIMINGS
-------

Total SCF gradient time            ...       40.979 sec

One electron gradient       ....       0.446 sec  (  1.1%)
RI-J Coulomb gradient       ....       2.348 sec  (  5.7%)
COSX gradient               ....      25.459 sec  ( 62.1%)
XC gradient                 ....      11.641 sec  ( 28.4%)

Maximum memory used throughout the entire SCFGRAD-calculation: 60.2 MB
------------------------------------------------------------------------------
                         ORCA GEOMETRY RELAXATION STEP
------------------------------------------------------------------------------

Reading the OPT-File                    .... done
Getting information on internals        .... done
Copying old internal coords+grads       .... done
Making the new internal coordinates     .... (new redundants).... done
Validating the new internal coordinates .... (new redundants).... done
Calculating the B-matrix                .... done
Calculating the G,G- and P matrices     .... done
Transforming gradient to internals      .... done
Projecting the internal gradient        .... done
Number of atoms                         ....  18
Number of internal coordinates          .... 116
Current Energy                          ....  -475.479469542 Eh
Current gradient norm                   ....     0.063003837 Eh/bohr
Maximum allowed component of the step   ....  0.300
Current trust radius                    ....  0.300
Evaluating the initial hessian          ....  (Almloef) done
Projecting the Hessian                  .... done
Forming the augmented Hessian           .... done
Diagonalizing the augmented Hessian     .... done
Last element of RFO vector              ....  0.989739991
Lowest eigenvalues of augmented Hessian:
 -0.003962908  0.000016640  0.008287485  0.015097590  0.018140910
Length of the computed step             ....  0.144361345
The final length of the internal step   ....  0.144361345
Converting the step to cartesian space:
 Initial RMS(Int)=    0.0134036144
Transforming coordinates:
 Iter   0:  RMS(Cart)=    0.0248146381 RMS(Int)=    1.1654718649
 Iter   1:  RMS(Cart)=    0.0003320358 RMS(Int)=    0.0002076276
 Iter   2:  RMS(Cart)=    0.0000109031 RMS(Int)=    0.0000075016
 Iter   3:  RMS(Cart)=    0.0000004366 RMS(Int)=    0.0000003145
 Iter   4:  RMS(Cart)=    0.0000000175 RMS(Int)=    0.0000000129
done
Storing new coordinates                 .... done

                                .--------------------.
          ----------------------|Geometry convergence|-------------------------
          Item                value                   Tolerance       Converged
          ---------------------------------------------------------------------
          RMS gradient        0.0040236438            0.0000300000      NO
          MAX gradient        0.0192886440            0.0001000000      NO
          RMS step            0.0134036144            0.0006000000      NO
          MAX step            0.0444176357            0.0010000000      NO
          ........................................................
          Max(Bonds)      0.0169      Max(Angles)    1.01
          Max(Dihed)        2.54      Max(Improp)    0.00
          ---------------------------------------------------------------------

The optimization has not yet converged - more geometry cycles are needed


    ---------------------------------------------------------------------------
                         Redundant Internal Coordinates
                            (Angstroem and degrees)

        Definition                    Value    dE/dq     Step     New-Value
    ----------------------------------------------------------------------------
     1. B(C   1,C   0)                1.4244  0.015229 -0.0154    1.4089   
     2. B(C   2,C   1)                1.3707 -0.019289  0.0151    1.3858   
     3. B(C   3,C   2)                1.4022  0.006725 -0.0061    1.3962   
     4. B(C   4,C   3)                1.4069  0.011770 -0.0102    1.3966   
     5. B(C   5,C   4)                1.3798 -0.017500  0.0146    1.3944   
     6. B(C   5,C   0)                1.4175  0.011681 -0.0107    1.4068   
     7. B(C   6,C   0)                1.4837 -0.013769  0.0169    1.5007   
     8. B(H   7,C   3)                1.0807 -0.005993  0.0084    1.0891   
     9. B(H   8,C   1)                1.0825 -0.005418  0.0076    1.0901   
    10. B(H   9,C   6)                1.0911 -0.006122  0.0089    1.1000   
    11. B(H  10,C   6)                1.0957 -0.004053  0.0067    1.1025   
    12. B(H  11,C   6)                1.0950 -0.005765  0.0085    1.1035   
    13. B(H  12,C   5)                1.0838 -0.006682  0.0095    1.0933   
    14. B(H  13,C   4)                1.0834 -0.006234  0.0088    1.0923   
    15. B(N  14,C   2)                1.4832 -0.000887  0.0003    1.4835   
    16. B(O  15,N  14)                1.2210  0.001458 -0.0008    1.2202   
    17. B(O  16,N  14)                1.2158 -0.004372  0.0029    1.2187   
    18. B(H  17,O  16)               12.7125  0.001300 -0.0090   12.7036   
    19. B(H  17,N  14)               13.6073 -0.001787 -0.0043   13.6031   
    20. B(H  17,H  10)               13.5967  0.000711  0.0025   13.5993   
    21. B(H  17,H   8)               13.0200 -0.000157  0.0008   13.0209   
    22. A(C   1,C   0,C   6)          119.46 -0.003090    0.45    119.91   
    23. A(C   1,C   0,C   5)          118.74  0.002893   -0.50    118.24   
    24. A(C   5,C   0,C   6)          121.80  0.000198    0.05    121.85   
    25. A(C   0,C   1,H   8)          120.46 -0.000112    0.02    120.48   
    26. A(C   0,C   1,C   2)          118.97 -0.002956    0.48    119.45   
    27. A(C   2,C   1,H   8)          120.57  0.003067   -0.50    120.07   
[...]
  3   -475.45956358   0.0000022417  0.000466  0.000650  0.000526  0.000019
  4   -475.45956769  -0.0000041129  0.000046  0.000198  0.000178  0.000005
  5   -475.45956760   0.0000000916  0.000138  0.000184  0.000150  0.000003
  6   -475.45956773  -0.0000001254  0.000031  0.000086  0.000096  0.000003
  7   -475.45956771   0.0000000163  0.000033  0.000086  0.000063  0.000002
  8   -475.45956774  -0.0000000323  0.000015  0.000384  0.000144  0.000002
  9   -475.45956778  -0.0000000396  0.000039  0.000445  0.000167  0.000003
 10   -475.45956772   0.0000000626  0.000028  0.012741  0.004796  0.000095
 11   -475.45955925   0.0000084651  0.001164  0.015507  0.005818  0.000112
 12   -475.45956769  -0.0000084331  0.000187  0.001996  0.000749  0.000014
 13   -475.45956777  -0.0000000819  0.000034  0.000595  0.000212  0.000004
 14   -475.45956773   0.0000000397  0.000008  0.000064  0.000024  0.000001
 15   -475.45956774  -0.0000000067  0.000016  0.000049  0.000021  0.000001
 16   -475.45956774  -0.0000000031  0.000007  0.000271  0.000095  0.000002
 17   -475.45956775  -0.0000000121  0.000024  0.000353  0.000122  0.000002
 18   -475.45956774   0.0000000147  0.000008  0.000062  0.000033  0.000001
 19   -475.45956774   0.0000000004  0.000017  0.000048  0.000023  0.000001
                  ***Gradient check signals convergence***
              ***Rediagonalizing the Fockian in SOSCF/NRSCF***

               *****************************************************
               *                     SUCCESS                       *
               *           SCF CONVERGED AFTER  20 CYCLES          *
               *****************************************************

Old exchange energy                            =    -12.324756987 Eh
New exchange energy                            =    -12.324770335 Eh
Exchange energy change after final integration =     -0.000013349 Eh
Total energy after final integration           =   -475.459581085 Eh
Final COS-X integration done in                =    31.151 sec
Total Energy       :         -475.45958109 Eh          -12937.91295 eV
  Last Energy change         ...   -1.2174e-09  Tolerance :   1.0000e-08
  Last MAX-Density change    ...    4.8850e-15  Tolerance :   1.0000e-07
             **** THE GBW FILE WAS UPDATED (meta_productds_7.gbw) ****
             **** DENSITY meta_productds_7.scfp WAS UPDATED ****
             **** ENERGY FILE WAS UPDATED (meta_productds_7.en.tmp) ****
             **** THE GBW FILE WAS UPDATED (meta_productds_7.gbw) ****
             **** DENSITY meta_productds_7.scfp WAS UPDATED ****
Total SCF time: 0 days 0 hours 5 min 30 sec 

Maximum memory used throughout the entire SCF-calculation: 74.6 MB


-------------------------------------------------------------------------------
                          DFT DISPERSION CORRECTION                            
                                                                               
                                 DFTD4 V2.5                                    
-------------------------------------------------------------------------------
Starting D4
-------------------------   ----------------
Dispersion correction           -0.026463070
-------------------------   ----------------


-------------------------   --------------------
FINAL SINGLE POINT ENERGY      -475.486044154624
-------------------------   --------------------

------------------------------------------------------------------------------
                         ORCA SCF GRADIENT CALCULATION
------------------------------------------------------------------------------

 ... reading COSX grid (gridx3)
Gradient of the Kohn-Sham DFT energy:
Kohn-Sham wavefunction type      ... RKS
Hartree-Fock exchange scaling    ...    0.200
Number of operators              ...    1
Number of atoms                  ...   18
Basis set dimensions             ...  180
Integral neglect threshold       ... 2.5e-11
Integral primitive cutoff        ... 2.5e-12
SHARK Integral package           ... ON

Nuc. rep. gradient       (SHARK) ... done (  0.0 sec)
HCore & Overlap gradient (SHARK) ... done (  1.1 sec)
RI-J gradient            (SHARK) ... done (  4.5 sec)
COSX-gradient                    ... done ( 40.1 sec)
Exchange-correlation gradient    ... done
Dispersion correction            ... Starting D4


------------------- 
Dispersion Gradient 
------------------- 
   1  :    0.000259808    0.000414574   -0.000017720
   2  :   -0.000098836    0.000264553    0.000165917
   3  :   -0.000289003   -0.000239442    0.000103374
   4  :    0.000127274   -0.000443982   -0.000247383
   5  :    0.000384817   -0.000341172   -0.000381514
   6  :    0.000401276   -0.000020392   -0.000272010
   7  :    0.000194992    0.000609067    0.000094032
   8  :   -0.000015961   -0.000198418   -0.000062377
   9  :   -0.000137289    0.000127508    0.000139316
  10  :    0.000068416    0.000140611    0.000012726
  11  :    0.000056273    0.000149129    0.000065886
  12  :    0.000016366    0.000174573   -0.000003638
  13  :    0.000173120    0.000016836   -0.000107826
  14  :    0.000103649   -0.000107532   -0.000108625
  15  :   -0.000493776   -0.000222355    0.000243859
  16  :   -0.000337064   -0.000339279    0.000100191
  17  :   -0.000414792    0.000015335    0.000276117
  18  :    0.000000732    0.000000387   -0.000000324

  |G| =    0.001333463

done

------------------
CARTESIAN GRADIENT
------------------

   1   C   :   -0.000289198    0.000064911    0.000241562
   2   C   :   -0.000106457    0.000698179    0.000132102
   3   C   :    0.000008325    0.000148668    0.000230776
   4   C   :   -0.000434877    0.000223338    0.000780234
   5   C   :    0.000915035    0.000149341   -0.000910157
   6   C   :    0.000653781    0.000505240   -0.000456520
   7   C   :   -0.000279387   -0.000199147    0.000294800
   8   H   :   -0.000295959   -0.000777173   -0.000066261
   9   H   :    0.000399417   -0.000574338   -0.000346582
  10   H   :    0.000421130   -0.000123701   -0.000237788
  11   H   :    0.000083345    0.000009137    0.000024265
  12   H   :   -0.000111607    0.000019066   -0.000125409
  13   H   :   -0.000489214   -0.000382265    0.000359715
  14   H   :   -0.000285688    0.000385902    0.000408583
  15   N   :    0.000976234   -0.000095236   -0.001101824
  16   O   :   -0.000145046   -0.000120101    0.000180704
  17   O   :   -0.000545409    0.000290447    0.000444729
  18   H   :   -0.000437871   -0.000201795    0.000183605

Difference to translation invariance:
           :    0.0000365531    0.0000204743    0.0000365342

Difference to rotation invariance:
           :   -0.0001135595   -0.0005043314   -0.0010258184

Norm of the cartesian gradient     ...    0.0031563491
RMS gradient                       ...    0.0004295247
MAX gradient                       ...    0.0011018238

-------
TIMINGS
-------

Total SCF gradient time            ...       61.581 sec

One electron gradient       ....       1.112 sec  (  1.8%)
RI-J Coulomb gradient       ....       4.518 sec  (  7.3%)
COSX gradient               ....      40.088 sec  ( 65.1%)
XC gradient                 ....      13.709 sec  ( 22.3%)

Maximum memory used throughout the entire SCFGRAD-calculation: 60.1 MB
------------------------------------------------------------------------------
                         ORCA GEOMETRY RELAXATION STEP
------------------------------------------------------------------------------

Reading the OPT-File                    .... done
Getting information on internals        .... done
Copying old internal coords+grads       .... done
Making the new internal coordinates     .... (new redundants).... done
Validating the new internal coordinates .... (new redundants).... done
Calculating the B-matrix                .... done
Calculating the G,G- and P matrices     .... done
Transforming gradient to internals      .... done
Projecting the internal gradient        .... done
Number of atoms                         ....  18
Number of internal coordinates          .... 100
Current Energy                          ....  -475.486044155 Eh
Current gradient norm                   ....     0.003156349 Eh/bohr
Maximum allowed component of the step   ....  0.300
Current trust radius                    ....  0.300
Updating the Hessian (BFGS)             .... done
Forming the augmented Hessian           .... done
Diagonalizing the augmented Hessian     .... done
Last element of RFO vector              ....  0.728926748
Lowest eigenvalues of augmented Hessian:
 -0.000287270  0.000064789  0.000289364  0.006242303  0.014619433
Length of the computed step             ....  0.939177637
Warning: the length of the step is outside the trust region - taking restricted step instead
The input lambda is                     ....    -0.000287
   iter:   1  x=   -0.000424  g= 5774.785626 f(x)=     0.792055
   iter:   2  x=   -0.000599  g= 1897.043221 f(x)=     0.330305
   iter:   3  x=   -0.000779  g=  701.492838 f(x)=     0.126692
   iter:   4  x=   -0.000902  g=  324.790013 f(x)=     0.039777
   iter:   5  x=   -0.000937  g=  211.626614 f(x)=     0.007587
   iter:   6  x=   -0.000940  g=  188.706896 f(x)=     0.000421
   iter:   7  x=   -0.000940  g=  187.391338 f(x)=     0.000001
   iter:   8  x=   -0.000940  g=  187.386731 f(x)=     0.000000
   iter:   9  x=   -0.000940  g=  187.386731 f(x)=     0.000000
The output lambda is                    ....    -0.000940 (9 iterations)
The final length of the internal step   ....  0.300000000
Converting the step to cartesian space:
 Initial RMS(Int)=    0.0300000000
Transforming coordinates:
 Iter   0:  RMS(Cart)=    0.0266966680 RMS(Int)=    0.0299561698
 Iter   1:  RMS(Cart)=    0.0001238976 RMS(Int)=    0.0000559838
 Iter   2:  RMS(Cart)=    0.0000007825 RMS(Int)=    0.0000006511
 Iter   3:  RMS(Cart)=    0.0000000129 RMS(Int)=    0.0000000042
done
Storing new coordinates                 .... done

                                .--------------------.
          ----------------------|Geometry convergence|-------------------------
          Item                value                   Tolerance       Converged
          ---------------------------------------------------------------------
          Energy change      -0.0000822486            0.0000010000      NO
          RMS gradient        0.0002347023            0.0000300000      NO
          MAX gradient        0.0008701001            0.0001000000      NO
          RMS step            0.0300000000            0.0006000000      NO
          MAX step            0.1879353237            0.0010000000      NO
          ........................................................
          Max(Bonds)      0.0995      Max(Angles)    0.56
          Max(Dihed)        0.88      Max(Improp)    0.00
          ---------------------------------------------------------------------

The optimization has not yet converged - more geometry cycles are needed


    ---------------------------------------------------------------------------
                         Redundant Internal Coordinates
                            (Angstroem and degrees)

        Definition                    Value    dE/dq     Step     New-Value
    ----------------------------------------------------------------------------
     1. B(C   1,C   0)                1.4014 -0.000048  0.0002    1.4017   
     2. B(C   2,C   1)                1.3936  0.000176 -0.0000    1.3935   
     3. B(C   3,C   2)                1.3956 -0.000107  0.0003    1.3959   
     4. B(C   4,C   3)                1.3943  0.000870 -0.0011    1.3932   
     5. B(C   5,C   4)                1.3990 -0.000113 -0.0000    1.3990   
     6. B(C   5,C   0)                1.4043  0.000013  0.0000    1.4043   
     7. B(C   6,C   0)                1.5074 -0.000259  0.0006    1.5080   
     8. B(H   7,C   3)                1.0903  0.000832 -0.0016    1.0887   
     9. B(H   8,C   1)                1.0893 -0.000759  0.0003    1.0896   
    10. B(H   9,C   6)                1.1002  0.000444 -0.0007    1.0994   
    11. B(H  10,C   6)                1.1019  0.000029 -0.0003    1.1016   
    12. B(H  11,C   6)                1.1032  0.000139 -0.0000    1.1032   
    13. B(H  12,C   5)                1.0923 -0.000695  0.0013    1.0936   
    14. B(H  13,C   4)                1.0915 -0.000625  0.0005    1.0920   
    15. B(N  14,C   2)                1.4754  0.000053  0.0006    1.4761   
    16. B(O  15,N  14)                1.2221  0.000144 -0.0000    1.2221   
    17. B(O  16,N  14)                1.2225  0.000732  0.0002    1.2227   
    18. B(H  17,O  16)                9.1423  0.000041 -0.0812    9.0611   
    19. B(H  17,O  15)                8.9966  0.000037 -0.0995    8.8971   
    20. B(H  17,N  14)                9.5745  0.000438 -0.0912    9.4833   
    21. A(C   1,C   0,C   6)          120.46  0.000370    0.02    120.48   
    22. A(C   5,C   0,C   6)          121.38 -0.000508    0.01    121.39   
    23. A(C   1,C   0,C   5)          118.16  0.000137   -0.03    118.14   
    24. A(C   0,C   1,C   2)          119.64  0.000047   -0.01    119.63   
    25. A(C   2,C   1,H   8)          118.86 -0.000184    0.02    118.88   
    26. A(C   0,C   1,H   8)          121.50  0.000136   -0.01    121.50   
    27. A(C   3,C   2,N  14)          118.71 -0.000475    0.09    118.80   
    28. A(C   1,C   2,N  14)          118.77  0.000486   -0.08    118.70   
    29. A(C   1,C   2,C   3)          122.52 -0.000011   -0.01    122.51   
    30. A(C   2,C   3,C   4)          117.83 -0.000105    0.03    117.87   
    31. A(C   4,C   3,H   7)          122.44  0.000119   -0.07    122.37   
    32. A(C   2,C   3,H   7)          119.72 -0.000013    0.04    119.76   
    33. A(C   3,C   4,H  13)          119.78  0.000063    0.04    119.82   
    34. A(C   5,C   4,H  13)          119.84 -0.000044   -0.02    119.82   
    35. A(C   3,C   4,C   5)          120.38 -0.000020   -0.01    120.36   
    36. A(C   0,C   5,C   4)          121.47 -0.000049    0.03    121.50   
    37. A(C   4,C   5,H  12)          119.31 -0.000088    0.01    119.32   
    38. A(C   0,C   5,H  12)          119.21  0.000136   -0.04    119.18   
    39. A(H   9,C   6,H  10)          108.07  0.000072   -0.00    108.06   
    40. A(C   0,C   6,H  10)          111.27  0.000129   -0.06    111.21   
    41. A(C   0,C   6,H   9)          111.43 -0.000337    0.06    111.49   
    42. A(H  10,C   6,H  11)          107.11  0.000078    0.04    107.15   
    43. A(H   9,C   6,H  11)          107.80  0.000145   -0.07    107.73   
    44. A(C   0,C   6,H  11)          110.98 -0.000067    0.03    111.01   
    45. A(O  16,N  14,H  17)           65.83 -0.000080    0.47     66.31   
    46. A(O  15,N  14,H  17)           58.50 -0.000161   -0.45     58.06   
    47. A(O  15,N  14,O  16)          124.30 -0.000242    0.03    124.33   
    48. A(C   2,N  14,O  16)          117.91  0.000264    0.01    117.93   
    49. A(C   2,N  14,O  15)          117.78 -0.000022   -0.04    117.75   
    50. A(N  14,O  15,H  17)          114.85  0.000165    0.41    115.25   
    51. A(N  14,O  16,H  17)          107.16  0.000046   -0.56    106.60   
    52. A(N  14,H  17,O  15)            6.65 -0.000004    0.04      6.69   
    53. A(O  15,H  17,O  16)           13.66  0.000030    0.13     13.78   
    54. A(N  14,H  17,O  16)            7.01  0.000034    0.08      7.09   
    55. D(H   8,C   1,C   0,C   5)    179.89 -0.000012   -0.02    179.86   
    56. D(C   2,C   1,C   0,C   5)      0.07  0.000085   -0.11     -0.04   
    57. D(C   2,C   1,C   0,C   6)    179.73  0.000091   -0.13    179.59   
    58. D(H   8,C   1,C   0,C   6)     -0.46 -0.000006   -0.04     -0.50   
    59. D(C   3,C   2,C   1,C   0)      0.08 -0.000006   -0.01      0.08   
    60. D(C   3,C   2,C   1,H   8)   -179.74  0.000087   -0.09   -179.83   
    61. D(N  14,C   2,C   1,H   8)      0.33  0.000093   -0.09      0.24   
    62. D(N  14,C   2,C   1,C   0)   -179.85 -0.000001   -0.00   -179.85   
    63. D(H   7,C   3,C   2,N  14)     -0.22 -0.000024    0.12     -0.09   
    64. D(C   4,C   3,C   2,N  14)    179.70 -0.000099    0.13    179.83   
    65. D(H   7,C   3,C   2,C   1)    179.85 -0.000019    0.13    179.98   
    66. D(C   4,C   3,C   2,C   1)     -0.24 -0.000094    0.14     -0.10   
    67. D(C   5,C   4,C   3,H   7)   -179.85  0.000039   -0.14   -179.99   
    68. D(H  13,C   4,C   3,C   2)    179.95  0.000013    0.01    179.97   
    69. D(C   5,C   4,C   3,C   2)      0.23  0.000116   -0.15      0.09   
    70. D(H  13,C   4,C   3,H   7)     -0.13 -0.000065    0.02     -0.11   
    71. D(H  12,C   5,C   4,H  13)     -0.08 -0.000034    0.05     -0.02   
    72. D(C   0,C   5,C   4,C   3)     -0.08 -0.000040    0.03     -0.06   
    73. D(H  12,C   5,C   4,C   3)    179.65 -0.000137    0.21    179.86   
    74. D(H  12,C   5,C   0,C   6)      0.55  0.000027   -0.06      0.49   
    75. D(C   0,C   5,C   4,H  13)   -179.81  0.000063   -0.14   -179.94   
    76. D(H  12,C   5,C   0,C   1)   -179.80  0.000036   -0.08   -179.88   
    77. D(C   4,C   5,C   0,C   6)   -179.72 -0.000071    0.13   -179.60   
    78. D(C   4,C   5,C   0,C   1)     -0.07 -0.000062    0.11      0.04   
    79. D(H  11,C   6,C   0,C   5)    113.37 -0.000062   -0.29    113.08   
    80. D(H  11,C   6,C   0,C   1)    -66.27 -0.000070   -0.27    -66.54   
    81. D(H  10,C   6,C   0,C   5)   -127.45  0.000077   -0.26   -127.72   
    82. D(H  10,C   6,C   0,C   1)     52.90  0.000068   -0.24     52.66   
    83. D(H   9,C   6,C   0,C   5)     -6.77  0.000026   -0.27     -7.04   
    84. D(H   9,C   6,C   0,C   1)    173.59  0.000018   -0.25    173.34   
    85. D(O  15,N  14,C   2,C   1)   -179.34  0.000071   -0.10   -179.44   
    86. D(O  16,N  14,C   2,C   3)   -179.29  0.000000   -0.03   -179.33   
    87. D(O  16,N  14,C   2,C   1)      0.65 -0.000005   -0.04      0.60   
    88. D(O  15,N  14,C   2,C   3)      0.72  0.000077   -0.09      0.63   
    89. D(H  17,O  15,N  14,O  16)      2.23  0.000024    0.39      2.62   
    90. D(H  17,O  15,N  14,C   2)   -177.79 -0.000057    0.46   -177.33   
    91. D(H  17,O  16,N  14,O  15)     -2.08 -0.000020   -0.38     -2.47   
    92. D(H  17,O  16,N  14,C   2)    177.93  0.000061   -0.45    177.48   
    93. D(O  15,H  17,O  16,N  14)      0.99  0.000011    0.18      1.17   
    94. D(O  16,H  17,O  15,N  14)     -1.04 -0.000018   -0.18     -1.23   
    95. D(O  16,H  17,N  14,O  15)    177.98 -0.000029   -0.36    177.62   
    96. D(O  15,H  17,N  14,O  16)   -177.98  0.000029    0.36   -177.62   
    97. D(O  16,H  17,C   2,C   3)    178.75  0.000050   -0.50    178.25   
    98. D(O  16,H  17,C   2,C   1)     -3.06  0.000098   -0.88     -3.94   
    99. D(O  15,H  17,C   2,C   3)      5.04 -0.000046    0.76      5.80   
   100. D(O  15,H  17,C   2,C   1)   -176.78  0.000002    0.39   -176.39   
    ----------------------------------------------------------------------------




    ----------------------------------------------------------------------------
                                   ERROR !!!
       The optimization did not converge but reached the maximum 
       number of optimization cycles.
       As a subsequent Frequencies calculation has been requested
       ORCA will abort at this point of the run.
       Please restart the calculation with the lowest energy geometry and/or
       a larger maxiter for the geometry optimization.
    ----------------------------------------------------------------------------


[file orca_main/run.cpp, line 12331]: ORCA finished with error return - aborting the run
