
                                 *****************
                                 * O   R   C   A *
                                 *****************

                                            #,                                       
                                            ###                                      
                                            ####                                     
                                            #####                                    
                                            ######                                   
                                           ########,                                 
                                     ,,################,,,,,                         
                               ,,#################################,,                 
                          ,,##########################################,,             
                       ,#########################################, ''#####,          
                    ,#############################################,,   '####,        
                  ,##################################################,,,,####,       
                ,###########''''           ''''###############################       
              ,#####''   ,,,,##########,,,,          '''####'''          '####       
            ,##' ,,,,###########################,,,                        '##       
           ' ,,###''''                  '''############,,,                           
         ,,##''                                '''############,,,,        ,,,,,,###''
      ,#''                                            '''#######################'''  
     '                                                          ''''####''''         
             ,#######,   #######,   ,#######,      ##                                
            ,#'     '#,  ##    ##  ,#'     '#,    #''#        ######   ,####,        
            ##       ##  ##   ,#'  ##            #'  '#       #        #'  '#        
            ##       ##  #######   ##           ,######,      #####,   #    #        
            '#,     ,#'  ##    ##  '#,     ,#' ,#      #,         ##   #,  ,#        
             '#######'   ##     ##  '#######'  #'      '#     #####' # '####'        



                  #######################################################
                  #                        -***-                        #
                  #          Department of theory and spectroscopy      #
                  #    Directorship and core code : Frank Neese         #
                  #        Max Planck Institute fuer Kohlenforschung    #
                  #                Kaiser Wilhelm Platz 1               #
                  #                 D-45470 Muelheim/Ruhr               #
                  #                      Germany                        #
                  #                                                     #
                  #                  All rights reserved                #
                  #                        -***-                        #
                  #######################################################



                         Program Version 5.0.4 -  RELEASE  -

 With contributions from (in alphabetic order):
   Daniel Aravena         : Magnetic Suceptibility
   Michael Atanasov       : Ab Initio Ligand Field Theory (pilot matlab implementation)
   Alexander A. Auer      : GIAO ZORA, VPT2 properties, NMR spectrum
   Ute Becker             : Parallelization
   Giovanni Bistoni       : ED, misc. LED, open-shell LED, HFLD
   Martin Brehm           : Molecular dynamics
   Dmytro Bykov           : SCF Hessian
   Vijay G. Chilkuri      : MRCI spin determinant printing, contributions to CSF-ICE
   Dipayan Datta          : RHF DLPNO-CCSD density
   Achintya Kumar Dutta   : EOM-CC, STEOM-CC
   Dmitry Ganyushin       : Spin-Orbit,Spin-Spin,Magnetic field MRCI
   Miquel Garcia          : C-PCM and meta-GGA Hessian, CC/C-PCM, Gaussian charge scheme
   Yang Guo               : DLPNO-NEVPT2, F12-NEVPT2, CIM, IAO-localization
   Andreas Hansen         : Spin unrestricted coupled pair/coupled cluster methods
   Benjamin Helmich-Paris : MC-RPA, TRAH-SCF, COSX integrals
   Lee Huntington         : MR-EOM, pCC
   Robert Izsak           : Overlap fitted RIJCOSX, COSX-SCS-MP3, EOM
   Marcus Kettner         : VPT2
   Christian Kollmar      : KDIIS, OOCD, Brueckner-CCSD(T), CCSD density, CASPT2, CASPT2-K
   Simone Kossmann        : Meta GGA functionals, TD-DFT gradient, OOMP2, MP2 Hessian
   Martin Krupicka        : Initial AUTO-CI
   Lucas Lang             : DCDCAS
   Marvin Lechner         : AUTO-CI (C++ implementation), FIC-MRCC
   Dagmar Lenk            : GEPOL surface, SMD
   Dimitrios Liakos       : Extrapolation schemes; Compound Job, initial MDCI parallelization
   Dimitrios Manganas     : Further ROCIS development; embedding schemes
   Dimitrios Pantazis     : SARC Basis sets
   Anastasios Papadopoulos: AUTO-CI, single reference methods and gradients
   Taras Petrenko         : DFT Hessian,TD-DFT gradient, ASA, ECA, R-Raman, ABS, FL, XAS/XES, NRVS
   Peter Pinski           : DLPNO-MP2, DLPNO-MP2 Gradient
   Christoph Reimann      : Effective Core Potentials
   Marius Retegan         : Local ZFS, SOC
   Christoph Riplinger    : Optimizer, TS searches, QM/MM, DLPNO-CCSD(T), (RO)-DLPNO pert. Triples
   Tobias Risthaus        : Range-separated hybrids, TD-DFT gradient, RPA, STAB
   Michael Roemelt        : Original ROCIS implementation
   Masaaki Saitow         : Open-shell DLPNO-CCSD energy and density
   Barbara Sandhoefer     : DKH picture change effects
   Avijit Sen             : IP-ROCIS
   Kantharuban Sivalingam : CASSCF convergence, NEVPT2, FIC-MRCI
   Bernardo de Souza      : ESD, SOC TD-DFT
   Georgi Stoychev        : AutoAux, RI-MP2 NMR, DLPNO-MP2 response
   Willem Van den Heuvel  : Paramagnetic NMR
   Boris Wezisla          : Elementary symmetry handling
   Frank Wennmohs         : Technical directorship


 We gratefully acknowledge several colleagues who have allowed us to
 interface, adapt or use parts of their codes:
   Stefan Grimme, W. Hujo, H. Kruse, P. Pracht,  : VdW corrections, initial TS optimization,
                  C. Bannwarth, S. Ehlert          DFT functionals, gCP, sTDA/sTD-DF
   Ed Valeev, F. Pavosevic, A. Kumar             : LibInt (2-el integral package), F12 methods
   Garnet Chan, S. Sharma, J. Yang, R. Olivares  : DMRG
   Ulf Ekstrom                                   : XCFun DFT Library
   Mihaly Kallay                                 : mrcc  (arbitrary order and MRCC methods)
   Jiri Pittner, Ondrej Demel                    : Mk-CCSD
   Frank Weinhold                                : gennbo (NPA and NBO analysis)
   Christopher J. Cramer and Donald G. Truhlar   : smd solvation model
   Lars Goerigk                                  : TD-DFT with DH, B97 family of functionals
   V. Asgeirsson, H. Jonsson                     : NEB implementation
   FAccTs GmbH                                   : IRC, NEB, NEB-TS, DLPNO-Multilevel, CI-OPT
                                                   MM, QMMM, 2- and 3-layer-ONIOM, Crystal-QMMM,
                                                   LR-CPCM, SF, NACMEs, symmetry and pop. for TD-DFT,
                                                   nearIR, NL-DFT gradient (VV10), updates on ESD,
                                                   ML-optimized integration grids
   S Lehtola, MJT Oliveira, MAL Marques          : LibXC Library
   Liviu Ungur et al                             : ANISO software


 Your calculation uses the libint2 library for the computation of 2-el integrals
 For citations please refer to: http://libint.valeyev.net

 Your ORCA version has been built with support for libXC version: 5.1.0
 For citations please refer to: https://tddft.org/programs/libxc/

 This ORCA versions uses:
   CBLAS   interface :  Fast vector & matrix operations
   LAPACKE interface :  Fast linear algebra routines
   Shared memory     :  Shared parallel matrices


Your calculation utilizes the atom-pairwise dispersion correction
with the Becke-Johnson damping scheme (D3BJ)
Cite in your paper:
S.Grimme, S.Ehrlich, L.Goerigk, J Comput Chem, (2011), 32, 1456–1465 
S.Grimme, J.Antony, S.Ehrlich and H.Krieg, J.Chem.Phys., 132, (2010), 154104 
   

================================================================================

----- Orbital basis set information -----
Your calculation utilizes the basis: def2-SVP
   F. Weigend and R. Ahlrichs, Phys. Chem. Chem. Phys. 7, 3297 (2005).

----- AuxJ basis set information -----
Your calculation utilizes the auxiliary basis: def2/J
   F. Weigend, Phys. Chem. Chem. Phys. 8, 1057 (2006).

================================================================================
                                        WARNINGS
                       Please study these warnings very carefully!
================================================================================


WARNING: your system is open-shell and RHF/RKS was chosen
  ===> : WILL SWITCH to UHF/UKS


INFO   : the flag for use of the SHARK integral package has been found!

================================================================================
                                       INPUT FILE
================================================================================
NAME = lactone_kation.inp
|  1> !B3LYP D3 DEF2-SVP KEEPDENS
|  2> 
|  3> * xyz 1 2
|  4>   C   -2.22228878158883      3.02859625455643     -0.21035396487253
|  5>   C   -2.50830439779609      1.54791789780224      0.07602730919541
|  6>   O   -1.28019171891555      0.86292489456393     -0.19752365471928
|  7>   H   -3.29279866693753      1.11226368229766     -0.55882412139207
|  8>   H   -2.78129033761928      1.38083967617559      1.13343223202784
|  9>   C   -0.73508193412564      3.12413342164026      0.12809792804256
| 10>   H   -2.86397098602036      3.70229449871120      0.37527275872271
| 11>   H   -2.38623672040265      3.24574776644390     -1.27800975944110
| 12>   C   -0.21849123873636      1.71461968337449     -0.15303530810893
| 13>   H   -0.56392689440653      3.33449540230340      1.19850628759754
| 14>   H   -0.16145763230755      3.86205509865162     -0.44841287057201
| 15>   O   0.91007930885637      1.34911172347926     -0.30702683648014
| 16> **                         ****END OF INPUT****
================================================================================

                       ****************************
                       * Single Point Calculation *
                       ****************************

---------------------------------
CARTESIAN COORDINATES (ANGSTROEM)
---------------------------------
  C     -2.222289    3.028596   -0.210354
  C     -2.508304    1.547918    0.076027
  O     -1.280192    0.862925   -0.197524
  H     -3.292799    1.112264   -0.558824
  H     -2.781290    1.380840    1.133432
  C     -0.735082    3.124133    0.128098
  H     -2.863971    3.702294    0.375273
  H     -2.386237    3.245748   -1.278010
  C     -0.218491    1.714620   -0.153035
  H     -0.563927    3.334495    1.198506
  H     -0.161458    3.862055   -0.448413
  O      0.910079    1.349112   -0.307027

----------------------------
CARTESIAN COORDINATES (A.U.)
----------------------------
  NO LB      ZA    FRAG     MASS         X           Y           Z
   0 C     6.0000    0    12.011   -4.199517    5.723217   -0.397511
   1 C     6.0000    0    12.011   -4.740008    2.925141    0.143671
   2 O     8.0000    0    15.999   -2.419212    1.630692   -0.373266
   3 H     1.0000    0     1.008   -6.222488    2.101874   -1.056025
   4 H     1.0000    0     1.008   -5.255877    2.609409    2.141877
   5 C     6.0000    0    12.011   -1.389104    5.903757    0.242070
   6 H     1.0000    0     1.008   -5.412121    6.996323    0.709163
   7 H     1.0000    0     1.008   -4.509334    6.133574   -2.415088
   8 C     6.0000    0    12.011   -0.412889    3.240162   -0.289195
   9 H     1.0000    0     1.008   -1.065667    6.301283    2.264849
  10 H     1.0000    0     1.008   -0.305111    7.298226   -0.847378
  11 O     8.0000    0    15.999    1.719801    2.549452   -0.580197

--------------------------------
INTERNAL COORDINATES (ANGSTROEM)
--------------------------------
 C      0   0   0     0.000000000000     0.00000000     0.00000000
 C      1   0   0     1.535000834857     0.00000000     0.00000000
 O      2   1   0     1.432587273562   105.41867856     0.00000000
 H      2   1   3     1.099209803778   114.05018959   241.47542515
 H      2   1   3     1.104781257224   111.74571269   118.02965567
 C      1   2   3     1.528221594290   101.55524774   329.68635339
 H      1   2   3     1.099356191164   112.51850901   207.02255348
 H      1   2   3     1.101781557947   110.07067307    86.55101881
 C      3   2   1     1.361826397117   111.28844528    20.92821679
 H      6   1   2     1.104228358056   112.17483170   272.76796989
 H      6   1   2     1.098152057758   115.72654607   148.99488701
 O      9   3   2     1.196236155803   122.69852528   177.44404470

---------------------------
INTERNAL COORDINATES (A.U.)
---------------------------
 C      0   0   0     0.000000000000     0.00000000     0.00000000
 C      1   0   0     2.900731193220     0.00000000     0.00000000
 O      2   1   0     2.707197609973   105.41867856     0.00000000
 H      2   1   3     2.077205492862   114.05018959   241.47542515
 H      2   1   3     2.087734014042   111.74571269   118.02965567
 C      1   2   3     2.887920285152   101.55524774   329.68635339
 H      1   2   3     2.077482124930   112.51850901   207.02255348
 H      1   2   3     2.082065403925   110.07067307    86.55101881
 C      3   2   1     2.573478932495   111.28844528    20.92821679
 H      6   1   2     2.086689186035   112.17483170   272.76796989
 H      6   1   2     2.075206642565   115.72654607   148.99488701
 O      9   3   2     2.260558725963   122.69852528   177.44404470

---------------------
BASIS SET INFORMATION
---------------------
There are 3 groups of distinct atoms

 Group   1 Type C   : 7s4p1d contracted to 3s2p1d pattern {511/31/1}
 Group   2 Type O   : 7s4p1d contracted to 3s2p1d pattern {511/31/1}
 Group   3 Type H   : 4s1p contracted to 2s1p pattern {31/1}

Atom   0C    basis set group =>   1
Atom   1C    basis set group =>   1
Atom   2O    basis set group =>   2
Atom   3H    basis set group =>   3
Atom   4H    basis set group =>   3
Atom   5C    basis set group =>   1
Atom   6H    basis set group =>   3
Atom   7H    basis set group =>   3
Atom   8C    basis set group =>   1
Atom   9H    basis set group =>   3
Atom  10H    basis set group =>   3
Atom  11O    basis set group =>   2
---------------------------------
AUXILIARY/J BASIS SET INFORMATION
---------------------------------
There are 3 groups of distinct atoms

 Group   1 Type C   : 12s5p4d2f1g contracted to 6s4p3d1f1g pattern {711111/2111/211/2/1}
 Group   2 Type O   : 12s5p4d2f1g contracted to 6s4p3d1f1g pattern {711111/2111/211/2/1}
 Group   3 Type H   : 5s2p1d contracted to 3s1p1d pattern {311/2/1}

Atom   0C    basis set group =>   1
Atom   1C    basis set group =>   1
Atom   2O    basis set group =>   2
Atom   3H    basis set group =>   3
Atom   4H    basis set group =>   3
Atom   5C    basis set group =>   1
Atom   6H    basis set group =>   3
Atom   7H    basis set group =>   3
Atom   8C    basis set group =>   1
Atom   9H    basis set group =>   3
Atom  10H    basis set group =>   3
Atom  11O    basis set group =>   2

Checking for AutoStart:
The File: lactone_kation.gbw exists
Trying to determine its content:
     ... Fine, the file contains calculation information
     ... Fine, the calculation information was read
     ... Fine, the file contains a basis set
     ... Fine, the basis set was read
     ... Fine, the file contains a geometry
     ... Fine, the geometry was read
     ... Fine, the file contains a set of orbitals
     ... Fine, the orbitals can be read
     => possible old guess file was deleted
     => GBW file was renamed to GES file
     => GES file is set as startup file
     => Guess is set to MORead
     ... now leaving AutoStart

------------------------------------------------------------------------------
                           ORCA GTO INTEGRAL CALCULATION
                           -- RI-GTO INTEGRALS CHOSEN --
------------------------------------------------------------------------------
------------------------------------------------------------------------------
                   ___                                                        
                  /   \      - P O W E R E D   B Y -                         
                 /     \                                                     
                 |  |  |   _    _      __       _____    __    __             
                 |  |  |  | |  | |    /  \     |  _  \  |  |  /  |          
                  \  \/   | |  | |   /    \    | | | |  |  | /  /          
                 / \  \   | |__| |  /  /\  \   | |_| |  |  |/  /          
                |  |  |   |  __  | /  /__\  \  |    /   |      \           
                |  |  |   | |  | | |   __   |  |    \   |  |\   \          
                \     /   | |  | | |  |  |  |  | |\  \  |  | \   \       
                 \___/    |_|  |_| |__|  |__|  |_| \__\ |__|  \__/        
                                                                              
                      - O R C A' S   B I G   F R I E N D -                    
                                      &                                       
                       - I N T E G R A L  F E E D E R -                       
                                                                              
 v1 FN, 2020, v2 2021                                                         
------------------------------------------------------------------------------


Reading SHARK input file lactone_kation.SHARKINP.tmp ... ok
----------------------
SHARK INTEGRAL PACKAGE
----------------------

Number of atoms                             ...     12
Number of basis functions                   ...    114
Number of shells                            ...     54
Maximum angular momentum                    ...      2
Integral batch strategy                     ... SHARK/LIBINT Hybrid
RI-J (if used) integral strategy            ... SPLIT-RIJ (Revised 2003 algorithm where possible)
Printlevel                                  ...      1
Contraction scheme used                     ... SEGMENTED contraction
Coulomb Range Separation                    ... NOT USED
Exchange Range Separation                   ... NOT USED
Finite Nucleus Model                        ... NOT USED
Auxiliary Coulomb fitting basis             ... AVAILABLE
   # of basis functions in Aux-J            ...    360
   # of shells in Aux-J                     ...    120
   Maximum angular momentum in Aux-J        ...      4
Auxiliary J/K fitting basis                 ... NOT available
Auxiliary Correlation fitting basis         ... NOT available
Auxiliary 'external' fitting basis          ... NOT available
Integral threshold                          ...     1.000000e-10
Primitive cut-off                           ...     1.000000e-11
Primitive pair pre-selection threshold      ...     1.000000e-11

Calculating pre-screening integrals         ... done (  0.1 sec) Dimension = 54
Organizing shell pair data                  ... done (  0.0 sec)
Shell pair information
Total number of shell pairs                 ...      1485
Shell pairs after pre-screening             ...      1458
Total number of primitive shell pairs       ...      5349
Primitive shell pairs kept                  ...      4109
          la=0 lb=0:    452 shell pairs
          la=1 lb=0:    532 shell pairs
          la=1 lb=1:    170 shell pairs
          la=2 lb=0:    176 shell pairs
          la=2 lb=1:    107 shell pairs
          la=2 lb=2:     21 shell pairs

Calculating one electron integrals          ... done (  0.0 sec)
Calculating RI/J V-Matrix + Cholesky decomp.... done (  0.0 sec)
Calculating Nuclear repulsion               ... done (  0.0 sec) ENN=    240.531044986492 Eh

SHARK setup successfully completed in   0.9 seconds

Maximum memory used throughout the entire GTOINT-calculation: 13.4 MB
-------------------------------------------------------------------------------
                                 ORCA SCF
-------------------------------------------------------------------------------

------------
SCF SETTINGS
------------
Hamiltonian:
 Density Functional     Method          .... DFT(GTOs)
 Exchange Functional    Exchange        .... B88
   X-Alpha parameter    XAlpha          ....  0.666667
   Becke's b parameter  XBeta           ....  0.004200
 Correlation Functional Correlation     .... LYP
 LDA part of GGA corr.  LDAOpt          .... VWN-5
 Gradients option       PostSCFGGA      .... off
 Hybrid DFT is turned on
   Fraction HF Exchange ScalHFX         ....  0.200000
   Scaling of DF-GGA-X  ScalDFX         ....  0.720000
   Scaling of DF-GGA-C  ScalDFC         ....  0.810000
   Scaling of DF-LDA-C  ScalLDAC        ....  1.000000
   Perturbative correction              ....  0.000000
   Density functional embedding theory  .... OFF
   NL short-range parameter             ....  4.800000
 RI-approximation to the Coulomb term is turned on
   Number of AuxJ basis functions       .... 360
   RIJ-COSX (HFX calculated with COS-X)).... on


General Settings:
 Integral files         IntName         .... lactone_kation
 Hartree-Fock type      HFTyp           .... UHF
 Total Charge           Charge          ....    1
 Multiplicity           Mult            ....    2
 Number of Electrons    NEL             ....   45
 Basis Dimension        Dim             ....  114
 Nuclear Repulsion      ENuc            ....    240.5310449865 Eh

Convergence Acceleration:
 DIIS                   CNVDIIS         .... on
   Start iteration      DIISMaxIt       ....    12
   Startup error        DIISStart       ....  0.200000
   # of expansion vecs  DIISMaxEq       ....     5
   Bias factor          DIISBfac        ....   1.050
   Max. coefficient     DIISMaxC        ....  10.000
 Trust-Rad. Augm. Hess. CNVTRAH         .... auto
   Auto Start mean grad. ratio tolernc. ....  1.125000
   Auto Start start iteration           ....     1
   Auto Start num. interpolation iter.  ....    10
   Max. Number of Micro iterations      ....    16
   Max. Number of Macro iterations      .... Maxiter - #DIIS iter
   Number of Davidson start vectors     ....     2
   Converg. threshold I  (grad. norm)   ....   5.000e-05
   Converg. threshold II (energy diff.) ....   1.000e-06
   Grad. Scal. Fac. for Micro threshold ....   0.100
   Minimum threshold for Micro iter.    ....   0.010
   NR start threshold (gradient norm)   ....   0.001
   Initial trust radius                 ....   0.400
   Minimum AH scaling param. (alpha)    ....   1.000
   Maximum AH scaling param. (alpha)    .... 1000.000
   Orbital update algorithm             .... Taylor
   White noise on init. David. guess    .... on
   Maximum white noise                  ....   0.010
   Quad. conv. algorithm                .... NR
 SOSCF                  CNVSOSCF        .... off
 Level Shifting         CNVShift        .... on
   Level shift para.    LevelShift      ....    0.2500
   Turn off err/grad.   ShiftErr        ....    0.0010
 Zerner damping         CNVZerner       .... off
 Static damping         CNVDamp         .... on
   Fraction old density DampFac         ....    0.7000
   Max. Damping (<1)    DampMax         ....    0.9800
   Min. Damping (>=0)   DampMin         ....    0.0000
   Turn off err/grad.   DampErr         ....    0.1000
 Fernandez-Rico         CNVRico         .... off

SCF Procedure:
 Maximum # iterations   MaxIter         ....   125
 SCF integral mode      SCFMode         .... Direct
   Integral package                     .... SHARK and LIBINT hybrid scheme
 Reset frequency        DirectResetFreq ....    20
 Integral Threshold     Thresh          ....  1.000e-10 Eh
 Primitive CutOff       TCut            ....  1.000e-11 Eh

Convergence Tolerance:
 Convergence Check Mode ConvCheckMode   .... Total+1el-Energy
 Convergence forced     ConvForced      .... 0
 Energy Change          TolE            ....  1.000e-06 Eh
 1-El. energy change                    ....  1.000e-03 Eh
 DIIS Error             TolErr          ....  1.000e-06


Diagonalization of the overlap matrix:
Smallest eigenvalue                        ... 1.502e-03
Time for diagonalization                   ...    0.006 sec
Threshold for overlap eigenvalues          ... 1.000e-08
Number of eigenvalues below threshold      ... 0
Time for construction of square roots      ...    0.013 sec
Total time needed                          ...    0.019 sec

---------------------
INITIAL GUESS: MOREAD
---------------------
Guess MOs are being read from file: lactone_kation.ges
Input Geometry matches current geometry (good)
Input basis set matches current basis set (good)
MOs were renormalized
MOs were reorthogonalized (Cholesky)
                      ------------------
                      INITIAL GUESS DONE (   0.0 sec)
                      ------------------
-------------------
DFT GRID GENERATION
-------------------

General Integration Accuracy     IntAcc      ... 4.388
Radial Grid Type                 RadialGrid  ... OptM3 with GC (2021)
Angular Grid (max. ang.)         AngularGrid ... 4 (Lebedev-302)
Angular grid pruning method      GridPruning ... 4 (adaptive)
Weight generation scheme         WeightScheme... Becke
Basis function cutoff            BFCut       ... 1.0000e-10
Integration weight cutoff        WCut        ... 1.0000e-14
Angular grids for H and He will be reduced by one unit
Partially contracted basis set               ... off
Rotationally invariant grid construction     ... off

Total number of grid points                  ...    55586
Total number of batches                      ...      875
Average number of points per batch           ...       63
Average number of grid points per atom       ...     4632
Time for grid setup =    1.729 sec

--------------------
COSX GRID GENERATION
--------------------

GRIDX 1
-------
General Integration Accuracy     IntAcc      ... 3.816
Radial Grid Type                 RadialGrid  ... OptM3 with GC (2021)
Angular Grid (max. ang.)         AngularGrid ... 1 (Lebedev-50)
Angular grid pruning method      GridPruning ... 4 (adaptive)
Weight generation scheme         WeightScheme... Becke
Basis function cutoff            BFCut       ... 1.0000e-10
Integration weight cutoff        WCut        ... 1.0000e-14
Angular grids for H and He will be reduced by one unit
Partially contracted basis set               ... on
Rotationally invariant grid construction     ... off

Total number of grid points                  ...     7121
Total number of batches                      ...      119
Average number of points per batch           ...       59
Average number of grid points per atom       ...      593
UseSFitting                                  ... on

GRIDX 2
-------
General Integration Accuracy     IntAcc      ... 4.020
Radial Grid Type                 RadialGrid  ... OptM3 with GC (2021)
Angular Grid (max. ang.)         AngularGrid ... 2 (Lebedev-110)
Angular grid pruning method      GridPruning ... 4 (adaptive)
Weight generation scheme         WeightScheme... Becke
Basis function cutoff            BFCut       ... 1.0000e-10
Integration weight cutoff        WCut        ... 1.0000e-14
Angular grids for H and He will be reduced by one unit
Partially contracted basis set               ... on
Rotationally invariant grid construction     ... off

Total number of grid points                  ...    15498
Total number of batches                      ...      249
Average number of points per batch           ...       62
Average number of grid points per atom       ...     1292
UseSFitting                                  ... on

GRIDX 3
-------
General Integration Accuracy     IntAcc      ... 4.338
Radial Grid Type                 RadialGrid  ... OptM3 with GC (2021)
Angular Grid (max. ang.)         AngularGrid ... 3 (Lebedev-194)
Angular grid pruning method      GridPruning ... 4 (adaptive)
Weight generation scheme         WeightScheme... Becke
Basis function cutoff            BFCut       ... 1.0000e-10
Integration weight cutoff        WCut        ... 1.0000e-14
Angular grids for H and He will be reduced by one unit
Partially contracted basis set               ... on
Rotationally invariant grid construction     ... off

Total number of grid points                  ...    34078
Total number of batches                      ...      539
Average number of points per batch           ...       63
Average number of grid points per atom       ...     2840
UseSFitting                                  ... on

Time for X-Grid setup             =    3.055 sec

--------------
SCF ITERATIONS
--------------
ITER       Energy         Delta-E        Max-DP      RMS-DP      [F,P]     Damp
               ***  Starting incremental Fock matrix formation  ***
  0   -305.5751591698   0.000000000000 0.05181346  0.00155752  0.1310440 0.7000
  1   -305.6459748646  -0.070815694787 0.03399857  0.00094156  0.0402476 0.7000
                               ***Turning on DIIS***
  2   -305.6663668168  -0.020391952127 0.04704511  0.00160946  0.0190591 0.0000
  3   -305.7132213824  -0.046854565603 0.02027776  0.00067218  0.0256404 0.0000
  4   -305.7190821344  -0.005860752058 0.01821901  0.00030776  0.0171201 0.0000
  5   -305.7213291252  -0.002246990745 0.01128798  0.00020647  0.0061169 0.0000
  6   -305.7223063460  -0.000977220860 0.01210666  0.00022214  0.0045506 0.0000
  7   -305.7232219125  -0.000915566490 0.01115768  0.00020846  0.0036681 0.0000
  8   -305.7239998396  -0.000777927053 0.00954566  0.00018852  0.0041287 0.0000
  9   -305.7246527909  -0.000652951368 0.00959382  0.00019398  0.0035120 0.0000
 10   -305.7252688733  -0.000616082330 0.00821145  0.00017436  0.0037268 0.0000
 11   -305.7258021951  -0.000533321881 0.01000941  0.00024236  0.0031985 0.0000
 12   -305.7263648798  -0.000562684635 0.00482794  0.00011531  0.0044765 0.0000
 13   -305.7267209842  -0.000356104464 0.00940153  0.00028595  0.0026941 0.0000
 14   -305.7271020536  -0.000381069312 0.00446120  0.00012073  0.0051987 0.0000
 15   -305.7275255874  -0.000423533829 0.00545945  0.00014628  0.0033235 0.0000
 16   -305.7278254647  -0.000299877366 0.00665755  0.00017154  0.0029202 0.0000
 17   -305.7280732429  -0.000247778197 0.00209617  0.00008215  0.0031872 0.0000
 18   -305.7282501807  -0.000176937722 0.00413031  0.00010494  0.0015933 0.0000
 19   -305.7284028286  -0.000152647983 0.00550420  0.00013187  0.0019789 0.0000
               *** Restarting incremental Fock matrix formation ***
                                   *** Resetting DIIS ***

 WARNING: the maximum gradient error descreased on average only by a factor   1.1
          during the last 20 iterations

                      *** Initiating the TRAH-SCF procedure ***


TRAH GRIDX
----------

General Integration Accuracy     IntAcc      ... 3.067
Radial Grid Type                 RadialGrid  ... OptM3 with GC (2021)
Angular Grid (max. ang.)         AngularGrid ... 1 (Lebedev-50)
Angular grid pruning method      GridPruning ... 4 (adaptive)
Weight generation scheme         WeightScheme... Becke
Basis function cutoff            BFCut       ... 1.0000e-10
Integration weight cutoff        WCut        ... 1.0000e-14
Angular grids for H and He will be reduced by one unit
Partially contracted basis set               ... on
Rotationally invariant grid construction     ... off

Total number of grid points                  ...     3734
Total number of batches                      ...       65
Average number of points per batch           ...       57
Average number of grid points per atom       ...      311


TRAH GRID
---------

General Integration Accuracy     IntAcc      ... 3.467
Radial Grid Type                 RadialGrid  ... OptM3 with GC (2021)
Angular Grid (max. ang.)         AngularGrid ... 1 (Lebedev-50)
Angular grid pruning method      GridPruning ... 4 (adaptive)
Weight generation scheme         WeightScheme... Becke
Basis function cutoff            BFCut       ... 1.0000e-10
Integration weight cutoff        WCut        ... 1.0000e-14
Angular grids for H and He will be reduced by one unit
Partially contracted basis set               ... off
Rotationally invariant grid construction     ... off

Total number of grid points                  ...     8109
Total number of batches                      ...      132
Average number of points per batch           ...       61
Average number of grid points per atom       ...      676

 --------------------------------------------------------------------------------------------
   Iter.        energy            ||Error||_2        Shift      TRadius  Mac/Mic        Rej.
 --------------------------------------------------------------------------------------------
    0       -305.728556595252     9.651315e-03                     0.400 (TRAH MAcro)   No
    0     dE    -5.303024e-05     1.445162e-02    -5.3028e-05      0.007 (TRAH MIcro)
    0     dE    -3.445536e-04     1.478849e-02    -3.4229e-04      0.081 (TRAH MIcro)
    0     dE    -5.381542e-04     7.881740e-03    -5.2780e-04      0.140 (TRAH MIcro)
    0     dE    -5.994745e-04     5.070608e-03    -5.8477e-04      0.159 (TRAH MIcro)
    0     dE    -6.286809e-04     2.183671e-03    -6.1167e-04      0.167 (TRAH MIcro)
    0     dE    -6.325328e-04     1.160661e-03    -6.1520e-04      0.168 (TRAH MIcro)
    0     dE    -6.335292e-04     6.032214e-04    -6.1611e-04      0.168 (TRAH MIcro)
    1       -305.729236355426     8.196038e-03                     0.480 (TRAH MAcro)   No
    1     dE    -2.635270e-05     5.545273e-03    -2.6352e-05      0.003 (TRAH MIcro)
    1     dE    -4.499731e-05     2.452519e-03    -4.4990e-05      0.013 (TRAH MIcro)
    1     dE    -5.218528e-05     2.176554e-03    -5.2160e-05      0.022 (TRAH MIcro)
    1     dE    -5.574178e-05     1.117529e-03    -5.5697e-05      0.028 (TRAH MIcro)
    1     dE    -5.783591e-05     1.064599e-03    -5.7773e-05      0.033 (TRAH MIcro)
    1     dE    -5.884255e-05     4.832312e-04    -5.8769e-05      0.035 (TRAH MIcro)
    2       -305.729299205680     6.774127e-04                           (NR   MAcro)
    2     dE    -4.296343e-07     5.263822e-04                           (NR   MIcro)
    2     dE    -8.113051e-07     4.418488e-04                           (NR   MIcro)
    2     dE    -1.090163e-06     4.281861e-04                           (NR   MIcro)
    2     dE    -1.344858e-06     2.818653e-04                           (NR   MIcro)
    2     dE    -1.392120e-06     1.430006e-04                           (NR   MIcro)
    2     dE    -1.404036e-06     3.676567e-05                           (NR   MIcro)
    2     dE    -1.404958e-06     1.559949e-05                           (NR   MIcro)
    2     dE    -1.405137e-06     5.359699e-06                           (NR   MIcro)
    2     dE    -1.405160e-06     2.351487e-06                           (NR   MIcro)
    3       -305.729300624411     2.447030e-05                           (NR   MAcro)
    3     dE    -3.282883e-10     7.841080e-06                           (NR   MIcro)
    3     dE    -4.607035e-10     8.142234e-06                           (NR   MIcro)
    3     dE    -5.493641e-10     6.413651e-06                           (NR   MIcro)
    3     dE    -6.029909e-10     5.951454e-06                           (NR   MIcro)
    3     dE    -6.332018e-10     3.321568e-06                           (NR   MIcro)
    4       -305.729300624958     3.336136e-06                           (NR   MAcro)

               *****************************************************
               *                     SUCCESS                       *
               *           SCF CONVERGED AFTER  52 CYCLES          *
               *****************************************************

Old exchange energy                            =     -7.781941947 Eh
New exchange energy                            =     -7.781927171 Eh
Exchange energy change after final integration =      0.000014776 Eh
Total energy after final integration           =   -305.729285849 Eh
Final COS-X integration done in                =     8.026 sec

----------------
TOTAL SCF ENERGY
----------------

Total Energy       :         -305.72928585 Eh           -8319.31681 eV

Components:
Nuclear Repulsion  :          240.53104499 Eh            6545.18248 eV
Electronic Energy  :         -546.26033084 Eh          -14864.49930 eV
One Electron Energy:         -880.84281219 Eh          -23968.95148 eV
Two Electron Energy:          334.58248135 Eh            9104.45218 eV
Max COSX asymmetry :            0.00000072 Eh               0.00002 eV

Virial components:
Potential Energy   :         -608.90510016 Eh          -16569.15013 eV
Kinetic Energy     :          303.17581431 Eh            8249.83332 eV
Virial Ratio       :            2.00842241


DFT components:
N(Alpha)           :       22.999979803776 electrons
N(Beta)            :       21.999978767708 electrons
N(Total)           :       44.999958571483 electrons
E(X)               :      -30.964943795213 Eh       
E(C)               :       -1.810541672265 Eh       
E(XC)              :      -32.775485467478 Eh       
DFET-embed. en.    :        0.000000000000 Eh       

---------------
SCF CONVERGENCE
---------------

  Last Energy change         ...   -5.4757e-10  Tolerance :   1.0000e-06
  Last Orbital Gradient      ...    3.3361e-06  Tolerance :   5.0000e-05
  Last Orbital Rotation      ...    1.3936e-04

             **** THE GBW FILE WAS UPDATED (lactone_kation.gbw) ****
             **** DENSITY lactone_kation.scfp WAS UPDATED ****
             **** ENERGY FILE WAS UPDATED (lactone_kation.en.tmp) ****
----------------------
UHF SPIN CONTAMINATION
----------------------

Warning: in a DFT calculation there is little theoretical justification to 
         calculate <S**2> as in Hartree-Fock theory. We will do it anyways
         but you should keep in mind that the values have only limited relevance

Expectation value of <S**2>     :     0.756007
Ideal value S*(S+1) for S=0.5   :     0.750000
Deviation                       :     0.006007

             **** THE GBW FILE WAS UPDATED (lactone_kation.gbw) ****
             **** DENSITY lactone_kation.scfp WAS UPDATED ****
----------------
ORBITAL ENERGIES
----------------
                 SPIN UP ORBITALS
  NO   OCC          E(Eh)            E(eV) 
   0   1.0000     -19.503952      -530.7295 
   1   1.0000     -19.445853      -529.1486 
   2   1.0000     -10.601438      -288.4798 
   3   1.0000     -10.457674      -284.5678 
   4   1.0000     -10.456667      -284.5404 
   5   1.0000     -10.413058      -283.3537 
   6   1.0000      -1.408391       -38.3243 
   7   1.0000      -1.319027       -35.8925 
   8   1.0000      -1.035576       -28.1795 
   9   1.0000      -0.965443       -26.2710 
  10   1.0000      -0.865314       -23.5464 
  11   1.0000      -0.806067       -21.9342 
  12   1.0000      -0.770712       -20.9721 
  13   1.0000      -0.766713       -20.8633 
  14   1.0000      -0.731708       -19.9108 
  15   1.0000      -0.690246       -18.7825 
  16   1.0000      -0.686512       -18.6809 
  17   1.0000      -0.657784       -17.8992 
  18   1.0000      -0.612430       -16.6651 
  19   1.0000      -0.609678       -16.5902 
  20   1.0000      -0.587850       -15.9962 
  21   1.0000      -0.576155       -15.6780 
  22   1.0000      -0.537965       -14.6388 
  23   0.0000      -0.270175        -7.3518 
  24   0.0000      -0.134950        -3.6722 
  25   0.0000      -0.101631        -2.7655 
  26   0.0000      -0.098758        -2.6873 
  27   0.0000      -0.077113        -2.0984 
  28   0.0000      -0.054684        -1.4880 
  29   0.0000      -0.048028        -1.3069 
  30   0.0000      -0.044586        -1.2132 
  31   0.0000      -0.028024        -0.7626 
  32   0.0000      -0.005561        -0.1513 
  33   0.0000       0.030237         0.8228 
  34   0.0000       0.053272         1.4496 
  35   0.0000       0.105199         2.8626 
  36   0.0000       0.179122         4.8741 
  37   0.0000       0.210056         5.7159 
  38   0.0000       0.233792         6.3618 
  39   0.0000       0.249838         6.7984 
  40   0.0000       0.279134         7.5956 
  41   0.0000       0.294251         8.0070 
  42   0.0000       0.332015         9.0346 
  43   0.0000       0.352733         9.5984 
  44   0.0000       0.374573        10.1927 
  45   0.0000       0.386460        10.5161 
  46   0.0000       0.399849        10.8804 
  47   0.0000       0.426620        11.6089 
  48   0.0000       0.436055        11.8657 
  49   0.0000       0.458629        12.4799 
  50   0.0000       0.468970        12.7613 
  51   0.0000       0.482811        13.1380 
  52   0.0000       0.491302        13.3690 
  53   0.0000       0.495462        13.4822 
  54   0.0000       0.507129        13.7997 
  55   0.0000       0.588700        16.0193 
  56   0.0000       0.661317        17.9954 
  57   0.0000       0.699908        19.0455 
  58   0.0000       0.784152        21.3379 
  59   0.0000       0.794711        21.6252 
  60   0.0000       0.828595        22.5472 
  61   0.0000       0.838176        22.8079 
  62   0.0000       0.885550        24.0971 
  63   0.0000       1.005458        27.3599 
  64   0.0000       1.063211        28.9314 
  65   0.0000       1.107900        30.1475 
  66   0.0000       1.130886        30.7730 
  67   0.0000       1.212012        32.9805 
  68   0.0000       1.282183        34.8900 
  69   0.0000       1.290746        35.1230 
  70   0.0000       1.322896        35.9978 
  71   0.0000       1.366807        37.1927 
  72   0.0000       1.423562        38.7371 
  73   0.0000       1.461819        39.7781 
  74   0.0000       1.493726        40.6464 
  75   0.0000       1.519339        41.3433 
  76   0.0000       1.527501        41.5654 
  77   0.0000       1.546410        42.0800 
  78   0.0000       1.570167        42.7264 
  79   0.0000       1.577763        42.9331 
  80   0.0000       1.607219        43.7347 
  81   0.0000       1.638184        44.5773 
  82   0.0000       1.649399        44.8824 
  83   0.0000       1.680919        45.7401 
  84   0.0000       1.702152        46.3179 
  85   0.0000       1.741066        47.3768 
  86   0.0000       1.757959        47.8365 
  87   0.0000       1.847314        50.2680 
  88   0.0000       1.879585        51.1461 
  89   0.0000       1.899960        51.7006 
  90   0.0000       1.997814        54.3633 
  91   0.0000       2.053937        55.8905 
  92   0.0000       2.091940        56.9246 
  93   0.0000       2.150777        58.5256 
  94   0.0000       2.184384        59.4401 
  95   0.0000       2.281000        62.0692 
  96   0.0000       2.301489        62.6267 
  97   0.0000       2.330793        63.4241 
  98   0.0000       2.389354        65.0176 
  99   0.0000       2.426639        66.0322 
 100   0.0000       2.504321        68.1460 
 101   0.0000       2.530819        68.8671 
 102   0.0000       2.577821        70.1461 
 103   0.0000       2.645348        71.9836 
 104   0.0000       2.678416        72.8834 
 105   0.0000       2.736428        74.4620 
 106   0.0000       2.755747        74.9877 
 107   0.0000       2.767111        75.2969 
 108   0.0000       2.823390        76.8283 
 109   0.0000       2.916136        79.3521 
 110   0.0000       2.955398        80.4205 
 111   0.0000       3.039213        82.7012 
 112   0.0000       3.320016        90.3422 
 113   0.0000       3.344339        91.0041 

                 SPIN DOWN ORBITALS
  NO   OCC          E(Eh)            E(eV) 
   0   1.0000     -19.483267      -530.1666 
   1   1.0000     -19.442535      -529.0583 
   2   1.0000     -10.602810      -288.5171 
   3   1.0000     -10.457683      -284.5680 
   4   1.0000     -10.453828      -284.4631 
   5   1.0000     -10.412526      -283.3392 
   6   1.0000      -1.377371       -37.4802 
   7   1.0000      -1.300846       -35.3978 
   8   1.0000      -1.027084       -27.9484 
   9   1.0000      -0.956407       -26.0252 
  10   1.0000      -0.851962       -23.1831 
  11   1.0000      -0.789424       -21.4813 
  12   1.0000      -0.756282       -20.5795 
  13   1.0000      -0.754788       -20.5388 
  14   1.0000      -0.714390       -19.4396 
  15   1.0000      -0.678749       -18.4697 
  16   1.0000      -0.656813       -17.8728 
  17   1.0000      -0.642860       -17.4931 
  18   1.0000      -0.605600       -16.4792 
  19   1.0000      -0.586617       -15.9627 
  20   1.0000      -0.575817       -15.6688 
  21   1.0000      -0.534933       -14.5563 
  22   0.0000      -0.465595       -12.6695 
  23   0.0000      -0.265588        -7.2270 
  24   0.0000      -0.132909        -3.6166 
  25   0.0000      -0.100859        -2.7445 
  26   0.0000      -0.096607        -2.6288 
  27   0.0000      -0.074190        -2.0188 
  28   0.0000      -0.049308        -1.3417 
  29   0.0000      -0.044961        -1.2235 
  30   0.0000      -0.040907        -1.1131 
  31   0.0000      -0.021589        -0.5875 
  32   0.0000      -0.003673        -0.1000 
  33   0.0000       0.033712         0.9174 
  34   0.0000       0.057800         1.5728 
  35   0.0000       0.115641         3.1468 
  36   0.0000       0.179709         4.8901 
  37   0.0000       0.211502         5.7553 
  38   0.0000       0.234928         6.3927 
  39   0.0000       0.250204         6.8084 
  40   0.0000       0.285498         7.7688 
  41   0.0000       0.301471         8.2034 
  42   0.0000       0.333966         9.0877 
  43   0.0000       0.359508         9.7827 
  44   0.0000       0.378454        10.2982 
  45   0.0000       0.391082        10.6419 
  46   0.0000       0.403230        10.9725 
  47   0.0000       0.428151        11.6506 
  48   0.0000       0.439578        11.9615 
  49   0.0000       0.460275        12.5247 
  50   0.0000       0.471148        12.8206 
  51   0.0000       0.486050        13.2261 
  52   0.0000       0.491967        13.3871 
  53   0.0000       0.497123        13.5274 
  54   0.0000       0.508219        13.8293 
  55   0.0000       0.597068        16.2470 
  56   0.0000       0.666568        18.1382 
  57   0.0000       0.706806        19.2332 
  58   0.0000       0.791522        21.5384 
  59   0.0000       0.805684        21.9238 
  60   0.0000       0.839302        22.8386 
  61   0.0000       0.866042        23.5662 
  62   0.0000       0.890544        24.2329 
  63   0.0000       1.012740        27.5581 
  64   0.0000       1.067498        29.0481 
  65   0.0000       1.110400        30.2155 
  66   0.0000       1.137016        30.9398 
  67   0.0000       1.217686        33.1349 
  68   0.0000       1.285356        34.9763 
  69   0.0000       1.301836        35.4247 
  70   0.0000       1.324327        36.0368 
  71   0.0000       1.369874        37.2762 
  72   0.0000       1.426846        38.8265 
  73   0.0000       1.468397        39.9571 
  74   0.0000       1.497381        40.7458 
  75   0.0000       1.522369        41.4258 
  76   0.0000       1.529506        41.6200 
  77   0.0000       1.548887        42.1473 
  78   0.0000       1.571355        42.7587 
  79   0.0000       1.580943        43.0196 
  80   0.0000       1.609460        43.7956 
  81   0.0000       1.640921        44.6517 
  82   0.0000       1.654008        45.0078 
  83   0.0000       1.684153        45.8281 
  84   0.0000       1.704248        46.3750 
  85   0.0000       1.742259        47.4093 
  86   0.0000       1.760300        47.9002 
  87   0.0000       1.852695        50.4144 
  88   0.0000       1.883069        51.2409 
  89   0.0000       1.903805        51.8052 
  90   0.0000       2.005885        54.5829 
  91   0.0000       2.058644        56.0186 
  92   0.0000       2.094070        56.9825 
  93   0.0000       2.158523        58.7364 
  94   0.0000       2.193319        59.6833 
  95   0.0000       2.293352        62.4053 
  96   0.0000       2.345204        63.8162 
  97   0.0000       2.388870        65.0044 
  98   0.0000       2.392101        65.0924 
  99   0.0000       2.430359        66.1334 
 100   0.0000       2.511276        68.3353 
 101   0.0000       2.538286        69.0703 
 102   0.0000       2.580487        70.2186 
 103   0.0000       2.652048        72.1659 
 104   0.0000       2.682389        72.9915 
 105   0.0000       2.740206        74.5648 
 106   0.0000       2.759271        75.0836 
 107   0.0000       2.780322        75.6564 
 108   0.0000       2.825662        76.8902 
 109   0.0000       2.924332        79.5751 
 110   0.0000       2.970231        80.8241 
 111   0.0000       3.050095        82.9973 
 112   0.0000       3.338993        90.8586 
 113   0.0000       3.363663        91.5299 

                    ********************************
                    * MULLIKEN POPULATION ANALYSIS *
                    ********************************

--------------------------------------------
MULLIKEN ATOMIC CHARGES AND SPIN POPULATIONS
--------------------------------------------
   0 C :   -0.048237    0.030187
   1 C :    0.174525   -0.001792
   2 O :   -0.213755    0.104892
   3 H :    0.115967    0.017977
   4 H :    0.098625   -0.000058
   5 C :   -0.023559    0.155938
   6 H :    0.109306    0.015932
   7 H :    0.096193   -0.000927
   8 C :    0.257271   -0.062365
   9 H :    0.142919   -0.001337
  10 H :    0.133408   -0.006105
  11 O :    0.157337    0.747658
Sum of atomic charges         :    1.0000000
Sum of atomic spin populations:    1.0000000

-----------------------------------------------------
MULLIKEN REDUCED ORBITAL CHARGES AND SPIN POPULATIONS
-----------------------------------------------------
CHARGE
  0 C s       :     3.080946  s :     3.080946
      pz      :     1.065633  p :     2.934030
      px      :     0.891646
      py      :     0.976750
      dz2     :     0.008476  d :     0.033261
      dxz     :     0.005015
      dyz     :     0.005341
      dx2y2   :     0.009529
      dxy     :     0.004901
  1 C s       :     3.049686  s :     3.049686
      pz      :     1.070451  p :     2.719210
      px      :     0.746783
      py      :     0.901976
      dz2     :     0.011468  d :     0.056580
      dxz     :     0.010360
      dyz     :     0.006562
      dx2y2   :     0.012449
      dxy     :     0.015742
  2 O s       :     3.782365  s :     3.782365
      pz      :     1.669827  p :     4.413270
      px      :     1.183388
      py      :     1.560055
      dz2     :     0.002416  d :     0.018120
      dxz     :     0.002492
      dyz     :     0.002793
      dx2y2   :     0.002666
      dxy     :     0.007754
  3 H s       :     0.861703  s :     0.861703
      pz      :     0.008161  p :     0.022330
      px      :     0.009148
      py      :     0.005021
  4 H s       :     0.879597  s :     0.879597
      pz      :     0.014723  p :     0.021778
      px      :     0.003410
      py      :     0.003645
  5 C s       :     3.070010  s :     3.070010
      pz      :     1.093226  p :     2.920241
      px      :     0.956770
      py      :     0.870246
      dz2     :     0.007915  d :     0.033308
      dxz     :     0.006234
      dyz     :     0.002946
      dx2y2   :     0.007224
      dxy     :     0.008989
  6 H s       :     0.867393  s :     0.867393
      pz      :     0.007441  p :     0.023301
      px      :     0.007642
      py      :     0.008218
  7 H s       :     0.881110  s :     0.881110
      pz      :     0.014577  p :     0.022696
      px      :     0.003770
      py      :     0.004349
  8 C s       :     3.099092  s :     3.099092
      pz      :     0.742143  p :     2.522415
      px      :     0.818779
      py      :     0.961493
      dz2     :     0.009348  d :     0.121222
      dxz     :     0.032408
      dyz     :     0.009819
      dx2y2   :     0.031385
      dxy     :     0.038262
  9 H s       :     0.833168  s :     0.833168
      pz      :     0.015329  p :     0.023914
      px      :     0.003880
      py      :     0.004704
 10 H s       :     0.843233  s :     0.843233
      pz      :     0.007573  p :     0.023360
      px      :     0.006248
      py      :     0.009538
 11 O s       :     3.780441  s :     3.780441
      pz      :     1.552472  p :     4.041387
      px      :     1.340163
      py      :     1.148752
      dz2     :     0.002423  d :     0.020835
      dxz     :     0.005868
      dyz     :     0.000697
      dx2y2   :     0.006435
      dxy     :     0.005413

SPIN
  0 C s       :    -0.002377  s :    -0.002377
      pz      :    -0.000786  p :     0.031633
      px      :     0.033913
      py      :    -0.001494
      dz2     :     0.000014  d :     0.000931
      dxz     :     0.000312
      dyz     :     0.000002
      dx2y2   :     0.000025
      dxy     :     0.000578
  1 C s       :    -0.002128  s :    -0.002128
      pz      :     0.000660  p :    -0.000691
      px      :     0.003783
      py      :    -0.005135
      dz2     :    -0.000021  d :     0.001027
      dxz     :     0.000203
      dyz     :    -0.000012
      dx2y2   :     0.000327
      dxy     :     0.000529
  2 O s       :    -0.003682  s :    -0.003682
      pz      :     0.012101  p :     0.108506
      px      :     0.054999
      py      :     0.041407
      dz2     :    -0.000007  d :     0.000068
      dxz     :     0.000013
      dyz     :     0.000021
      dx2y2   :    -0.000045
      dxy     :     0.000086
  3 H s       :     0.017828  s :     0.017828
      pz      :     0.000104  p :     0.000148
      px      :    -0.000060
      py      :     0.000105
  4 H s       :    -0.000077  s :    -0.000077
      pz      :    -0.000002  p :     0.000019
      px      :     0.000031
      py      :    -0.000009
  5 C s       :     0.003020  s :     0.003020
      pz      :     0.012055  p :     0.152037
      px      :     0.053843
      py      :     0.086139
      dz2     :     0.000022  d :     0.000880
      dxz     :     0.000155
      dyz     :    -0.000043
      dx2y2   :     0.000551
      dxy     :     0.000196
  6 H s       :     0.015675  s :     0.015675
      pz      :     0.000147  p :     0.000257
      px      :    -0.000144
      py      :     0.000254
  7 H s       :    -0.001003  s :    -0.001003
      pz      :     0.000014  p :     0.000076
      px      :     0.000073
      py      :    -0.000011
  8 C s       :    -0.013122  s :    -0.013122
      pz      :    -0.026196  p :    -0.068526
      px      :    -0.019650
      py      :    -0.022680
      dz2     :     0.000278  d :     0.019283
      dxz     :    -0.000380
      dyz     :     0.000587
      dx2y2   :     0.007938
      dxy     :     0.010859
  9 H s       :    -0.001837  s :    -0.001837
      pz      :     0.000054  p :     0.000500
      px      :     0.000260
      py      :     0.000186
 10 H s       :    -0.006410  s :    -0.006410
      pz      :    -0.000001  p :     0.000305
      px      :     0.000083
      py      :     0.000223
 11 O s       :     0.015345  s :     0.015345
      pz      :     0.032106  p :     0.732457
      px      :     0.048579
      py      :     0.651772
      dz2     :     0.000078  d :    -0.000145
      dxz     :    -0.000101
      dyz     :    -0.000012
      dx2y2   :    -0.000142
      dxy     :     0.000033


                     *******************************
                     * LOEWDIN POPULATION ANALYSIS *
                     *******************************

-------------------------------------------
LOEWDIN ATOMIC CHARGES AND SPIN POPULATIONS
-------------------------------------------
   0 C :   -0.008574    0.029438
   1 C :    0.121595    0.004437
   2 O :    0.009545    0.096337
   3 H :    0.070138    0.014352
   4 H :    0.052491   -0.000227
   5 C :    0.020398    0.131612
   6 H :    0.077931    0.013970
   7 H :    0.060075   -0.000216
   8 C :    0.184023   -0.000609
   9 H :    0.095271    0.000902
  10 H :    0.084266   -0.002191
  11 O :    0.232841    0.712196

----------------------------------------------------
LOEWDIN REDUCED ORBITAL CHARGES AND SPIN POPULATIONS
----------------------------------------------------
CHARGE
  0 C s       :     2.850406  s :     2.850406
      pz      :     1.093471  p :     3.074856
      px      :     0.957336
      py      :     1.024049
      dz2     :     0.020950  d :     0.083312
      dxz     :     0.011586
      dyz     :     0.012271
      dx2y2   :     0.026880
      dxy     :     0.011625
  1 C s       :     2.859749  s :     2.859749
      pz      :     1.094891  p :     2.892301
      px      :     0.825333
      py      :     0.972076
      dz2     :     0.026561  d :     0.126355
      dxz     :     0.024772
      dyz     :     0.012679
      dx2y2   :     0.028653
      dxy     :     0.033690
  2 O s       :     3.478420  s :     3.478420
      pz      :     1.646717  p :     4.479461
      px      :     1.233770
      py      :     1.598973
      dz2     :     0.004182  d :     0.032574
      dxz     :     0.004281
      dyz     :     0.002818
      dx2y2   :     0.005034
      dxy     :     0.016258
  3 H s       :     0.862683  s :     0.862683
      pz      :     0.023599  p :     0.067179
      px      :     0.027671
      py      :     0.015909
  4 H s       :     0.880740  s :     0.880740
      pz      :     0.044021  p :     0.066769
      px      :     0.011130
      py      :     0.011618
  5 C s       :     2.861849  s :     2.861849
      pz      :     1.091182  p :     3.034206
      px      :     1.003826
      py      :     0.939198
      dz2     :     0.019543  d :     0.083548
      dxz     :     0.012668
      dyz     :     0.008496
      dx2y2   :     0.021584
      dxy     :     0.021257
  6 H s       :     0.854124  s :     0.854124
      pz      :     0.021131  p :     0.067945
      px      :     0.022489
      py      :     0.024325
  7 H s       :     0.872401  s :     0.872401
      pz      :     0.042532  p :     0.067524
      px      :     0.011608
      py      :     0.013384
  8 C s       :     2.864910  s :     2.864910
      pz      :     0.747286  p :     2.695185
      px      :     0.955237
      py      :     0.992663
      dz2     :     0.020207  d :     0.255882
      dxz     :     0.060735
      dyz     :     0.016345
      dx2y2   :     0.070414
      dxy     :     0.088181
  9 H s       :     0.834940  s :     0.834940
      pz      :     0.044554  p :     0.069789
      px      :     0.012546
      py      :     0.012688
 10 H s       :     0.845630  s :     0.845630
      pz      :     0.021756  p :     0.070104
      px      :     0.020796
      py      :     0.027552
 11 O s       :     3.566213  s :     3.566213
      pz      :     1.536940  p :     4.166507
      px      :     1.467439
      py      :     1.162129
      dz2     :     0.004641  d :     0.034438
      dxz     :     0.007221
      dyz     :     0.000845
      dx2y2   :     0.011857
      dxy     :     0.009873

SPIN
  0 C s       :    -0.000233  s :    -0.000233
      pz      :    -0.000381  p :     0.027683
      px      :     0.028699
      py      :    -0.000635
      dz2     :     0.000008  d :     0.001988
      dxz     :     0.000626
      dyz     :     0.000023
      dx2y2   :    -0.000070
      dxy     :     0.001402
  1 C s       :    -0.000580  s :    -0.000580
      pz      :     0.001719  p :     0.002462
      px      :     0.004253
      py      :    -0.003510
      dz2     :    -0.000033  d :     0.002555
      dxz     :     0.000448
      dyz     :     0.000015
      dx2y2   :     0.000980
      dxy     :     0.001145
  2 O s       :    -0.000987  s :    -0.000987
      pz      :     0.011339  p :     0.097960
      px      :     0.050069
      py      :     0.036553
      dz2     :    -0.000132  d :    -0.000636
      dxz     :    -0.000029
      dyz     :    -0.000004
      dx2y2   :    -0.000205
      dxy     :    -0.000267
  3 H s       :     0.014451  s :     0.014451
      pz      :     0.000068  p :    -0.000099
      px      :    -0.000276
      py      :     0.000109
  4 H s       :    -0.000204  s :    -0.000204
      pz      :    -0.000002  p :    -0.000023
      px      :     0.000057
      py      :    -0.000079
  5 C s       :     0.003708  s :     0.003708
      pz      :     0.008016  p :     0.127528
      px      :     0.048630
      py      :     0.070882
      dz2     :    -0.000190  d :     0.000376
      dxz     :     0.000170
      dyz     :    -0.000220
      dx2y2   :     0.000669
      dxy     :    -0.000053
  6 H s       :     0.013452  s :     0.013452
      pz      :     0.000248  p :     0.000519
      px      :    -0.000135
      py      :     0.000406
  7 H s       :    -0.000671  s :    -0.000671
      pz      :     0.000102  p :     0.000455
      px      :     0.000386
      py      :    -0.000033
  8 C s       :    -0.003804  s :    -0.003804
      pz      :    -0.022632  p :    -0.041979
      px      :    -0.014212
      py      :    -0.005135
      dz2     :     0.000873  d :     0.045174
      dxz     :    -0.000060
      dyz     :     0.001243
      dx2y2   :     0.018323
      dxy     :     0.024795
  9 H s       :    -0.001583  s :    -0.001583
      pz      :     0.000396  p :     0.002485
      px      :     0.001001
      py      :     0.001088
 10 H s       :    -0.004710  s :    -0.004710
      pz      :     0.000187  p :     0.002519
      px      :     0.000650
      py      :     0.001681
 11 O s       :     0.009657  s :     0.009657
      pz      :     0.029250  p :     0.703422
      px      :     0.045734
      py      :     0.628439
      dz2     :    -0.000097  d :    -0.000884
      dxz     :    -0.000251
      dyz     :    -0.000032
      dx2y2   :    -0.000167
      dxy     :    -0.000336


                      *****************************
                      * MAYER POPULATION ANALYSIS *
                      *****************************

  NA   - Mulliken gross atomic population
  ZA   - Total nuclear charge
  QA   - Mulliken gross atomic charge
  VA   - Mayer's total valence
  BVA  - Mayer's bonded valence
  FA   - Mayer's free valence

  ATOM       NA         ZA         QA         VA         BVA        FA
  0 C      6.0482     6.0000    -0.0482     4.0666     4.0654     0.0013
  1 C      5.8255     6.0000     0.1745     3.8704     3.8702     0.0001
  2 O      8.2138     8.0000    -0.2138     2.3269     2.3150     0.0119
  3 H      0.8840     1.0000     0.1160     0.9794     0.9790     0.0003
  4 H      0.9014     1.0000     0.0986     0.9775     0.9775     0.0000
  5 C      6.0236     6.0000    -0.0236     3.9094     3.8876     0.0218
  6 H      0.8907     1.0000     0.1093     0.9791     0.9788     0.0003
  7 H      0.9038     1.0000     0.0962     0.9719     0.9719     0.0000
  8 C      5.7427     6.0000     0.2573     4.1130     4.1056     0.0074
  9 H      0.8571     1.0000     0.1429     0.9728     0.9728     0.0000
 10 H      0.8666     1.0000     0.1334     0.9787     0.9786     0.0001
 11 O      7.8427     8.0000     0.1573     2.6161     2.1298     0.4863

  Mayer bond orders larger than 0.100000
B(  0-C ,  1-C ) :   1.0723 B(  0-C ,  5-C ) :   1.0404 B(  0-C ,  6-H ) :   0.9194 
B(  0-C ,  7-H ) :   0.9438 B(  1-C ,  2-O ) :   0.8550 B(  1-C ,  3-H ) :   0.9329 
B(  1-C ,  4-H ) :   0.9513 B(  2-O ,  8-C ) :   1.2582 B(  2-O , 11-O ) :   0.1316 
B(  5-C ,  8-C ) :   0.9165 B(  5-C ,  9-H ) :   0.8972 B(  5-C , 10-H ) :   0.9224 
B(  8-C , 11-O ) :   1.8211 

-------
TIMINGS
-------

Total SCF time: 0 days 0 hours 3 min 50 sec 

Total time                  ....     230.449 sec
Sum of individual times     ....     227.391 sec  ( 98.7%)

Fock matrix formation       ....     221.488 sec  ( 96.1%)
  Split-RI-J                ....      21.277 sec  (  9.6% of F)
  Chain of spheres X        ....     134.285 sec  ( 60.6% of F)
  XC integration            ....      65.343 sec  ( 29.5% of F)
    Basis function eval.    ....      15.048 sec  ( 23.0% of XC)
    Density eval.           ....      22.095 sec  ( 33.8% of XC)
    XC-Functional eval.     ....       5.769 sec  (  8.8% of XC)
    XC-Potential eval.      ....      18.288 sec  ( 28.0% of XC)
Diagonalization             ....       0.270 sec  (  0.1%)
Density matrix formation    ....       0.031 sec  (  0.0%)
Population analysis         ....       0.071 sec  (  0.0%)
Initial guess               ....       0.009 sec  (  0.0%)
Orbital Transformation      ....       0.105 sec  (  0.0%)
Orbital Orthonormalization  ....       0.003 sec  (  0.0%)
DIIS solution               ....       0.633 sec  (  0.3%)
Grid generation             ....       4.784 sec  (  2.1%)

Maximum memory used throughout the entire SCF-calculation: 58.6 MB


-------------------------------------------------------------------------------
                          DFT DISPERSION CORRECTION                            
                                                                               
                              DFTD3 V3.1  Rev 1                                
                          USING Becke-Johnson damping                          
-------------------------------------------------------------------------------
The B3LYP functional is recognized
Active option DFTDOPT                   ...         4   

molecular C6(AA) [au] = 1226.349971 


            DFT-D V3
 parameters
 s6 scaling factor         :     1.0000 
 a1 scaling factor         :     0.3981 
 s8 scaling factor         :     1.9889 
 a2 scaling factor         :     4.4211 
 ad hoc parameters k1-k3   :    16.0000     1.3333    -4.0000 

 Edisp/kcal,au: -9.647646358176  -0.015374501466 
 E6   /kcal   :  -4.640369207 
 E8   /kcal   :  -5.007277151 
 % E8         :  51.901541219 

-------------------------   ----------------
Dispersion correction           -0.015374501
-------------------------   ----------------


-------------------------   --------------------
FINAL SINGLE POINT ENERGY      -305.744660350817
-------------------------   --------------------


                            ***************************************
                            *     ORCA property calculations      *
                            ***************************************

                                    ---------------------
                                    Active property flags
                                    ---------------------
   (+) Dipole Moment


------------------------------------------------------------------------------
                       ORCA ELECTRIC PROPERTIES CALCULATION
------------------------------------------------------------------------------

Dipole Moment Calculation                       ... on
Quadrupole Moment Calculation                   ... off
Polarizability Calculation                      ... off
GBWName                                         ... lactone_kation.gbw
Electron density                                ... lactone_kation.scfp
The origin for moment calculation is the CENTER OF MASS  = (-1.895214,  3.627290 -0.209845)

-------------
DIPOLE MOMENT
-------------
                                X             Y             Z
Electronic contribution:      5.08990      -3.78961      -0.74383
Nuclear contribution   :     -5.63513       4.78017       1.01678
                        -----------------------------------------
Total Dipole Moment    :     -0.54523       0.99056       0.27295
                        -----------------------------------------
Magnitude (a.u.)       :      1.16318
Magnitude (Debye)      :      2.95658



--------------------
Rotational spectrum 
--------------------
 
Rotational constants in cm-1:     0.242899     0.119204     0.085243 
Rotational constants in MHz :  7281.918709  3573.634312  2555.522165 

 Dipole components along the rotational axes: 
x,y,z [a.u.] :     0.834835     0.788726     0.184276 
x,y,z [Debye]:     2.121982     2.004781     0.468392 

 

Timings for individual modules:

Sum of individual times         ...      236.046 sec (=   3.934 min)
GTO integral calculation        ...        2.468 sec (=   0.041 min)   1.0 %
SCF iterations                  ...      233.578 sec (=   3.893 min)  99.0 %
                             ****ORCA TERMINATED NORMALLY****
TOTAL RUN TIME: 0 days 0 hours 3 minutes 56 seconds 736 msec
