
                                 *****************
                                 * O   R   C   A *
                                 *****************

                                            #,                                       
                                            ###                                      
                                            ####                                     
                                            #####                                    
                                            ######                                   
                                           ########,                                 
                                     ,,################,,,,,                         
                               ,,#################################,,                 
                          ,,##########################################,,             
                       ,#########################################, ''#####,          
                    ,#############################################,,   '####,        
                  ,##################################################,,,,####,       
                ,###########''''           ''''###############################       
              ,#####''   ,,,,##########,,,,          '''####'''          '####       
            ,##' ,,,,###########################,,,                        '##       
           ' ,,###''''                  '''############,,,                           
         ,,##''                                '''############,,,,        ,,,,,,###''
      ,#''                                            '''#######################'''  
     '                                                          ''''####''''         
             ,#######,   #######,   ,#######,      ##                                
            ,#'     '#,  ##    ##  ,#'     '#,    #''#        ######   ,####,        
            ##       ##  ##   ,#'  ##            #'  '#       #        #'  '#        
            ##       ##  #######   ##           ,######,      #####,   #    #        
            '#,     ,#'  ##    ##  '#,     ,#' ,#      #,         ##   #,  ,#        
             '#######'   ##     ##  '#######'  #'      '#     #####' # '####'        



                  #######################################################
                  #                        -***-                        #
                  #          Department of theory and spectroscopy      #
                  #    Directorship and core code : Frank Neese         #
                  #        Max Planck Institute fuer Kohlenforschung    #
                  #                Kaiser Wilhelm Platz 1               #
                  #                 D-45470 Muelheim/Ruhr               #
                  #                      Germany                        #
                  #                                                     #
                  #                  All rights reserved                #
                  #                        -***-                        #
                  #######################################################



                         Program Version 5.0.4 -  RELEASE  -

 With contributions from (in alphabetic order):
   Daniel Aravena         : Magnetic Suceptibility
   Michael Atanasov       : Ab Initio Ligand Field Theory (pilot matlab implementation)
   Alexander A. Auer      : GIAO ZORA, VPT2 properties, NMR spectrum
   Ute Becker             : Parallelization
   Giovanni Bistoni       : ED, misc. LED, open-shell LED, HFLD
   Martin Brehm           : Molecular dynamics
   Dmytro Bykov           : SCF Hessian
   Vijay G. Chilkuri      : MRCI spin determinant printing, contributions to CSF-ICE
   Dipayan Datta          : RHF DLPNO-CCSD density
   Achintya Kumar Dutta   : EOM-CC, STEOM-CC
   Dmitry Ganyushin       : Spin-Orbit,Spin-Spin,Magnetic field MRCI
   Miquel Garcia          : C-PCM and meta-GGA Hessian, CC/C-PCM, Gaussian charge scheme
   Yang Guo               : DLPNO-NEVPT2, F12-NEVPT2, CIM, IAO-localization
   Andreas Hansen         : Spin unrestricted coupled pair/coupled cluster methods
   Benjamin Helmich-Paris : MC-RPA, TRAH-SCF, COSX integrals
   Lee Huntington         : MR-EOM, pCC
   Robert Izsak           : Overlap fitted RIJCOSX, COSX-SCS-MP3, EOM
   Marcus Kettner         : VPT2
   Christian Kollmar      : KDIIS, OOCD, Brueckner-CCSD(T), CCSD density, CASPT2, CASPT2-K
   Simone Kossmann        : Meta GGA functionals, TD-DFT gradient, OOMP2, MP2 Hessian
   Martin Krupicka        : Initial AUTO-CI
   Lucas Lang             : DCDCAS
   Marvin Lechner         : AUTO-CI (C++ implementation), FIC-MRCC
   Dagmar Lenk            : GEPOL surface, SMD
   Dimitrios Liakos       : Extrapolation schemes; Compound Job, initial MDCI parallelization
   Dimitrios Manganas     : Further ROCIS development; embedding schemes
   Dimitrios Pantazis     : SARC Basis sets
   Anastasios Papadopoulos: AUTO-CI, single reference methods and gradients
   Taras Petrenko         : DFT Hessian,TD-DFT gradient, ASA, ECA, R-Raman, ABS, FL, XAS/XES, NRVS
   Peter Pinski           : DLPNO-MP2, DLPNO-MP2 Gradient
   Christoph Reimann      : Effective Core Potentials
   Marius Retegan         : Local ZFS, SOC
   Christoph Riplinger    : Optimizer, TS searches, QM/MM, DLPNO-CCSD(T), (RO)-DLPNO pert. Triples
   Tobias Risthaus        : Range-separated hybrids, TD-DFT gradient, RPA, STAB
   Michael Roemelt        : Original ROCIS implementation
   Masaaki Saitow         : Open-shell DLPNO-CCSD energy and density
   Barbara Sandhoefer     : DKH picture change effects
   Avijit Sen             : IP-ROCIS
   Kantharuban Sivalingam : CASSCF convergence, NEVPT2, FIC-MRCI
   Bernardo de Souza      : ESD, SOC TD-DFT
   Georgi Stoychev        : AutoAux, RI-MP2 NMR, DLPNO-MP2 response
   Willem Van den Heuvel  : Paramagnetic NMR
   Boris Wezisla          : Elementary symmetry handling
   Frank Wennmohs         : Technical directorship


 We gratefully acknowledge several colleagues who have allowed us to
 interface, adapt or use parts of their codes:
   Stefan Grimme, W. Hujo, H. Kruse, P. Pracht,  : VdW corrections, initial TS optimization,
                  C. Bannwarth, S. Ehlert          DFT functionals, gCP, sTDA/sTD-DF
   Ed Valeev, F. Pavosevic, A. Kumar             : LibInt (2-el integral package), F12 methods
   Garnet Chan, S. Sharma, J. Yang, R. Olivares  : DMRG
   Ulf Ekstrom                                   : XCFun DFT Library
   Mihaly Kallay                                 : mrcc  (arbitrary order and MRCC methods)
   Jiri Pittner, Ondrej Demel                    : Mk-CCSD
   Frank Weinhold                                : gennbo (NPA and NBO analysis)
   Christopher J. Cramer and Donald G. Truhlar   : smd solvation model
   Lars Goerigk                                  : TD-DFT with DH, B97 family of functionals
   V. Asgeirsson, H. Jonsson                     : NEB implementation
   FAccTs GmbH                                   : IRC, NEB, NEB-TS, DLPNO-Multilevel, CI-OPT
                                                   MM, QMMM, 2- and 3-layer-ONIOM, Crystal-QMMM,
                                                   LR-CPCM, SF, NACMEs, symmetry and pop. for TD-DFT,
                                                   nearIR, NL-DFT gradient (VV10), updates on ESD,
                                                   ML-optimized integration grids
   S Lehtola, MJT Oliveira, MAL Marques          : LibXC Library
   Liviu Ungur et al                             : ANISO software


 Your calculation uses the libint2 library for the computation of 2-el integrals
 For citations please refer to: http://libint.valeyev.net

 Your ORCA version has been built with support for libXC version: 5.1.0
 For citations please refer to: https://tddft.org/programs/libxc/

 This ORCA versions uses:
   CBLAS   interface :  Fast vector & matrix operations
   LAPACKE interface :  Fast linear algebra routines
   Shared memory     :  Shared parallel matrices


Your calculation utilizes the atom-pairwise dispersion correction
based on tight binding partial charges (D4)
Cite in your paper:
E.Caldeweyher, C.Bannwarth, S.Grimme, J.Chem.Phys., (2017), 147, 034112.
E.Caldeweyher, S.Ehlert, A.Hansen, H.Neugebauer, S.Grimme, J.Chem.Phys., (2018), in progress.
   

================================================================================

----- Orbital basis set information -----
Your calculation utilizes the basis: def2-TZVP
   F. Weigend and R. Ahlrichs, Phys. Chem. Chem. Phys. 7, 3297 (2005).

----- AuxJ basis set information -----
Your calculation utilizes the auxiliary basis: def2/J
   F. Weigend, Phys. Chem. Chem. Phys. 8, 1057 (2006).

================================================================================
                                        WARNINGS
                       Please study these warnings very carefully!
================================================================================


WARNING: Geometry Optimization
  ===> : Switching off AutoStart
         For restart on a previous wavefunction, please use MOREAD

INFO   : the flag for use of the SHARK integral package has been found!

================================================================================
                                       INPUT FILE
================================================================================
NAME = Fe_O2_Porphyrin_opt.inp
|  1> !B3LYP DEF2-TZVP OPT CPCM(CH2CL2) D4
|  2> 
|  3> * xyz 0 1
|  4>    C        4.10563        1.65677        0.15322
|  5>    C        4.55192        0.42318       -0.27137
|  6>    C        3.36423       -0.41588       -0.29816
|  7>    C        2.64846        1.53323        0.35512
|  8>    N        2.25321        0.35165        0.08344
|  9>    C        1.74367        2.63265        0.76124
| 10>    C        0.38991        2.59470        0.87559
| 11>    N       -0.43919        1.52974        0.69037
| 12>    C       -1.70572        1.97367        0.86306
| 13>    C       -0.35594        3.71265        1.18498
| 14>    C       -1.68151        3.32953        1.15846
| 15>    C       -2.83262        1.22839        0.78448
| 16>    C       -2.88449       -0.24312        0.55768
| 17>    N       -1.85239       -0.97005        0.35684
| 18>    C       -3.67672       -2.38936        0.45390
| 19>    C       -4.09238       -1.07886        0.61388
| 20>    C        0.06432       -3.25237       -0.23745
| 21>    N        0.82667       -2.12964       -0.28440
| 22>    C        2.09752       -2.53961       -0.53886
| 23>    C        2.13899       -3.91183       -0.64510
| 24>    C        0.85634       -4.36474       -0.44905
| 25>    C        3.32352       -1.71477       -0.59305
| 26>    C       -1.40037       -3.34793        0.03028
| 27>    C       -2.23229       -2.31702        0.26504
| 28>    H        4.72712        2.53134        0.29376
| 29>    H        5.57171        0.14831       -0.51569
| 30>    H        2.24446        3.57968        0.94737
| 31>    H        0.02885        4.70588        1.38592
| 32>    H       -2.52528        3.97907        1.34800
| 33>    H       -3.78422        1.72686        0.94738
| 34>    H       -4.30579       -3.27040        0.45107
| 35>    H       -5.11172       -0.75094        0.76545
| 36>    H        3.02163       -4.51894       -0.79718
| 37>    H        0.54460       -5.40016       -0.42881
| 38>    H        4.25626       -2.21326       -0.84464
| 39>    H       -1.83302       -4.34496        0.00286
| 40>   Fe        0.16124       -0.30234        0.20682
| 41>    N        1.70100        0.84687        6.36173
| 42>    C        0.33686        0.37482        6.58779
| 43>    C        0.15597        0.07281        8.05890
| 44>    O        0.94301       -0.85610        8.65154
| 45>    O       -0.69313        0.65905        8.71248
| 46>    C        0.03901       -0.90080        5.79116
| 47>    H       -1.04827       -1.12812        5.86237
| 48>    H        0.57442       -1.75074        6.26904
| 49>    C        0.45055       -0.92725        4.34448
| 50>    N        1.25377       -1.89823        3.88866
| 51>    C        1.27041       -1.77136        2.56557
| 52>    H        1.81147       -2.45136        1.94052
| 53>    N        0.53587       -0.72524        2.14393
| 54>    C        0.05560       -0.13705        3.26649
| 55>    H       -0.62981        0.70093        3.28541
| 56>    H        1.72400       -2.65227        4.43407
| 57>    H        1.78907        1.18097        5.37489
| 58>    H        2.38258        0.06852        6.51630
| 59>    H       -0.37374        1.17042        6.27006
| 60>    H        0.86523       -1.07725        9.59042
| 61>    O       -0.75368        1.06742       -1.93269
| 62>    O       -0.19775        0.10446       -1.62485
| 63> **                         ****END OF INPUT****
================================================================================

                       *****************************
                       * Geometry Optimization Run *
                       *****************************

Geometry optimization settings:
Update method            Update   .... BFGS
Choice of coordinates    CoordSys .... Z-matrix Internals
Initial Hessian          InHess   .... Almoef's Model

Convergence Tolerances:
Energy Change            TolE     ....  5.0000e-06 Eh
Max. Gradient            TolMAXG  ....  3.0000e-04 Eh/bohr
RMS Gradient             TolRMSG  ....  1.0000e-04 Eh/bohr
Max. Displacement        TolMAXD  ....  4.0000e-03 bohr
RMS Displacement         TolRMSD  ....  2.0000e-03 bohr
Strict Convergence                ....  False
------------------------------------------------------------------------------
                        ORCA OPTIMIZATION COORDINATE SETUP
------------------------------------------------------------------------------

The optimization will be done in new redundant internal coordinates
Making redundant internal coordinates   ...  (new redundants) done
Evaluating the initial hessian          ...  (Almloef) done
Evaluating the coordinates              ...  done
Calculating the B-matrix                .... done
Calculating the G-matrix                .... done
Diagonalizing the G-matrix              .... done
Small eigenvalue found = 2.378e-03
Small eigenvalue found = 4.865e-03
Small eigenvalue found = 1.262e-02
Small eigenvalue found = 1.905e-02
Small eigenvalue found = 2.652e-02
Small eigenvalue found = 2.979e-02
The first mode is                       ....  253
The number of degrees of freedom        ....  171

    -----------------------------------------------------------------
                    Redundant Internal Coordinates


    -----------------------------------------------------------------
         Definition                    Initial Value    Approx d2E/dq
    -----------------------------------------------------------------
      1. B(C   1,C   0)                  1.3788         0.650947   
      2. B(C   2,C   1)                  1.4544         0.493123   
      3. B(C   3,C   0)                  1.4763         0.455095   
      4. B(N   4,C   2)                  1.4032         0.533028   
      5. B(N   4,C   3)                  1.2752         0.853127   
      6. B(C   5,C   3)                  1.4806         0.447841   
      7. B(C   6,C   5)                  1.3591         0.699875   
      8. B(N   7,C   6)                  1.3623         0.619546   
      9. B(C   8,N   7)                  1.3531         0.640737   
     10. B(C   9,C   6)                  1.3791         0.650401   
     11. B(C  10,C   9)                  1.3801         0.647986   
     12. B(C  10,C   8)                  1.3879         0.629687   
     13. B(C  11,C   8)                  1.3533         0.714878   
     14. B(C  12,C  11)                  1.4898         0.433044   
     15. B(N  13,C  12)                  1.2783         0.843570   
     16. B(C  15,C  12)                  1.4699         0.465861   
     17. B(C  15,C  14)                  1.3841         0.638449   
     18. B(N  17,C  16)                  1.3579         0.629625   
     19. B(C  18,N  17)                  1.3594         0.626246   
     20. B(C  19,C  18)                  1.3770         0.655477   
     21. B(C  20,C  19)                  1.3743         0.661844   
     22. B(C  20,C  16)                  1.3818         0.643848   
     23. B(C  21,C  18)                  1.4786         0.451150   
     24. B(C  21,C   2)                  1.3326         0.771561   
     25. B(C  22,C  16)                  1.4920         0.429507   
     26. B(C  23,C  22)                  1.3454         0.736152   
     27. B(C  23,C  14)                  1.4585         0.485758   
     28. B(C  23,N  13)                  1.4025         0.534430   
     29. B(H  24,C   0)                  1.0821         0.370746   
     30. B(H  25,C   1)                  1.0841         0.368025   
     31. B(H  26,C   5)                  1.0873         0.363641   
     32. B(H  27,C   9)                  1.0839         0.368194   
     33. B(H  28,C  10)                  1.0816         0.371438   
     34. B(H  29,C  11)                  1.0865         0.364717   
     35. B(H  30,C  14)                  1.0826         0.370058   
     36. B(H  31,C  15)                  1.0815         0.371574   
     37. B(H  32,C  19)                  1.0820         0.370815   
     38. B(H  33,C  20)                  1.0815         0.371494   
     39. B(H  34,C  21)                  1.0871         0.363952   
     40. B(H  35,C  22)                  1.0872         0.363821   
     41. B(Fe 36,N  17)                  2.0058         0.589625   
     42. B(Fe 36,N  13)                  2.1267         0.378067   
     43. B(Fe 36,N   7)                  1.9877         0.630155   
     44. B(Fe 36,N   4)                  2.1953         0.293916   
     45. B(C  38,N  37)                  1.4611         0.430963   
     46. B(C  39,C  38)                  1.5126         0.398167   
     47. B(O  40,C  39)                  1.3541         0.638537   
     48. B(O  41,C  39)                  1.2214         1.039604   
     49. B(C  42,C  38)                  1.5331         0.369280   
     50. B(H  43,C  42)                  1.1131         0.330840   
     51. B(H  44,C  42)                  1.1124         0.331656   
     52. B(C  45,C  42)                  1.5043         0.410549   
     53. B(N  46,C  45)                  1.3401         0.672305   
     54. B(C  47,N  46)                  1.3293         0.699484   
     55. B(H  48,C  47)                  1.0704         0.386933   
     56. B(N  49,C  47)                  1.3460         0.657789   
     57. B(N  49,Fe 36)                  2.0178         0.564102   
     58. B(C  50,N  49)                  1.3553         0.635739   
     59. B(C  50,C  45)                  1.3937         0.616309   
     60. B(H  51,C  50)                  1.0828         0.369815   
     61. B(H  52,N  46)                  1.0427         0.383768   
     62. B(H  53,N  37)                  1.0456         0.379694   
     63. B(H  54,N  37)                  1.0461         0.379001   
     64. B(H  55,C  38)                  1.1131         0.330861   
     65. B(H  56,O  40)                  0.9677         0.505445   
     66. B(O  57,Fe 36)                  2.7002         0.045998   
     67. B(O  58,O  57)                  1.1537         1.193852   
     68. B(O  58,Fe 36)                  1.9103         0.837223   
     69. A(C   3,C   0,H  24)          128.0826         0.336698   
     70. A(C   1,C   0,H  24)          125.2532         0.357600   
     71. A(C   1,C   0,C   3)          106.6622         0.414308   
     72. A(C   2,C   1,H  25)          128.1524         0.340819   
     73. A(C   0,C   1,C   2)          104.9212         0.420271   
     74. A(C   0,C   1,H  25)          126.9215         0.357152   
     75. A(N   4,C   2,C  21)          124.6901         0.436499   
     76. A(C   1,C   2,C  21)          126.2526         0.433265   
     77. A(C   1,C   2,N   4)          109.0257         0.403015   
     78. A(C   0,C   3,C   5)          125.3485         0.387905   
     79. A(C   0,C   3,N   4)          110.7531         0.432000   
     80. A(N   4,C   3,C   5)          123.8515         0.430755   
     81. A(C   2,N   4,C   3)          108.6232         0.441568   
     82. A(C   3,N   4,Fe 36)          124.0158         0.445724   
     83. A(C   2,N   4,Fe 36)          127.3606         0.409701   
     84. A(C   3,C   5,C   6)          127.6631         0.418488   
     85. A(C   3,C   5,H  26)          114.3447         0.334721   
     86. A(C   6,C   5,H  26)          117.9480         0.360849   
     87. A(N   7,C   6,C   9)          109.5767         0.434897   
     88. A(C   5,C   6,C   9)          122.3403         0.447525   
     89. A(C   5,C   6,N   7)          128.0681         0.440685   
     90. A(C   6,N   7,C   8)          107.2073         0.430891   
     91. A(C   8,N   7,Fe 36)          128.0377         0.486338   
     92. A(C   6,N   7,Fe 36)          124.7345         0.483325   
     93. A(N   7,C   8,C  10)          109.3502         0.434997   
     94. A(C  10,C   8,C  11)          124.3938         0.446621   
     95. A(N   7,C   8,C  11)          126.2496         0.445078   
     96. A(C  10,C   9,H  27)          126.7914         0.356904   
     97. A(C   6,C   9,C  10)          106.8651         0.441328   
     98. A(C   6,C   9,H  27)          126.3281         0.357129   
     99. A(C   8,C  10,H  28)          127.6180         0.355701   
    100. A(C   9,C  10,H  28)          125.3971         0.357436   
    101. A(C   8,C  10,C   9)          106.9806         0.438757   
    102. A(C   8,C  11,H  29)          117.8997         0.362340   
    103. A(C  12,C  11,H  29)          116.4537         0.333022   
    104. A(C   8,C  11,C  12)          125.5753         0.417566   
    105. A(N  13,C  12,C  15)          110.2530         0.432942   
    106. A(C  11,C  12,C  15)          125.7593         0.387215   
    107. A(C  11,C  12,N  13)          123.8837         0.427302   
    108. A(C  23,N  13,Fe 36)          123.5983         0.428709   
    109. A(C  12,N  13,C  23)          109.7389         0.440880   
    110. A(C  12,N  13,Fe 36)          126.6562         0.465682   
    111. A(C  23,C  14,H  30)          127.9882         0.340275   
    112. A(C  15,C  14,H  30)          126.6089         0.356311   
    113. A(C  15,C  14,C  23)          105.3915         0.417700   
    114. A(C  12,C  15,H  31)          127.4091         0.338139   
    115. A(C  14,C  15,H  31)          125.8983         0.356559   
    116. A(C  12,C  15,C  14)          106.6863         0.414603   
    117. A(N  17,C  16,C  20)          109.7856         0.435368   
    118. A(C  20,C  16,C  22)          122.5877         0.409279   
    119. A(N  17,C  16,C  22)          127.6106         0.405042   
    120. A(C  16,N  17,C  18)          106.3780         0.430370   
    121. A(C  18,N  17,Fe 36)          129.1056         0.478383   
    122. A(C  16,N  17,Fe 36)          123.9535         0.478857   
    123. A(C  19,C  18,C  21)          121.8786         0.414178   
    124. A(N  17,C  18,C  21)          127.8627         0.408189   
    125. A(N  17,C  18,C  19)          110.0690         0.436351   
    126. A(C  18,C  19,C  20)          106.8164         0.443643   
    127. A(C  18,C  19,H  32)          126.4823         0.358033   
    128. A(C  20,C  19,H  32)          126.6172         0.358622   
    129. A(C  19,C  20,H  33)          125.9579         0.358734   
    130. A(C  16,C  20,H  33)          127.0571         0.357056   
    131. A(C  16,C  20,C  19)          106.9474         0.442209   
    132. A(C  18,C  21,H  34)          117.6515         0.335178   
    133. A(C   2,C  21,H  34)          118.1618         0.366970   
    134. A(C   2,C  21,C  18)          124.1222         0.426403   
    135. A(C  16,C  22,H  35)          116.4149         0.332434   
    136. A(C  16,C  22,C  23)          126.1053         0.419140   
    137. A(C  23,C  22,H  35)          117.4545         0.364007   
    138. A(C  14,C  23,C  22)          126.6540         0.428466   
    139. A(N  13,C  23,C  22)          125.4398         0.433028   
    140. A(N  13,C  23,C  14)          107.9032         0.402133   
    141. A(O  57,Fe 36,O  58)           21.3397         0.359255   
    142. A(N  13,Fe 36,O  58)           87.5107         0.524347   
    143. A(N   7,Fe 36,O  58)           88.8662         0.577714   
    144. A(N   4,Fe 36,O  58)           93.5403         0.500232   
    145. A(N  17,Fe 36,O  57)          112.3654         0.338638   
    146. A(N  13,Fe 36,O  57)           83.9350         0.314749   
    147. A(N   7,Fe 36,O  57)           67.8413         0.342423   
    148. A(N   4,Fe 36,O  57)           97.3099         0.302244   
    149. A(N  17,Fe 36,N  49)           89.0018         0.529258   
    150. A(N  17,Fe 36,O  58)           91.2334         0.570416   
    151. A(N  13,Fe 36,N  49)           92.4225         0.487128   
    152. A(N   7,Fe 36,N  49)           90.9005         0.535932   
    153. A(N   4,Fe 36,N  49)           86.5296         0.465074   
    154. A(N  49,Fe 36,O  57)          158.4196         0.336150   
    155. A(N  13,Fe 36,N  17)           92.6001         0.491135   
    156. A(N   4,Fe 36,N  17)           86.6457         0.468860   
    157. A(N   7,Fe 36,N  13)           89.2100         0.497232   
    158. A(N   4,Fe 36,N   7)           91.5441         0.474619   
    159. A(H  53,N  37,H  54)          108.8043         0.290865   
    160. A(C  38,N  37,H  54)          110.1859         0.330020   
    161. A(C  38,N  37,H  53)          109.1416         0.330120   
    162. A(C  42,C  38,H  55)          108.8064         0.319248   
    163. A(C  39,C  38,H  55)          110.1200         0.323207   
    164. A(N  37,C  38,H  55)          108.7209         0.325478   
    165. A(C  39,C  38,C  42)          108.4203         0.366612   
    166. A(N  37,C  38,C  42)          111.7032         0.369304   
    167. A(N  37,C  38,C  39)          109.0641         0.374123   
    168. A(O  40,C  39,O  41)          119.9427         0.473086   
    169. A(C  38,C  39,O  41)          120.5120         0.437009   
    170. A(C  38,C  39,O  40)          119.5453         0.400659   
    171. A(C  39,O  40,H  56)          122.3229         0.370190   
    172. A(H  44,C  42,C  45)          105.5470         0.324964   
    173. A(H  43,C  42,C  45)          108.9759         0.324832   
    174. A(C  38,C  42,C  45)          117.4633         0.368542   
    175. A(H  43,C  42,H  44)          106.6565         0.283351   
    176. A(C  38,C  42,H  44)          108.6021         0.319373   
    177. A(C  38,C  42,H  43)          109.0536         0.319245   
    178. A(N  46,C  45,C  50)          108.5166         0.437087   
    179. A(C  42,C  45,C  50)          131.0210         0.402902   
    180. A(C  42,C  45,N  46)          120.2543         0.406508   
    181. A(C  47,N  46,H  52)          125.7350         0.358705   
    182. A(C  45,N  46,H  52)          128.0533         0.356297   
    183. A(C  45,N  46,C  47)          106.0763         0.444258   
    184. A(H  48,C  47,N  49)          125.9197         0.358616   
    185. A(N  46,C  47,N  49)          112.2810         0.442507   
    186. A(N  46,C  47,H  48)          121.7966         0.362393   
    187. A(C  47,N  49,C  50)          105.7376         0.434943   
    188. A(Fe 36,N  49,C  50)          129.6733         0.475817   
    189. A(Fe 36,N  49,C  47)          124.3978         0.478814   
    190. A(N  49,C  50,H  51)          125.0777         0.353817   
    191. A(C  45,C  50,H  51)          127.2049         0.354145   
    192. A(C  45,C  50,N  49)          107.1074         0.432709   
    193. A(Fe 36,O  57,O  58)           37.0515         0.339837   
    194. A(Fe 36,O  58,O  57)          121.6088         0.572727   
    195. D(C   2,C   1,C   0,H  24)    179.7350         0.029509   
    196. D(H  25,C   1,C   0,H  24)      0.4874         0.029509   
    197. D(C   2,C   1,C   0,C   3)     -0.7481         0.029509   
    198. D(H  25,C   1,C   0,C   3)   -179.9956         0.029509   
    199. D(N   4,C   2,C   1,H  25)   -179.5762         0.016559   
    200. D(C  21,C   2,C   1,C   0)   -176.8369         0.016559   
    201. D(C  21,C   2,C   1,H  25)      2.3981         0.016559   
    202. D(N   4,C   2,C   1,C   0)      1.1888         0.016559   
    203. D(N   4,C   3,C   0,C   1)      0.0509         0.014113   
    204. D(C   5,C   3,C   0,C   1)   -177.5288         0.014113   
    205. D(N   4,C   3,C   0,H  24)    179.5497         0.014113   
    206. D(C   5,C   3,C   0,H  24)      1.9700         0.014113   
    207. D(Fe 36,N   4,C   2,C   1)    178.5797         0.022574   
    208. D(Fe 36,N   4,C   3,C   0)   -179.0739         0.063076   
    209. D(C   3,N   4,C   2,C  21)    176.8678         0.022574   
    210. D(Fe 36,N   4,C   2,C  21)     -3.3566         0.022574   
    211. D(Fe 36,N   4,C   3,C   5)     -1.4509         0.063076   
    212. D(C   2,N   4,C   3,C   5)    178.3339         0.063076   
    213. D(C   3,N   4,C   2,C   1)     -1.1959         0.022574   
    214. D(C   2,N   4,C   3,C   0)      0.7110         0.063076   
    215. D(H  26,C   5,C   3,N   4)   -179.4759         0.013674   
    216. D(H  26,C   5,C   3,C   0)     -2.2014         0.013674   
    217. D(C   6,C   5,C   3,C   0)    175.3076         0.013674   
    218. D(C   6,C   5,C   3,N   4)     -1.9669         0.013674   
    219. D(C   9,C   6,C   5,H  26)      1.5438         0.034497   
    220. D(N   7,C   6,C   5,H  26)    179.9896         0.034497   
    221. D(C   9,C   6,C   5,C   3)   -175.8870         0.034497   
    222. D(N   7,C   6,C   5,C   3)      2.5588         0.034497   
    223. D(Fe 36,N   7,C   6,C   5)      0.6858         0.031078   
    224. D(C   8,N   7,C   6,C   5)   -177.7794         0.031078   
    225. D(C   8,N   7,C   6,C   9)      0.8269         0.031078   
    226. D(Fe 36,N   7,C   6,C   9)    179.2920         0.031078   
    227. D(C  10,C   8,N   7,C   6)      0.0639         0.033422   
    228. D(C  11,C   8,N   7,C   6)   -179.0447         0.033422   
    229. D(C  11,C   8,N   7,Fe 36)      2.5568         0.033422   
    230. D(C  10,C   8,N   7,Fe 36)   -178.3346         0.033422   
    231. D(H  27,C   9,C   6,N   7)    179.9639         0.029456   
    232. D(H  27,C   9,C   6,C   5)     -1.3347         0.029456   
    233. D(C  10,C   9,C   6,N   7)     -1.3903         0.029456   
    234. D(C  10,C   9,C   6,C   5)    177.3111         0.029456   
    235. D(H  28,C  10,C   9,C   6)   -179.3153         0.029223   
    236. D(H  28,C  10,C   9,H  27)     -0.6776         0.029223   
    237. D(C   8,C  10,C   9,H  27)   -179.9744         0.029223   
    238. D(C   8,C  10,C   9,C   6)      1.3880         0.029223   
    239. D(H  28,C  10,C   8,C  11)     -1.0645         0.027490   
    240. D(C   9,C  10,C   8,C  11)    178.2118         0.027490   
    241. D(H  28,C  10,C   8,N   7)    179.8067         0.027490   
    242. D(C   9,C  10,C   8,N   7)     -0.9170         0.027490   
    243. D(H  29,C  11,C   8,C  10)      1.0449         0.036124   
    244. D(C  12,C  11,C   8,C  10)   -175.7643         0.036124   
    245. D(C  12,C  11,C   8,N   7)      3.2165         0.036124   
    246. D(H  29,C  11,C   8,N   7)   -179.9744         0.036124   
    247. D(C  15,C  12,C  11,H  29)     -3.8011         0.012807   
    248. D(C  15,C  12,C  11,C   8)    173.0492         0.012807   
    249. D(N  13,C  12,C  11,H  29)   -179.7271         0.012807   
    250. D(N  13,C  12,C  11,C   8)     -2.8768         0.012807   
    251. D(C  23,N  13,C  12,C  15)     -0.2354         0.061489   
    252. D(C  23,N  13,C  12,C  11)    176.2415         0.061489   
    253. D(C  23,N  13,N   4,C   3)   -169.3045         0.001500   
    254. D(C  12,N  13,N   4,C   3)      8.9785         0.001500   
    255. D(C  12,N  13,N   4,C   2)   -171.5281         0.001500   
    256. D(Fe 36,N  13,C  12,C  11)     -2.8397         0.061489   
    257. D(C  23,N  13,N   4,C   2)     10.1888         0.001500   
    258. D(Fe 36,N  13,C  12,C  15)   -179.3166         0.061489   
    259. D(H  31,C  15,C  14,C  23)    179.2389         0.028312   
    260. D(H  31,C  15,C  14,H  30)      0.3904         0.028312   
    261. D(C  12,C  15,C  14,H  30)    179.5342         0.028312   
    262. D(C  12,C  15,C  14,C  23)     -1.6173         0.028312   
    263. D(H  31,C  15,C  12,N  13)   -179.6426         0.014780   
    264. D(H  31,C  15,C  12,C  11)      3.9617         0.014780   
    265. D(C  14,C  15,C  12,N  13)      1.2305         0.014780   
    266. D(C  14,C  15,C  12,C  11)   -175.1651         0.014780   
    267. D(Fe 36,N  17,C  16,C  22)      7.0484         0.032180   
    268. D(C  18,N  17,N   7,C   8)    175.3146         0.001500   
    269. D(C  16,N  17,N   7,C   8)    -14.5935         0.001500   
    270. D(C  18,N  17,N   7,C   6)     -2.7278         0.001500   
    271. D(C  18,N  17,C  16,C  20)      0.5694         0.032180   
    272. D(C  16,N  17,N   7,C   6)    167.3640         0.001500   
    273. D(Fe 36,N  17,C  16,C  20)   -171.5097         0.032180   
    274. D(C  18,N  17,C  16,C  22)    179.1275         0.032180   
    275. D(C  21,C  18,N  17,Fe 36)     -3.7875         0.031807   
    276. D(C  21,C  18,N  17,C  16)   -175.3165         0.031807   
    277. D(C  19,C  18,N  17,Fe 36)    171.2245         0.031807   
    278. D(C  19,C  18,N  17,C  16)     -0.3045         0.031807   
    279. D(H  32,C  19,C  18,C  21)     -1.5376         0.029951   
    280. D(H  32,C  19,C  18,N  17)   -176.9010         0.029951   
    281. D(C  20,C  19,C  18,C  21)    175.2910         0.029951   
    282. D(C  20,C  19,C  18,N  17)     -0.0724         0.029951   
    283. D(H  33,C  20,C  19,H  32)     -0.6537         0.030579   
    284. D(H  33,C  20,C  19,C  18)   -177.4767         0.030579   
    285. D(C  16,C  20,C  19,H  32)    177.2373         0.030579   
    286. D(C  16,C  20,C  19,C  18)      0.4143         0.030579   
    287. D(H  33,C  20,C  16,C  22)     -1.4031         0.028825   
    288. D(H  33,C  20,C  16,N  17)    177.2413         0.028825   
    289. D(C  19,C  20,C  16,C  22)   -179.2639         0.028825   
    290. D(C  19,C  20,C  16,N  17)     -0.6196         0.028825   
    291. D(H  34,C  21,C  18,C  19)      7.4880         0.013873   
    292. D(H  34,C  21,C  18,N  17)   -178.0308         0.013873   
    293. D(C   2,C  21,C  18,C  19)   -169.5320         0.013873   
    294. D(C   2,C  21,C  18,N  17)      4.9492         0.013873   
    295. D(H  34,C  21,C   2,N   4)   -178.0034         0.042694   
    296. D(H  34,C  21,C   2,C   1)     -0.2735         0.042694   
    297. D(C  18,C  21,C   2,N   4)     -0.9975         0.042694   
    298. D(C  18,C  21,C   2,C   1)    176.7324         0.042694   
    299. D(H  35,C  22,C  16,C  20)     -2.9401         0.012605   
    300. D(H  35,C  22,C  16,N  17)    178.6702         0.012605   
    301. D(C  23,C  22,C  16,C  20)    178.9448         0.012605   
    302. D(C  23,C  22,C  16,N  17)      0.5552         0.012605   
    303. D(C  14,C  23,C  22,H  35)     -1.7875         0.038511   
    304. D(N  13,C  23,C  22,H  35)    178.9285         0.038511   
    305. D(N  13,C  23,C  22,C  16)     -2.9739         0.038511   
    306. D(C  22,C  23,C  14,H  30)      0.9720         0.016066   
    307. D(C  22,C  23,C  14,C  15)   -177.8552         0.016066   
    308. D(N  13,C  23,C  14,H  30)   -179.6411         0.016066   
    309. D(N  13,C  23,C  14,C  15)      1.5317         0.016066   
    310. D(C  22,C  23,N  13,Fe 36)     -2.2891         0.022699   
    311. D(C  22,C  23,N  13,C  12)    178.5959         0.022699   
    312. D(C  14,C  23,C  22,C  16)    176.3100         0.038511   
    313. D(C  14,C  23,N  13,Fe 36)    178.3146         0.022699   
    314. D(C  14,C  23,N  13,C  12)     -0.8005         0.022699   
    315. D(N  49,Fe 36,N   4,C   3)    -87.6439         0.001988   
    316. D(N  49,Fe 36,N   4,C   2)     92.6127         0.001988   
    317. D(N  17,Fe 36,N   4,C   3)   -176.8458         0.001988   
    318. D(N  17,Fe 36,N   4,C   2)      3.4108         0.001988   
    319. D(N   7,Fe 36,N   4,C   3)      3.1650         0.001988   
    320. D(O  57,Fe 36,N   4,C   2)   -108.7230         0.001988   
    321. D(N   7,Fe 36,N   4,C   2)   -176.5785         0.001988   
    322. D(O  58,Fe 36,N  17,C  18)     93.4619         0.003441   
    323. D(O  57,Fe 36,N  17,C  18)     96.5162         0.003441   
    324. D(O  57,Fe 36,N  17,C  16)    -93.2939         0.003441   
    325. D(N  49,Fe 36,N  17,C  18)    -86.5945         0.003441   
    326. D(N  13,Fe 36,N  17,C  18)   -178.9745         0.003441   
    327. D(N  13,Fe 36,N  17,C  16)     -8.7846         0.003441   
    328. D(N   4,Fe 36,N  17,C  18)     -0.0128         0.003441   
    329. D(O  58,Fe 36,N  13,C  23)     97.9356         0.002301   
    330. D(O  58,Fe 36,N  13,C  12)    -83.1027         0.002301   
    331. D(O  57,Fe 36,N  13,C  23)    119.0366         0.002301   
    332. D(O  57,Fe 36,N  13,C  12)    -62.0017         0.002301   
    333. D(N  49,Fe 36,N  13,C  23)    -82.2970         0.002301   
    334. D(N  49,Fe 36,N  13,C  12)     96.6647         0.002301   
    335. D(N  17,Fe 36,N  13,C  23)      6.8129         0.002301   
    336. D(N  17,Fe 36,N  13,C  12)   -174.2253         0.002301   
    337. D(N   7,Fe 36,N  13,C  23)   -173.1650         0.002301   
    338. D(N   7,Fe 36,N  13,C  12)      5.7967         0.002301   
    339. D(O  58,Fe 36,N   7,C   8)     81.8822         0.003719   
    340. D(O  58,Fe 36,N   7,C   6)    -96.2562         0.003719   
    341. D(O  57,Fe 36,N   7,C   8)     78.1290         0.003719   
    342. D(O  57,Fe 36,N   7,C   6)   -100.0093         0.003719   
    343. D(N  49,Fe 36,N   7,C   8)    -98.0540         0.003719   
    344. D(N   4,Fe 36,N  17,C  16)    170.1771         0.003441   
    345. D(N  49,Fe 36,N   7,C   6)     83.8077         0.003719   
    346. D(N  13,Fe 36,N   7,C   8)     -5.6434         0.003719   
    347. D(N  13,Fe 36,N   7,C   6)    176.2183         0.003719   
    348. D(N  49,Fe 36,N  17,C  16)     83.5954         0.003441   
    349. D(N   4,Fe 36,N   7,C   8)    175.3938         0.003719   
    350. D(N   4,Fe 36,N   7,C   6)     -2.7445         0.003719   
    351. D(O  58,Fe 36,N   4,C   3)     92.1242         0.001988   
    352. D(O  58,Fe 36,N  17,C  16)    -96.3482         0.003441   
    353. D(O  58,Fe 36,N   4,C   2)    -87.6193         0.001988   
    354. D(O  57,Fe 36,N   4,C   3)     71.0205         0.001988   
    355. D(H  55,C  38,N  37,H  54)   -171.5419         0.015835   
    356. D(H  55,C  38,N  37,H  53)    -52.1265         0.015835   
    357. D(C  42,C  38,N  37,H  54)    -51.4604         0.015835   
    358. D(C  42,C  38,N  37,H  53)     67.9551         0.015835   
    359. D(C  39,C  38,N  37,H  54)     68.3659         0.015835   
    360. D(C  39,C  38,N  37,H  53)   -172.2186         0.015835   
    361. D(O  41,C  39,C  38,H  55)      1.0838         0.011771   
    362. D(O  41,C  39,C  38,C  42)   -117.8549         0.011771   
    363. D(O  41,C  39,C  38,N  37)    120.3097         0.011771   
    364. D(O  40,C  39,C  38,H  55)   -178.9640         0.011771   
    365. D(O  40,C  39,C  38,C  42)     62.0974         0.011771   
    366. D(O  40,C  39,C  38,N  37)    -59.7381         0.011771   
    367. D(H  56,O  40,C  39,O  41)     -0.3935         0.030047   
    368. D(H  56,O  40,C  39,C  38)    179.6540         0.030047   
    369. D(C  45,C  42,C  38,C  39)   -166.5520         0.010904   
    370. D(C  45,C  42,C  38,N  37)    -46.3475         0.010904   
    371. D(H  44,C  42,C  38,H  55)   -166.7349         0.010904   
    372. D(H  44,C  42,C  38,C  39)    -46.9707         0.010904   
    373. D(H  44,C  42,C  38,N  37)     73.2338         0.010904   
    374. D(H  43,C  42,C  38,H  55)    -50.8727         0.010904   
    375. D(H  43,C  42,C  38,C  39)     68.8915         0.010904   
    376. D(C  45,C  42,C  38,H  55)     73.6839         0.010904   
    377. D(H  43,C  42,C  38,N  37)   -170.9040         0.010904   
    378. D(C  50,C  45,C  42,H  44)    177.1277         0.012482   
    379. D(C  50,C  45,C  42,H  43)     62.9053         0.012482   
    380. D(C  50,C  45,C  42,C  38)    -61.6902         0.012482   
    381. D(N  46,C  45,C  42,H  44)      3.0179         0.012482   
    382. D(N  46,C  45,C  42,H  43)   -111.2045         0.012482   
    383. D(N  46,C  45,C  42,C  38)    124.2000         0.012482   
    384. D(H  52,N  46,C  45,C  50)    179.6084         0.037112   
    385. D(H  52,N  46,C  45,C  42)     -5.0751         0.037112   
    386. D(C  47,N  46,C  45,C  50)     -4.4696         0.037112   
    387. D(C  47,N  46,C  45,C  42)    170.8469         0.037112   
    388. D(N  49,C  47,N  46,H  52)    177.8693         0.040483   
    389. D(N  49,C  47,N  46,C  45)      1.8251         0.040483   
    390. D(H  48,C  47,N  46,H  52)     -1.5668         0.040483   
    391. D(H  48,C  47,N  46,C  45)   -177.6111         0.040483   
    392. D(C  50,N  49,C  47,H  48)   -178.9768         0.035386   
    393. D(C  50,N  49,C  47,N  46)      1.6149         0.035386   
    394. D(Fe 36,N  49,C  47,H  48)      5.6304         0.035386   
    395. D(Fe 36,N  49,C  47,N  46)   -173.7778         0.035386   
    396. D(C  50,N  49,Fe 36,O  57)     11.3246         0.003276   
    397. D(C  50,N  49,Fe 36,N  17)   -160.8335         0.003276   
    398. D(C  50,N  49,Fe 36,N  13)    -68.2730         0.003276   
    399. D(C  50,N  49,Fe 36,N   7)     20.9743         0.003276   
    400. D(C  50,N  49,Fe 36,N   4)    112.4668         0.003276   
    401. D(C  47,N  49,Fe 36,O  57)   -174.4403         0.003276   
    402. D(C  47,N  49,Fe 36,N  17)     13.4016         0.003276   
    403. D(C  47,N  49,Fe 36,N  13)    105.9621         0.003276   
    404. D(C  47,N  49,Fe 36,N   7)   -164.7906         0.003276   
    405. D(C  47,N  49,Fe 36,N   4)    -73.2982         0.003276   
    406. D(H  51,C  50,N  49,Fe 36)     -0.7788         0.032860   
    407. D(C  45,C  50,N  49,C  47)     -4.2659         0.032860   
    408. D(C  45,C  50,N  49,Fe 36)    170.7942         0.032860   
    409. D(H  51,C  50,C  45,N  46)    176.8805         0.026265   
    410. D(H  51,C  50,C  45,C  42)      2.2445         0.026265   
    411. D(N  49,C  50,C  45,N  46)      5.5409         0.026265   
    412. D(H  51,C  50,N  49,C  47)   -175.8389         0.032860   
    413. D(N  49,C  50,C  45,C  42)   -169.0950         0.026265   
    414. D(O  58,O  57,Fe 36,N  49)   -179.9345         0.001513   
    415. D(O  58,O  57,Fe 36,N  17)     -8.4175         0.001513   
    416. D(O  58,O  57,Fe 36,N  13)    -98.7391         0.001513   
    417. D(O  58,O  57,Fe 36,N   7)    169.6393         0.001513   
    418. D(O  58,O  57,Fe 36,N   4)     80.9519         0.001513   
    419. D(O  57,O  58,N  49,C  50)     11.3683         0.001500   
    420. D(O  57,O  58,N  49,C  47)   -174.3871         0.001500   
    421. D(O  57,O  58,Fe 36,N  17)    172.2179         0.005215   
    422. D(O  57,O  58,Fe 36,N  13)     79.6685         0.005215   
    423. D(O  57,O  58,Fe 36,N   7)     -9.5899         0.005215   
    424. D(O  57,O  58,Fe 36,N   4)   -101.0671         0.005215   
    -----------------------------------------------------------------

Number of atoms                         .... 59
Number of degrees of freedom            .... 424

         *************************************************************
         *                GEOMETRY OPTIMIZATION CYCLE   1            *
         *************************************************************
---------------------------------
CARTESIAN COORDINATES (ANGSTROEM)
---------------------------------
  C      4.105630    1.656770    0.153220
  C      4.551920    0.423180   -0.271370
  C      3.364230   -0.415880   -0.298160
  C      2.648460    1.533230    0.355120
  N      2.253210    0.351650    0.083440
  C      1.743670    2.632650    0.761240
  C      0.389910    2.594700    0.875590
  N     -0.439190    1.529740    0.690370
  C     -1.705720    1.973670    0.863060
  C     -0.355940    3.712650    1.184980
  C     -1.681510    3.329530    1.158460
  C     -2.832620    1.228390    0.784480
  C     -2.884490   -0.243120    0.557680
  N     -1.852390   -0.970050    0.356840
  C     -3.676720   -2.389360    0.453900
  C     -4.092380   -1.078860    0.613880
  C      0.064320   -3.252370   -0.237450
  N      0.826670   -2.129640   -0.284400
  C      2.097520   -2.539610   -0.538860
  C      2.138990   -3.911830   -0.645100
  C      0.856340   -4.364740   -0.449050
  C      3.323520   -1.714770   -0.593050
  C     -1.400370   -3.347930    0.030280
  C     -2.232290   -2.317020    0.265040
  H      4.727120    2.531340    0.293760
  H      5.571710    0.148310   -0.515690
  H      2.244460    3.579680    0.947370
  H      0.028850    4.705880    1.385920
  H     -2.525280    3.979070    1.348000
  H     -3.784220    1.726860    0.947380
  H     -4.305790   -3.270400    0.451070
  H     -5.111720   -0.750940    0.765450
  H      3.021630   -4.518940   -0.797180
  H      0.544600   -5.400160   -0.428810
  H      4.256260   -2.213260   -0.844640
  H     -1.833020   -4.344960    0.002860
  Fe     0.161240   -0.302340    0.206820
  N      1.701000    0.846870    6.361730
  C      0.336860    0.374820    6.587790
  C      0.155970    0.072810    8.058900
  O      0.943010   -0.856100    8.651540
  O     -0.693130    0.659050    8.712480
  C      0.039010   -0.900800    5.791160
  H     -1.048270   -1.128120    5.862370
  H      0.574420   -1.750740    6.269040
  C      0.450550   -0.927250    4.344480
  N      1.253770   -1.898230    3.888660
  C      1.270410   -1.771360    2.565570
  H      1.811470   -2.451360    1.940520
  N      0.535870   -0.725240    2.143930
  C      0.055600   -0.137050    3.266490
  H     -0.629810    0.700930    3.285410
  H      1.724000   -2.652270    4.434070
  H      1.789070    1.180970    5.374890
  H      2.382580    0.068520    6.516300
  H     -0.373740    1.170420    6.270060
  H      0.865230   -1.077250    9.590420
  O     -0.753680    1.067420   -1.932690
  O     -0.197750    0.104460   -1.624850

----------------------------
CARTESIAN COORDINATES (A.U.)
----------------------------
  NO LB      ZA    FRAG     MASS         X           Y           Z
   0 C     6.0000    0    12.011    7.758516    3.130842    0.289544
   1 C     6.0000    0    12.011    8.601882    0.799694   -0.512815
   2 C     6.0000    0    12.011    6.357473   -0.785899   -0.563441
   3 C     6.0000    0    12.011    5.004864    2.897385    0.671080
   4 N     7.0000    0    14.007    4.257950    0.664522    0.157679
   5 C     6.0000    0    12.011    3.295059    4.974988    1.438535
   6 C     6.0000    0    12.011    0.736823    4.903272    1.654625
   7 N     7.0000    0    14.007   -0.829949    2.890790    1.304610
   8 C     6.0000    0    12.011   -3.223344    3.729696    1.630947
   9 C     6.0000    0    12.011   -0.672629    7.015892    2.239288
  10 C     6.0000    0    12.011   -3.177593    6.291900    2.189172
  11 C     6.0000    0    12.011   -5.352876    2.321321    1.482452
  12 C     6.0000    0    12.011   -5.450896   -0.459430    1.053862
  13 N     7.0000    0    14.007   -3.500510   -1.833129    0.674330
  14 C     6.0000    0    12.011   -6.947994   -4.515236    0.857747
  15 C     6.0000    0    12.011   -7.733477   -2.038750    1.160065
  16 C     6.0000    0    12.011    0.121547   -6.146089   -0.448715
  17 N     7.0000    0    14.007    1.562180   -4.024436   -0.537438
  18 C     6.0000    0    12.011    3.963738   -4.799167   -1.018298
  19 C     6.0000    0    12.011    4.042105   -7.392287   -1.219062
  20 C     6.0000    0    12.011    1.618248   -8.248163   -0.848582
  21 C     6.0000    0    12.011    6.280543   -3.240446   -1.120702
  22 C     6.0000    0    12.011   -2.646316   -6.326671    0.057221
  23 C     6.0000    0    12.011   -4.218417   -4.378533    0.500853
  24 H     1.0000    0     1.008    8.932962    4.783539    0.555126
  25 H     1.0000    0     1.008   10.529006    0.280265   -0.974513
  26 H     1.0000    0     1.008    4.241415    6.764615    1.790270
  27 H     1.0000    0     1.008    0.054519    8.892824    2.619009
  28 H     1.0000    0     1.008   -4.772088    7.519353    2.547351
  29 H     1.0000    0     1.008   -7.151139    3.263292    1.790289
  30 H     1.0000    0     1.008   -8.136764   -6.180160    0.852399
  31 H     1.0000    0     1.008   -9.659751   -1.419071    1.446491
  32 H     1.0000    0     1.008    5.710053   -8.539559   -1.506452
  33 H     1.0000    0     1.008    1.029145  -10.204823   -0.810333
  34 H     1.0000    0     1.008    8.043166   -4.182455   -1.596138
  35 H     1.0000    0     1.008   -3.463906   -8.210784    0.005405
  36 Fe   26.0000    0    55.850    0.304699   -0.571340    0.390833
  37 N     7.0000    0    14.007    3.214424    1.600352   12.021927
  38 C     6.0000    0    12.011    0.636573    0.708307   12.449119
  39 C     6.0000    0    12.011    0.294741    0.137591   15.229114
  40 O     8.0000    0    15.999    1.782031   -1.617795   16.349041
  41 O     8.0000    0    15.999   -1.309826    1.245424   16.464201
  42 C     6.0000    0    12.011    0.073718   -1.702265   10.943706
  43 H     1.0000    0     1.008   -1.980943   -2.131838   11.078274
  44 H     1.0000    0     1.008    1.085496   -3.308419   11.846769
  45 C     6.0000    0    12.011    0.851416   -1.752249    8.209877
  46 N     7.0000    0    14.007    2.369282   -3.587135    7.348502
  47 C     6.0000    0    12.011    2.400727   -3.347385    4.848225
  48 H     1.0000    0     1.008    3.423182   -4.632399    3.667051
  49 N     7.0000    0    14.007    1.012648   -1.370505    4.051441
  50 C     6.0000    0    12.011    0.105069   -0.258987    6.172772
  51 H     1.0000    0     1.008   -1.190168    1.324566    6.208525
  52 H     1.0000    0     1.008    3.257888   -5.012064    8.379178
  53 H     1.0000    0     1.008    3.380852    2.231710   10.157070
  54 H     1.0000    0     1.008    4.502424    0.129484   12.314022
  55 H     1.0000    0     1.008   -0.706266    2.211773   11.848696
  56 H     1.0000    0     1.008    1.635048   -2.035707   18.123267
  57 O     8.0000    0    15.999   -1.424249    2.017131   -3.652255
  58 O     8.0000    0    15.999   -0.373693    0.197401   -3.070522

--------------------------------
INTERNAL COORDINATES (ANGSTROEM)
--------------------------------
 C      0   0   0     0.000000000000     0.00000000     0.00000000
 C      1   0   0     1.378838540330     0.00000000     0.00000000
 C      2   1   0     1.454423227194   104.92124951     0.00000000
 C      1   2   3     1.476268996660   106.66222819   359.25191953
 N      4   1   2     1.275211308490   110.75306938     0.05086503
 C      4   1   2     1.480642676306   125.34849283   182.47116999
 C      6   4   1     1.359110835289   127.66310017   175.30762974
 N      7   6   4     1.362296979370   128.06807799     2.55878031
 C      8   7   6     1.353142240084   107.20728563   182.22061422
 C      7   6   4     1.379067292448   122.34033318   184.11304593
 C     10   7   6     1.380079733095   106.86512003   177.31105545
 C      9   8   7     1.353336877795   126.24962831   180.95531911
 C     12   9   8     1.489788715557   125.57529525     3.21646431
 N     13  12   9     1.278277880783   123.88371023   357.12318705
 C     13  12   9     2.290140781459   160.84069588   164.49897521
 C     15  13  12     1.384115994417    37.93832367    12.02838669
 C     14  13  12     3.039069332970   165.24562595   185.46356442
 N     17  14  13     1.357904443582    74.92470038   167.46602841
 C     18  17  14     1.359369344586   106.37804662   178.42716558
 C     19  18  17     1.376951134536   110.06896880   359.69546770
 C     20  19  18     1.374319501826   106.81635131   359.92759830
 C      3   2   1     1.332566189088   126.25261665   183.16311447
 C     17  14  13     1.492021401522    52.69000305   348.16351718
 C     23  17  14     1.345354441067   126.10533436     1.40536889
 H      1   2   3     1.082069312290   125.25319493   179.73496137
 H      2   1   3     1.084074454731   126.92149940   180.75246249
 H      6   4   1     1.087336572502   114.34470444   357.79864135
 H     10   7   6     1.083949288758   126.32807855   358.66526038
 H     11  10   7     1.081561572958   125.39712206   180.68474597
 H     12   9   8     1.086531780897   117.89970325   180.02561954
 H     15  13  12     1.082574965256   164.54374885    10.62526598
 H     16  15  13     1.081461523541   125.89830190   180.85616264
 H     20  19  18     1.082018598777   126.48229949   183.09902465
 H     21  20  19     1.081520254827   125.95790262   182.52329092
 H     22   3   2     1.087103360219   118.16179723   359.72648015
 H     23  17  14     1.087201315213   116.41491285   179.52038461
 Fe     8   7   6     1.987675505157   124.73451977     0.68575524
 N      6   4   1     5.878462314024    92.30298403   260.13464453
 C     38   6   4     1.461099676853   104.61518993   247.95283238
 C     39  38   6     1.512645320060   109.06405317   188.00575750
 O     40  39  38     1.354078254496   119.54530735   300.26194580
 O     40  39  38     1.221398773538   120.51196489   120.30971469
 C     39  38   6     1.533147208783   111.70321251    68.17939873
 H     43  39  38     1.113069200409   109.05364793   189.09597318
 H     43  39  38     1.112398834097   108.60209648    73.23375436
 C     43  39  38     1.504309740878   117.46325381   313.65251493
 N     46  43  39     1.340050895004   120.25433249   124.20001934
 C     47  46  43     1.329262966685   106.07633804   170.84690542
 H     48  47  46     1.070436091553   121.79660560   182.38893153
 N     48  47  46     1.345992702655   112.28101505     1.82506296
 C     50  48  47     1.355274032290   105.73759871     1.61494205
 H     51  50  48     1.082753579953   125.07773780   184.16109847
 H     47  46  43     1.042671876767   128.05332456   354.92485746
 H     38   6   4     1.045577505735     4.53150628    65.26929808
 H     38   6   4     1.046074521150   111.22803645     6.89034699
 H     39  38   6     1.113051693723   108.72092464   308.09787063
 H     41  40  39     0.967704864770   122.32290519   179.65401950
 O      8   7   6     2.681993196505   109.82170440   283.25052931
 O     58   8   7     1.153739828601    80.00379596   114.33687515

---------------------------
INTERNAL COORDINATES (A.U.)
---------------------------
 C      0   0   0     0.000000000000     0.00000000     0.00000000
 C      1   0   0     2.605627224120     0.00000000     0.00000000
 C      2   1   0     2.748461582210   104.92124951     0.00000000
 C      1   2   3     2.789744103686   106.66222819   359.25191953
 N      4   1   2     2.409800135925   110.75306938     0.05086503
 C      4   1   2     2.798009160415   125.34849283   182.47116999
 C      6   4   1     2.568347264341   127.66310017   175.30762974
 N      7   6   4     2.574368204077   128.06807799     2.55878031
 C      8   7   6     2.557068254000   107.20728563   182.22061422
 C      7   6   4     2.606059502975   122.34033318   184.11304593
 C     10   7   6     2.607972738525   106.86512003   177.31105545
 C      9   8   7     2.557436065969   126.24962831   180.95531911
 C     12   9   8     2.815292669808   125.57529525     3.21646431
 N     13  12   9     2.415595117730   123.88371023   357.12318705
 C     13  12   9     4.327738885081   160.84069588   164.49897521
 C     15  13  12     2.615600167028    37.93832367    12.02838669
 C     14  13  12     5.743008741312   165.24562595   185.46356442
 N     17  14  13     2.566067514405    74.92470038   167.46602841
 C     18  17  14     2.568835776115   106.37804662   178.42716558
 C     19  18  17     2.602060544065   110.06896880   359.69546770
 C     20  19  18     2.597087478959   106.81635131   359.92759830
 C      3   2   1     2.518185152699   126.25261665   183.16311447
 C     17  14  13     2.819511834826    52.69000305   348.16351718
 C     23  17  14     2.542351446672   126.10533436     1.40536889
 H      1   2   3     2.044814658149   125.25319493   179.73496137
 H      2   1   3     2.048603828221   126.92149940   180.75246249
 H      6   4   1     2.054768337425   114.34470444   357.79864135
 H     10   7   6     2.048367298812   126.32807855   358.66526038
 H     11  10   7     2.043855169864   125.39712206   180.68474597
 H     12   9   8     2.053247501698   117.89970325   180.02561954
 H     15  13  12     2.045770203774   164.54374885    10.62526598
 H     16  15  13     2.043666103866   125.89830190   180.85616264
 H     20  19  18     2.044718823498   126.48229949   183.09902465
 H     21  20  19     2.043777089911   125.95790262   182.52329092
 H     22   3   2     2.054327630080   118.16179723   359.72648015
 H     23  17  14     2.054512738191   116.41491285   179.52038461
 Fe     8   7   6     3.756162347850   124.73451977     0.68575524
 N      6   4   1    11.108683862082    92.30298403   260.13464453
 C     38   6   4     2.761078243613   104.61518993   247.95283238
 C     39  38   6     2.858485392671   109.06405317   188.00575750
 O     40  39  38     2.558837064896   119.54530735   300.26194580
 O     40  39  38     2.308109182294   120.51196489   120.30971469
 C     39  38   6     2.897228347586   111.70321251    68.17939873
 H     43  39  38     2.103395956876   109.05364793   189.09597318
 H     43  39  38     2.102129148136   108.60209648    73.23375436
 C     43  39  38     2.842733430849   117.46325381   313.65251493
 N     46  43  39     2.532329197073   120.25433249   124.20001934
 C     47  46  43     2.511942966998   106.07633804   170.84690542
 H     48  47  46     2.022831056901   121.79660560   182.38893153
 N     48  47  46     2.543557586274   112.28101505     1.82506296
 C     50  48  47     2.561096757444   105.73759871     1.61494205
 H     51  50  48     2.046107736633   125.07773780   184.16109847
 H     47  46  43     1.970364294631   128.05332456   354.92485746
 H     38   6   4     1.975855137629     4.53150628    65.26929808
 H     38   6   4     1.976794360647   111.22803645     6.89034699
 H     39  38   6     2.103362874034   108.72092464   308.09787063
 H     41  40  39     1.828697172879   122.32290519   179.65401950
 O      8   7   6     5.068232634435   109.82170440   283.25052931
 O     58   8   7     2.180252305853    80.00379596   114.33687515

---------------------
BASIS SET INFORMATION
---------------------
There are 5 groups of distinct atoms

 Group   1 Type C   : 11s6p2d1f contracted to 5s3p2d1f pattern {62111/411/11/1}
 Group   2 Type N   : 11s6p2d1f contracted to 5s3p2d1f pattern {62111/411/11/1}
 Group   3 Type H   : 5s1p contracted to 3s1p pattern {311/1}
 Group   4 Type Fe  : 17s11p7d1f contracted to 6s4p4d1f pattern {842111/6311/4111/1}
 Group   5 Type O   : 11s6p2d1f contracted to 5s3p2d1f pattern {62111/411/11/1}

Atom   0C    basis set group =>   1
Atom   1C    basis set group =>   1
Atom   2C    basis set group =>   1
Atom   3C    basis set group =>   1
Atom   4N    basis set group =>   2
Atom   5C    basis set group =>   1
Atom   6C    basis set group =>   1
Atom   7N    basis set group =>   2
Atom   8C    basis set group =>   1
Atom   9C    basis set group =>   1
Atom  10C    basis set group =>   1
Atom  11C    basis set group =>   1
Atom  12C    basis set group =>   1
Atom  13N    basis set group =>   2
Atom  14C    basis set group =>   1
Atom  15C    basis set group =>   1
Atom  16C    basis set group =>   1
Atom  17N    basis set group =>   2
Atom  18C    basis set group =>   1
Atom  19C    basis set group =>   1
Atom  20C    basis set group =>   1
Atom  21C    basis set group =>   1
Atom  22C    basis set group =>   1
Atom  23C    basis set group =>   1
Atom  24H    basis set group =>   3
Atom  25H    basis set group =>   3
Atom  26H    basis set group =>   3
Atom  27H    basis set group =>   3
Atom  28H    basis set group =>   3
Atom  29H    basis set group =>   3
Atom  30H    basis set group =>   3
Atom  31H    basis set group =>   3
Atom  32H    basis set group =>   3
Atom  33H    basis set group =>   3
Atom  34H    basis set group =>   3
Atom  35H    basis set group =>   3
Atom  36Fe   basis set group =>   4
Atom  37N    basis set group =>   2
Atom  38C    basis set group =>   1
Atom  39C    basis set group =>   1
Atom  40O    basis set group =>   5
Atom  41O    basis set group =>   5
Atom  42C    basis set group =>   1
Atom  43H    basis set group =>   3
Atom  44H    basis set group =>   3
Atom  45C    basis set group =>   1
Atom  46N    basis set group =>   2
Atom  47C    basis set group =>   1
Atom  48H    basis set group =>   3
Atom  49N    basis set group =>   2
Atom  50C    basis set group =>   1
Atom  51H    basis set group =>   3
Atom  52H    basis set group =>   3
Atom  53H    basis set group =>   3
Atom  54H    basis set group =>   3
Atom  55H    basis set group =>   3
Atom  56H    basis set group =>   3
Atom  57O    basis set group =>   5
Atom  58O    basis set group =>   5
---------------------------------
AUXILIARY/J BASIS SET INFORMATION
---------------------------------
There are 5 groups of distinct atoms

 Group   1 Type C   : 12s5p4d2f1g contracted to 6s4p3d1f1g pattern {711111/2111/211/2/1}
 Group   2 Type N   : 12s5p4d2f1g contracted to 6s4p3d1f1g pattern {711111/2111/211/2/1}
 Group   3 Type H   : 5s2p1d contracted to 3s1p1d pattern {311/2/1}
 Group   4 Type Fe  : 19s5p5d3f3g contracted to 8s5p5d2f3g pattern {121111111/11111/11111/21/111}
 Group   5 Type O   : 12s5p4d2f1g contracted to 6s4p3d1f1g pattern {711111/2111/211/2/1}

Atom   0C    basis set group =>   1
Atom   1C    basis set group =>   1
Atom   2C    basis set group =>   1
Atom   3C    basis set group =>   1
Atom   4N    basis set group =>   2
Atom   5C    basis set group =>   1
Atom   6C    basis set group =>   1
Atom   7N    basis set group =>   2
Atom   8C    basis set group =>   1
Atom   9C    basis set group =>   1
Atom  10C    basis set group =>   1
Atom  11C    basis set group =>   1
Atom  12C    basis set group =>   1
Atom  13N    basis set group =>   2
Atom  14C    basis set group =>   1
Atom  15C    basis set group =>   1
Atom  16C    basis set group =>   1
Atom  17N    basis set group =>   2
Atom  18C    basis set group =>   1
Atom  19C    basis set group =>   1
Atom  20C    basis set group =>   1
Atom  21C    basis set group =>   1
Atom  22C    basis set group =>   1
Atom  23C    basis set group =>   1
Atom  24H    basis set group =>   3
Atom  25H    basis set group =>   3
Atom  26H    basis set group =>   3
Atom  27H    basis set group =>   3
Atom  28H    basis set group =>   3
Atom  29H    basis set group =>   3
Atom  30H    basis set group =>   3
Atom  31H    basis set group =>   3
Atom  32H    basis set group =>   3
Atom  33H    basis set group =>   3
Atom  34H    basis set group =>   3
Atom  35H    basis set group =>   3
Atom  36Fe   basis set group =>   4
Atom  37N    basis set group =>   2
Atom  38C    basis set group =>   1
Atom  39C    basis set group =>   1
Atom  40O    basis set group =>   5
Atom  41O    basis set group =>   5
Atom  42C    basis set group =>   1
Atom  43H    basis set group =>   3
Atom  44H    basis set group =>   3
Atom  45C    basis set group =>   1
Atom  46N    basis set group =>   2
Atom  47C    basis set group =>   1
Atom  48H    basis set group =>   3
Atom  49N    basis set group =>   2
Atom  50C    basis set group =>   1
Atom  51H    basis set group =>   3
Atom  52H    basis set group =>   3
Atom  53H    basis set group =>   3
Atom  54H    basis set group =>   3
Atom  55H    basis set group =>   3
Atom  56H    basis set group =>   3
Atom  57O    basis set group =>   5
Atom  58O    basis set group =>   5
------------------------------------------------------------------------------
                           ORCA GTO INTEGRAL CALCULATION
                           -- RI-GTO INTEGRALS CHOSEN --
------------------------------------------------------------------------------
------------------------------------------------------------------------------
                   ___                                                        
                  /   \      - P O W E R E D   B Y -                         
                 /     \                                                     
                 |  |  |   _    _      __       _____    __    __             
                 |  |  |  | |  | |    /  \     |  _  \  |  |  /  |          
                  \  \/   | |  | |   /    \    | | | |  |  | /  /          
                 / \  \   | |__| |  /  /\  \   | |_| |  |  |/  /          
                |  |  |   |  __  | /  /__\  \  |    /   |      \           
                |  |  |   | |  | | |   __   |  |    \   |  |\   \          
                \     /   | |  | | |  |  |  |  | |\  \  |  | \   \       
                 \___/    |_|  |_| |__|  |__|  |_| \__\ |__|  \__/        
                                                                              
                      - O R C A' S   B I G   F R I E N D -                    
                                      &                                       
                       - I N T E G R A L  F E E D E R -                       
                                                                              
 v1 FN, 2020, v2 2021                                                         
------------------------------------------------------------------------------


Reading SHARK input file Fe_O2_Porphyrin_opt.SHARKINP.tmp ... ok
----------------------
SHARK INTEGRAL PACKAGE
----------------------

Number of atoms                             ...     59
Number of basis functions                   ...   1318
Number of shells                            ...    506
Maximum angular momentum                    ...      3
Integral batch strategy                     ... SHARK/LIBINT Hybrid
RI-J (if used) integral strategy            ... SPLIT-RIJ (Revised 2003 algorithm where possible)
Printlevel                                  ...      1
Contraction scheme used                     ... SEGMENTED contraction
Coulomb Range Separation                    ... NOT USED
Exchange Range Separation                   ... NOT USED
Finite Nucleus Model                        ... NOT USED
Auxiliary Coulomb fitting basis             ... AVAILABLE
   # of basis functions in Aux-J            ...   2133
   # of shells in Aux-J                     ...    683
   Maximum angular momentum in Aux-J        ...      4
Auxiliary J/K fitting basis                 ... NOT available
Auxiliary Correlation fitting basis         ... NOT available
Auxiliary 'external' fitting basis          ... NOT available
Integral threshold                          ...     2.500000e-11
Primitive cut-off                           ...     2.500000e-12
Primitive pair pre-selection threshold      ...     2.500000e-12

Calculating pre-screening integrals         ... done (  1.1 sec) Dimension = 506
Organizing shell pair data                  ... done (  1.6 sec)
Shell pair information
Total number of shell pairs                 ...    128271
Shell pairs after pre-screening             ...     79343
Total number of primitive shell pairs       ...    408189
Primitive shell pairs kept                  ...    156850
          la=0 lb=0:  19130 shell pairs
          la=1 lb=0:  22721 shell pairs
          la=1 lb=1:   6730 shell pairs
          la=2 lb=0:  11555 shell pairs
          la=2 lb=1:   7103 shell pairs
          la=2 lb=2:   1913 shell pairs
          la=3 lb=0:   5041 shell pairs
          la=3 lb=1:   3198 shell pairs
          la=3 lb=2:   1599 shell pairs
          la=3 lb=3:    353 shell pairs

Calculating one electron integrals          ... done (  0.8 sec)
Calculating RI/J V-Matrix + Cholesky decomp.... done (  0.4 sec)
Calculating Nuclear repulsion               ... done (  0.0 sec) ENN=   5055.109569046996 Eh

SHARK setup successfully completed in   6.4 seconds

Maximum memory used throughout the entire GTOINT-calculation: 1043.5 MB
-------------------------------------------------------------------------------
                                 ORCA SCF
-------------------------------------------------------------------------------

------------
SCF SETTINGS
------------
Hamiltonian:
 Density Functional     Method          .... DFT(GTOs)
 Exchange Functional    Exchange        .... B88
   X-Alpha parameter    XAlpha          ....  0.666667
   Becke's b parameter  XBeta           ....  0.004200
 Correlation Functional Correlation     .... LYP
 LDA part of GGA corr.  LDAOpt          .... VWN-5
 Gradients option       PostSCFGGA      .... off
 Hybrid DFT is turned on
   Fraction HF Exchange ScalHFX         ....  0.200000
   Scaling of DF-GGA-X  ScalDFX         ....  0.720000
   Scaling of DF-GGA-C  ScalDFC         ....  0.810000
   Scaling of DF-LDA-C  ScalLDAC        ....  1.000000
   Perturbative correction              ....  0.000000
   Density functional embedding theory  .... OFF
   NL short-range parameter             ....  4.800000
 RI-approximation to the Coulomb term is turned on
   Number of AuxJ basis functions       .... 2133
   RIJ-COSX (HFX calculated with COS-X)).... on


General Settings:
 Integral files         IntName         .... Fe_O2_Porphyrin_opt
 Hartree-Fock type      HFTyp           .... RHF
 Total Charge           Charge          ....    0
 Multiplicity           Mult            ....    1
 Number of Electrons    NEL             ....  284
 Basis Dimension        Dim             .... 1318
 Nuclear Repulsion      ENuc            ....   5055.1095690470 Eh

Convergence Acceleration:
 DIIS                   CNVDIIS         .... on
   Start iteration      DIISMaxIt       ....    12
   Startup error        DIISStart       ....  0.200000
   # of expansion vecs  DIISMaxEq       ....     5
   Bias factor          DIISBfac        ....   1.050
   Max. coefficient     DIISMaxC        ....  10.000
 Trust-Rad. Augm. Hess. CNVTRAH         .... auto
   Auto Start mean grad. ratio tolernc. ....  1.125000
   Auto Start start iteration           ....    20
   Auto Start num. interpolation iter.  ....    10
   Max. Number of Micro iterations      ....    16
   Max. Number of Macro iterations      .... Maxiter - #DIIS iter
   Number of Davidson start vectors     ....     2
   Converg. threshold I  (grad. norm)   ....   1.000e-05
   Converg. threshold II (energy diff.) ....   1.000e-08
   Grad. Scal. Fac. for Micro threshold ....   0.100
   Minimum threshold for Micro iter.    ....   0.010
   NR start threshold (gradient norm)   ....   0.001
   Initial trust radius                 ....   0.400
   Minimum AH scaling param. (alpha)    ....   1.000
   Maximum AH scaling param. (alpha)    .... 1000.000
   Orbital update algorithm             .... Taylor
   White noise on init. David. guess    .... on
   Maximum white noise                  ....   0.010
   Quad. conv. algorithm                .... NR
 SOSCF                  CNVSOSCF        .... off
 Level Shifting         CNVShift        .... on
   Level shift para.    LevelShift      ....    0.2500
   Turn off err/grad.   ShiftErr        ....    0.0010
 Zerner damping         CNVZerner       .... off
 Static damping         CNVDamp         .... on
   Fraction old density DampFac         ....    0.7000
   Max. Damping (<1)    DampMax         ....    0.9800
   Min. Damping (>=0)   DampMin         ....    0.0000
   Turn off err/grad.   DampErr         ....    0.1000
 Fernandez-Rico         CNVRico         .... off

SCF Procedure:
 Maximum # iterations   MaxIter         ....   125
 SCF integral mode      SCFMode         .... Direct
   Integral package                     .... SHARK and LIBINT hybrid scheme
 Reset frequency        DirectResetFreq ....    20
 Integral Threshold     Thresh          ....  2.500e-11 Eh
 Primitive CutOff       TCut            ....  2.500e-12 Eh

Convergence Tolerance:
 Convergence Check Mode ConvCheckMode   .... Total+1el-Energy
 Convergence forced     ConvForced      .... 0
 Energy Change          TolE            ....  1.000e-08 Eh
 1-El. energy change                    ....  1.000e-05 Eh
 DIIS Error             TolErr          ....  5.000e-07


Diagonalization of the overlap matrix:
Smallest eigenvalue                        ... 9.311e-06
Time for diagonalization                   ...    0.582 sec
Threshold for overlap eigenvalues          ... 1.000e-08
Number of eigenvalues below threshold      ... 0
Time for construction of square roots      ...    0.286 sec
Total time needed                          ...    0.871 sec

Time for model grid setup =    5.232 sec

------------------------------
INITIAL GUESS: MODEL POTENTIAL
------------------------------
Loading Hartree-Fock densities                     ... done
Calculating cut-offs                               ... done
Initializing the effective Hamiltonian             ... done
Setting up the integral package (SHARK)            ... done
Starting the Coulomb interaction                   ... done (  16.0 sec)
Reading the grid                                   ... done
Mapping shells                                     ... done
Starting the XC term evaluation                    ... done (   6.8 sec)
  promolecular density results
     # of electrons  =    283.991099611
     EX              =   -273.434269029
     EC              =    -10.159935980
     EX+EC           =   -283.594205009
Transforming the Hamiltonian                       ... done (   0.2 sec)
Diagonalizing the Hamiltonian                      ... done (   0.6 sec)
Back transforming the eigenvectors                 ... done (   0.1 sec)
Now organizing SCF variables                       ... done
                      ------------------
                      INITIAL GUESS DONE (  29.0 sec)
                      ------------------
-------------------
DFT GRID GENERATION
-------------------

General Integration Accuracy     IntAcc      ... 4.388
Radial Grid Type                 RadialGrid  ... OptM3 with GC (2021)
Angular Grid (max. ang.)         AngularGrid ... 4 (Lebedev-302)
Angular grid pruning method      GridPruning ... 4 (adaptive)
Weight generation scheme         WeightScheme... Becke
Basis function cutoff            BFCut       ... 1.0000e-11
Integration weight cutoff        WCut        ... 1.0000e-14
Angular grids for H and He will be reduced by one unit
Partially contracted basis set               ... off
Rotationally invariant grid construction     ... off

Total number of grid points                  ...   296907
Total number of batches                      ...     4670
Average number of points per batch           ...       63
Average number of grid points per atom       ...     5032
Time for grid setup =   13.900 sec

--------------------
COSX GRID GENERATION
--------------------

GRIDX 1
-------
General Integration Accuracy     IntAcc      ... 3.816
Radial Grid Type                 RadialGrid  ... OptM3 with GC (2021)
Angular Grid (max. ang.)         AngularGrid ... 1 (Lebedev-50)
Angular grid pruning method      GridPruning ... 4 (adaptive)
Weight generation scheme         WeightScheme... Becke
Basis function cutoff            BFCut       ... 1.0000e-11
Integration weight cutoff        WCut        ... 1.0000e-14
Angular grids for H and He will be reduced by one unit
Partially contracted basis set               ... on
Rotationally invariant grid construction     ... off

Total number of grid points                  ...    37428
Total number of batches                      ...      613
Average number of points per batch           ...       61
Average number of grid points per atom       ...      634
UseSFitting                                  ... on

GRIDX 2
-------
General Integration Accuracy     IntAcc      ... 4.020
Radial Grid Type                 RadialGrid  ... OptM3 with GC (2021)
Angular Grid (max. ang.)         AngularGrid ... 2 (Lebedev-110)
Angular grid pruning method      GridPruning ... 4 (adaptive)
Weight generation scheme         WeightScheme... Becke
Basis function cutoff            BFCut       ... 1.0000e-11
Integration weight cutoff        WCut        ... 1.0000e-14
Angular grids for H and He will be reduced by one unit
Partially contracted basis set               ... on
Rotationally invariant grid construction     ... off

Total number of grid points                  ...    81726
Total number of batches                      ...     1306
Average number of points per batch           ...       62
Average number of grid points per atom       ...     1385
UseSFitting                                  ... on

GRIDX 3
-------
General Integration Accuracy     IntAcc      ... 4.338
Radial Grid Type                 RadialGrid  ... OptM3 with GC (2021)
Angular Grid (max. ang.)         AngularGrid ... 3 (Lebedev-194)
Angular grid pruning method      GridPruning ... 4 (adaptive)
Weight generation scheme         WeightScheme... Becke
Basis function cutoff            BFCut       ... 1.0000e-11
Integration weight cutoff        WCut        ... 1.0000e-14
Angular grids for H and He will be reduced by one unit
Partially contracted basis set               ... on
Rotationally invariant grid construction     ... off

Total number of grid points                  ...   178301
Total number of batches                      ...     2814
Average number of points per batch           ...       63
Average number of grid points per atom       ...     3022
UseSFitting                                  ... on

Time for X-Grid setup             =   31.578 sec


--------------------
CPCM SOLVATION MODEL
--------------------
CPCM parameters:
  Epsilon                                         ...       9.0800
  Refrac                                          ...       1.4240
  Rsolv                                           ...       1.3000
[...]
      px      :     1.164961
      py      :     1.465042
      dz2     :     0.027661  d :     0.135095
      dxz     :     0.036451
      dyz     :     0.004792
      dx2y2   :     0.026587
      dxy     :     0.039602
      f0      :     0.002037  f :     0.010134
      f+1     :     0.001683
      f-1     :     0.000212
      f+2     :     0.001332
      f-2     :     0.000703
      f+3     :     0.002360
      f-3     :     0.001806
 38 C s       :     2.749700  s :     2.749700
      pz      :     0.982323  p :     2.905178
      px      :     0.916794
      py      :     1.006061
      dz2     :     0.103321  d :     0.568259
      dxz     :     0.124535
      dyz     :     0.080959
      dx2y2   :     0.116831
      dxy     :     0.142613
      f0      :     0.009954  f :     0.065385
      f+1     :     0.009372
      f-1     :     0.006106
      f+2     :     0.010078
      f-2     :     0.006422
      f+3     :     0.009472
      f-3     :     0.013981
 39 C s       :     2.763792  s :     2.763792
      pz      :     0.945807  p :     2.636681
      px      :     0.945292
      py      :     0.745582
      dz2     :     0.167083  d :     0.927148
      dxz     :     0.301491
      dyz     :     0.120755
      dx2y2   :     0.167192
      dxy     :     0.170627
      f0      :     0.025185  f :     0.152916
      f+1     :     0.029442
      f-1     :     0.014993
      f+2     :     0.027712
      f-2     :     0.020904
      f+3     :     0.016117
      f-3     :     0.018562
 40 O s       :     3.326513  s :     3.326513
      pz      :     1.276278  p :     4.485971
      px      :     1.594026
      py      :     1.615667
      dz2     :     0.019743  d :     0.068502
      dxz     :     0.024630
      dyz     :     0.007992
      dx2y2   :     0.007283
      dxy     :     0.008854
      f0      :     0.000536  f :     0.004983
      f+1     :     0.001723
      f-1     :     0.000437
      f+2     :     0.000834
      f-2     :     0.000823
      f+3     :     0.000273
      f-3     :     0.000357
 41 O s       :     3.401871  s :     3.401871
      pz      :     1.608799  p :     4.462859
      px      :     1.478922
      py      :     1.375137
      dz2     :     0.008518  d :     0.065748
      dxz     :     0.018455
      dyz     :     0.002792
      dx2y2   :     0.018834
      dxy     :     0.017150
      f0      :     0.000715  f :     0.006136
      f+1     :     0.001115
      f-1     :     0.000217
      f+2     :     0.000810
      f-2     :     0.000583
      f+3     :     0.001197
      f-3     :     0.001499
 42 C s       :     2.770511  s :     2.770511
      pz      :     0.984416  p :     3.011401
      px      :     1.026280
      py      :     1.000705
      dz2     :     0.092571  d :     0.372322
      dxz     :     0.050227
      dyz     :     0.111330
      dx2y2   :     0.081400
      dxy     :     0.036795
      f0      :     0.006254  f :     0.037691
      f+1     :     0.006861
      f-1     :     0.007641
      f+2     :     0.003518
      f-2     :     0.005983
      f+3     :     0.004776
      f-3     :     0.002656
 43 H s       :     0.778144  s :     0.778144
      pz      :     0.011719  p :     0.059841
      px      :     0.035337
      py      :     0.012786
 44 H s       :     0.785375  s :     0.785375
      pz      :     0.017082  p :     0.059554
      px      :     0.015824
      py      :     0.026647
 45 C s       :     2.714378  s :     2.714378
      pz      :     1.023658  p :     2.834813
      px      :     0.899243
      py      :     0.911912
      dz2     :     0.148153  d :     0.588812
      dxz     :     0.154311
      dyz     :     0.103672
      dx2y2   :     0.099387
      dxy     :     0.083289
      f0      :     0.016630  f :     0.081290
      f+1     :     0.014637
      f-1     :     0.010559
      f+2     :     0.012250
      f-2     :     0.010862
      f+3     :     0.008647
      f-3     :     0.007706
 46 N s       :     2.900944  s :     2.900944
      pz      :     1.165958  p :     3.592035
      px      :     1.165697
      py      :     1.260380
      dz2     :     0.058918  d :     0.249765
      dxz     :     0.077581
      dyz     :     0.053065
      dx2y2   :     0.027095
      dxy     :     0.033105
      f0      :     0.003420  f :     0.019425
      f+1     :     0.005124
      f-1     :     0.004046
      f+2     :     0.001072
      f-2     :     0.001254
      f+3     :     0.002239
      f-3     :     0.002270
 47 C s       :     2.769345  s :     2.769345
      pz      :     0.917734  p :     2.813181
      px      :     0.970977
      py      :     0.924470
      dz2     :     0.135680  d :     0.552803
      dxz     :     0.166588
      dyz     :     0.118587
      dx2y2   :     0.069688
      dxy     :     0.062259
      f0      :     0.017146  f :     0.091197
      f+1     :     0.024046
      f-1     :     0.018092
      f+2     :     0.005027
      f-2     :     0.008553
      f+3     :     0.009981
      f-3     :     0.008351
 48 H s       :     0.782088  s :     0.782088
      pz      :     0.018905  p :     0.065047
      px      :     0.029587
      py      :     0.016555
 49 N s       :     2.973765  s :     2.973765
      pz      :     1.274113  p :     3.570761
      px      :     1.157368
      py      :     1.139279
      dz2     :     0.051733  d :     0.243647
      dxz     :     0.065277
      dyz     :     0.033349
      dx2y2   :     0.047857
      dxy     :     0.045432
      f0      :     0.003590  f :     0.021426
      f+1     :     0.004776
      f-1     :     0.002059
      f+2     :     0.003421
      f-2     :     0.003901
      f+3     :     0.001621
      f-3     :     0.002058
 50 C s       :     2.763325  s :     2.763325
      pz      :     0.962736  p :     2.900233
      px      :     0.969649
      py      :     0.967848
      dz2     :     0.143463  d :     0.448231
      dxz     :     0.116097
      dyz     :     0.096846
      dx2y2   :     0.038226
      dxy     :     0.053598
      f0      :     0.014380  f :     0.066741
      f+1     :     0.012817
      f-1     :     0.005307
      f+2     :     0.014194
      f-2     :     0.014001
      f+3     :     0.001887
      f-3     :     0.004154
 51 H s       :     0.784495  s :     0.784495
      pz      :     0.009313  p :     0.063829
      px      :     0.033834
      py      :     0.020683
 52 H s       :     0.682092  s :     0.682092
      pz      :     0.031075  p :     0.104314
      px      :     0.039276
      py      :     0.033963
 53 H s       :     0.729504  s :     0.729504
      pz      :     0.056893  p :     0.110751
      px      :     0.022497
      py      :     0.031361
 54 H s       :     0.730867  s :     0.730867
      pz      :     0.030054  p :     0.109899
      px      :     0.026185
      py      :     0.053660
 55 H s       :     0.776725  s :     0.776725
      pz      :     0.016841  p :     0.057360
      px      :     0.014261
      py      :     0.026258
 56 H s       :     0.639136  s :     0.639136
      pz      :     0.066177  p :     0.146256
      px      :     0.045395
      py      :     0.034684
 57 O s       :     3.628984  s :     3.628984
      pz      :     1.767762  p :     4.412484
      px      :     1.327057
      py      :     1.317665
      dz2     :     0.019397  d :     0.126220
      dxz     :     0.028992
      dyz     :     0.013336
      dx2y2   :     0.027669
      dxy     :     0.036827
      f0      :     0.001397  f :     0.013671
      f+1     :     0.002290
      f-1     :     0.000872
      f+2     :     0.001295
      f-2     :     0.002741
      f+3     :     0.001988
      f-3     :     0.003088
 58 O s       :     3.481582  s :     3.481582
      pz      :     1.618270  p :     4.259659
      px      :     1.355419
      py      :     1.285970
      dz2     :     0.037427  d :     0.187908
      dxz     :     0.048313
      dyz     :     0.029307
      dx2y2   :     0.034797
      dxy     :     0.038065
      f0      :     0.001849  f :     0.014931
      f+1     :     0.002923
      f-1     :     0.001383
      f+2     :     0.001116
      f-2     :     0.002797
      f+3     :     0.002162
      f-3     :     0.002701


                      *****************************
                      * MAYER POPULATION ANALYSIS *
                      *****************************

  NA   - Mulliken gross atomic population
  ZA   - Total nuclear charge
  QA   - Mulliken gross atomic charge
  VA   - Mayer's total valence
  BVA  - Mayer's bonded valence
  FA   - Mayer's free valence

  ATOM       NA         ZA         QA         VA         BVA        FA
  0 C      6.2260     6.0000    -0.2260     3.8530     3.8530     0.0000
  1 C      6.2201     6.0000    -0.2201     3.8508     3.8508    -0.0000
  2 C      5.7844     6.0000     0.2156     3.7391     3.7391     0.0000
  3 C      5.7848     6.0000     0.2152     3.7842     3.7842     0.0000
  4 N      7.0354     7.0000    -0.0354     3.1330     3.1330     0.0000
  5 C      6.3296     6.0000    -0.3296     3.7634     3.7634     0.0000
  6 C      5.7939     6.0000     0.2061     3.7970     3.7970    -0.0000
  7 N      7.0367     7.0000    -0.0367     3.1564     3.1564     0.0000
  8 C      5.7367     6.0000     0.2633     3.6413     3.6413    -0.0000
  9 C      6.2180     6.0000    -0.2180     3.8530     3.8530    -0.0000
 10 C      6.2179     6.0000    -0.2179     3.8423     3.8423     0.0000
 11 C      6.4324     6.0000    -0.4324     3.8851     3.8851    -0.0000
 12 C      5.7343     6.0000     0.2657     3.6375     3.6375     0.0000
 13 N      7.0395     7.0000    -0.0395     3.1582     3.1582     0.0000
 14 C      6.2181     6.0000    -0.2181     3.8515     3.8515     0.0000
 15 C      6.2161     6.0000    -0.2161     3.8410     3.8410    -0.0000
 16 C      5.7874     6.0000     0.2126     3.7902     3.7902    -0.0000
 17 N      7.0316     7.0000    -0.0316     3.1396     3.1396     0.0000
 18 C      5.7822     6.0000     0.2178     3.7377     3.7377    -0.0000
 19 C      6.2219     6.0000    -0.2219     3.8527     3.8527     0.0000
 20 C      6.2243     6.0000    -0.2243     3.8528     3.8528    -0.0000
 21 C      6.3696     6.0000    -0.3696     3.7764     3.7764    -0.0000
 22 C      6.3291     6.0000    -0.3291     3.7648     3.7648     0.0000
 23 C      5.7962     6.0000     0.2038     3.8007     3.8007    -0.0000
 24 H      0.8592     1.0000     0.1408     0.9735     0.9735     0.0000
 25 H      0.8592     1.0000     0.1408     0.9730     0.9730    -0.0000
 26 H      0.8585     1.0000     0.1415     0.9715     0.9715    -0.0000
 27 H      0.8581     1.0000     0.1419     0.9730     0.9730    -0.0000
 28 H      0.8580     1.0000     0.1420     0.9726     0.9726    -0.0000
 29 H      0.8657     1.0000     0.1343     0.9751     0.9751    -0.0000
 30 H      0.8583     1.0000     0.1417     0.9730     0.9730    -0.0000
 31 H      0.8583     1.0000     0.1417     0.9725     0.9725    -0.0000
 32 H      0.8592     1.0000     0.1408     0.9731     0.9731    -0.0000
 33 H      0.8592     1.0000     0.1408     0.9734     0.9734    -0.0000
 34 H      0.8641     1.0000     0.1359     0.9751     0.9751    -0.0000
 35 H      0.8588     1.0000     0.1412     0.9714     0.9714     0.0000
 36 Fe    26.1921    26.0000    -0.1921     5.1041     5.1041     0.0000
 37 N      7.5487     7.0000    -0.5487     2.9074     2.9074    -0.0000
 38 C      5.9101     6.0000     0.0899     3.7369     3.7369    -0.0000
 39 C      5.6973     6.0000     0.3027     4.3131     4.3131     0.0000
 40 O      8.3923     8.0000    -0.3923     2.1010     2.1010    -0.0000
 41 O      8.3721     8.0000    -0.3721     2.1150     2.1150    -0.0000
 42 C      6.3100     6.0000    -0.3100     3.8685     3.8685     0.0000
 43 H      0.8651     1.0000     0.1349     0.9826     0.9826    -0.0000
 44 H      0.8516     1.0000     0.1484     0.9721     0.9721    -0.0000
 45 C      5.8189     6.0000     0.1811     3.7013     3.7013    -0.0000
 46 N      7.2407     7.0000    -0.2407     3.4453     3.4453     0.0000
 47 C      5.9738     6.0000     0.0262     3.9562     3.9562    -0.0000
 48 H      0.7902     1.0000     0.2098     0.9439     0.9439    -0.0000
 49 N      7.0355     7.0000    -0.0355     3.1060     3.1060     0.0000
 50 C      6.2118     6.0000    -0.2118     4.0224     4.0224    -0.0000
 51 H      0.8162     1.0000     0.1838     0.9487     0.9487    -0.0000
 52 H      0.7290     1.0000     0.2710     0.9385     0.9385    -0.0000
 53 H      0.7570     1.0000     0.2430     0.9469     0.9469    -0.0000
 54 H      0.7633     1.0000     0.2367     0.9519     0.9519    -0.0000
 55 H      0.8763     1.0000     0.1237     0.9985     0.9985    -0.0000
 56 H      0.6402     1.0000     0.3598     0.9004     0.9004    -0.0000
 57 O      8.3046     8.0000    -0.3046     1.7968     1.7968    -0.0000
 58 O      8.0203     8.0000    -0.0203     2.1803     2.1803    -0.0000

  Mayer bond orders larger than 0.100000
B(  0-C ,  1-C ) :   1.6107 B(  0-C ,  3-C ) :   1.0979 B(  0-C , 24-H ) :   0.9991 
B(  1-C ,  2-C ) :   1.1020 B(  1-C , 25-H ) :   0.9988 B(  2-C ,  4-N ) :   1.2377 
B(  2-C , 21-C ) :   1.2693 B(  3-C ,  4-N ) :   1.2484 B(  3-C ,  5-C ) :   1.2904 
B(  4-N , 36-Fe) :   0.6271 B(  5-C ,  6-C ) :   1.2870 B(  5-C , 26-H ) :   1.0023 
B(  6-C ,  7-N ) :   1.2428 B(  6-C ,  9-C ) :   1.1041 B(  7-N ,  8-C ) :   1.2061 
B(  7-N , 36-Fe) :   0.6886 B(  8-C , 10-C ) :   1.1027 B(  8-C , 11-C ) :   1.2563 
B(  9-C , 10-C ) :   1.6039 B(  9-C , 27-H ) :   0.9985 B( 10-C , 28-H ) :   0.9993 
B( 11-C , 12-C ) :   1.2573 B( 11-C , 29-H ) :   1.0229 B( 11-C , 57-O ) :   0.1155 
B( 12-C , 13-N ) :   1.2039 B( 12-C , 15-C ) :   1.1021 B( 13-N , 23-C ) :   1.2444 
B( 13-N , 36-Fe) :   0.6897 B( 14-C , 15-C ) :   1.6032 B( 14-C , 23-C ) :   1.1038 
B( 14-C , 30-H ) :   0.9985 B( 15-C , 31-H ) :   0.9994 B( 16-C , 17-N ) :   1.2508 
B( 16-C , 20-C ) :   1.0988 B( 16-C , 22-C ) :   1.2898 B( 17-N , 18-C ) :   1.2372 
B( 17-N , 36-Fe) :   0.6310 B( 18-C , 19-C ) :   1.1025 B( 18-C , 21-C ) :   1.2673 
B( 19-C , 20-C ) :   1.6111 B( 19-C , 32-H ) :   0.9987 B( 20-C , 33-H ) :   0.9987 
B( 21-C , 34-H ) :   1.0217 B( 22-C , 23-C ) :   1.2867 B( 22-C , 35-H ) :   1.0030 
B( 36-Fe, 49-N ) :   0.5117 B( 36-Fe, 57-O ) :   0.4965 B( 36-Fe, 58-O ) :   1.0392 
B( 37-N , 38-C ) :   1.0017 B( 37-N , 53-H ) :   0.9263 B( 37-N , 54-H ) :   0.9268 
B( 38-C , 39-C ) :   0.9317 B( 38-C , 42-C ) :   0.9219 B( 38-C , 55-H ) :   0.9550 
B( 39-C , 40-O ) :   1.2523 B( 39-C , 41-O ) :   2.0346 B( 40-O , 56-H ) :   0.8367 
B( 42-C , 43-H ) :   0.9643 B( 42-C , 44-H ) :   0.9727 B( 42-C , 45-C ) :   0.9334 
B( 45-C , 46-N ) :   1.1211 B( 45-C , 50-C ) :   1.6039 B( 46-N , 47-C ) :   1.3094 
B( 46-N , 52-H ) :   0.9008 B( 47-C , 48-H ) :   0.9396 B( 47-C , 49-N ) :   1.4580 
B( 49-N , 50-C ) :   1.2266 B( 50-C , 51-H ) :   0.9619 B( 57-O , 58-O ) :   1.2017 


-------
TIMINGS
-------

Total SCF time: 0 days 2 hours 34 min 21 sec 

Total time                  ....    9261.523 sec
Sum of individual times     ....    9238.758 sec  ( 99.8%)

Fock matrix formation       ....    9144.005 sec  ( 98.7%)
  Split-RI-J                ....     584.482 sec  (  6.4% of F)
  Chain of spheres X        ....    7375.520 sec  ( 80.7% of F)
  XC integration            ....     387.825 sec  (  4.2% of F)
    Basis function eval.    ....     104.210 sec  ( 26.9% of XC)
    Density eval.           ....     209.375 sec  ( 54.0% of XC)
    XC-Functional eval.     ....       6.174 sec  (  1.6% of XC)
    XC-Potential eval.      ....      58.526 sec  ( 15.1% of XC)
Diagonalization             ....      21.035 sec  (  0.2%)
Density matrix formation    ....       1.926 sec  (  0.0%)
Population analysis         ....       0.836 sec  (  0.0%)
Initial guess               ....       2.302 sec  (  0.0%)
Orbital Transformation      ....       0.000 sec  (  0.0%)
Orbital Orthonormalization  ....       2.016 sec  (  0.0%)
DIIS solution               ....       8.272 sec  (  0.1%)
Grid generation             ....      60.382 sec  (  0.7%)

Maximum memory used throughout the entire SCF-calculation: 1252.6 MB


-------------------------------------------------------------------------------
                          DFT DISPERSION CORRECTION                            
                                                                               
                                 DFTD4 V2.5                                    
-------------------------------------------------------------------------------
The B3LYP functional is recognized
Active option DFTDOPT                   ...         5   

Starting D4
-------------------------   ----------------
Dispersion correction           -0.174895380
-------------------------   ----------------


-------------------------   --------------------
FINAL SINGLE POINT ENERGY     -2951.093619398224
-------------------------   --------------------

                                *** OPTIMIZATION RUN DONE ***

                            ***************************************
                            *     ORCA property calculations      *
                            ***************************************

                                    ---------------------
                                    Active property flags
                                    ---------------------
   (+) Dipole Moment


------------------------------------------------------------------------------
                       ORCA ELECTRIC PROPERTIES CALCULATION
------------------------------------------------------------------------------

Dipole Moment Calculation                       ... on
Quadrupole Moment Calculation                   ... off
Polarizability Calculation                      ... off
GBWName                                         ... Fe_O2_Porphyrin_opt.gbw
Electron density                                ... Fe_O2_Porphyrin_opt.scfp
The origin for moment calculation is the CENTER OF MASS  = ( 0.494263, -0.599262  3.077186)

-------------
DIPOLE MOMENT
-------------
                                X             Y             Z
Electronic contribution:     -2.44424       0.17839     -19.18775
Nuclear contribution   :      4.66321      -2.46996      23.05163
                        -----------------------------------------
Total Dipole Moment    :      2.21897      -2.29157       3.86388
                        -----------------------------------------
Magnitude (a.u.)       :      5.01046
Magnitude (Debye)      :     12.73557



--------------------
Rotational spectrum 
--------------------
 
Rotational constants in cm-1:     0.004510     0.002689     0.002593 
Rotational constants in MHz :   135.204212    80.623974    77.736921 

 Dipole components along the rotational axes: 
x,y,z [a.u.] :     3.181631    -2.101252     3.250637 
x,y,z [Debye]:     8.087062    -5.340959     8.262461 

 

Timings for individual modules:

Sum of individual times         ...   374775.100 sec (=6246.252 min)
GTO integral calculation        ...      222.936 sec (=   3.716 min)   0.1 %
SCF iterations                  ...   328694.121 sec (=5478.235 min)  87.7 %
SCF Gradient evaluation         ...    45834.116 sec (= 763.902 min)  12.2 %
Geometry relaxation             ...       23.927 sec (=   0.399 min)   0.0 %
                             ****ORCA TERMINATED NORMALLY****
TOTAL RUN TIME: 4 days 8 hours 7 minutes 28 seconds 200 msec
