
                                 *****************
                                 * O   R   C   A *
                                 *****************

                                            #,                                       
                                            ###                                      
                                            ####                                     
                                            #####                                    
                                            ######                                   
                                           ########,                                 
                                     ,,################,,,,,                         
                               ,,#################################,,                 
                          ,,##########################################,,             
                       ,#########################################, ''#####,          
                    ,#############################################,,   '####,        
                  ,##################################################,,,,####,       
                ,###########''''           ''''###############################       
              ,#####''   ,,,,##########,,,,          '''####'''          '####       
            ,##' ,,,,###########################,,,                        '##       
           ' ,,###''''                  '''############,,,                           
         ,,##''                                '''############,,,,        ,,,,,,###''
      ,#''                                            '''#######################'''  
     '                                                          ''''####''''         
             ,#######,   #######,   ,#######,      ##                                
            ,#'     '#,  ##    ##  ,#'     '#,    #''#        ######   ,####,        
            ##       ##  ##   ,#'  ##            #'  '#       #        #'  '#        
            ##       ##  #######   ##           ,######,      #####,   #    #        
            '#,     ,#'  ##    ##  '#,     ,#' ,#      #,         ##   #,  ,#        
             '#######'   ##     ##  '#######'  #'      '#     #####' # '####'        



                  #######################################################
                  #                        -***-                        #
                  #          Department of theory and spectroscopy      #
                  #    Directorship and core code : Frank Neese         #
                  #        Max Planck Institute fuer Kohlenforschung    #
                  #                Kaiser Wilhelm Platz 1               #
                  #                 D-45470 Muelheim/Ruhr               #
                  #                      Germany                        #
                  #                                                     #
                  #                  All rights reserved                #
                  #                        -***-                        #
                  #######################################################



                         Program Version 5.0.4 -  RELEASE  -

 With contributions from (in alphabetic order):
   Daniel Aravena         : Magnetic Suceptibility
   Michael Atanasov       : Ab Initio Ligand Field Theory (pilot matlab implementation)
   Alexander A. Auer      : GIAO ZORA, VPT2 properties, NMR spectrum
   Ute Becker             : Parallelization
   Giovanni Bistoni       : ED, misc. LED, open-shell LED, HFLD
   Martin Brehm           : Molecular dynamics
   Dmytro Bykov           : SCF Hessian
   Vijay G. Chilkuri      : MRCI spin determinant printing, contributions to CSF-ICE
   Dipayan Datta          : RHF DLPNO-CCSD density
   Achintya Kumar Dutta   : EOM-CC, STEOM-CC
   Dmitry Ganyushin       : Spin-Orbit,Spin-Spin,Magnetic field MRCI
   Miquel Garcia          : C-PCM and meta-GGA Hessian, CC/C-PCM, Gaussian charge scheme
   Yang Guo               : DLPNO-NEVPT2, F12-NEVPT2, CIM, IAO-localization
   Andreas Hansen         : Spin unrestricted coupled pair/coupled cluster methods
   Benjamin Helmich-Paris : MC-RPA, TRAH-SCF, COSX integrals
   Lee Huntington         : MR-EOM, pCC
   Robert Izsak           : Overlap fitted RIJCOSX, COSX-SCS-MP3, EOM
   Marcus Kettner         : VPT2
   Christian Kollmar      : KDIIS, OOCD, Brueckner-CCSD(T), CCSD density, CASPT2, CASPT2-K
   Simone Kossmann        : Meta GGA functionals, TD-DFT gradient, OOMP2, MP2 Hessian
   Martin Krupicka        : Initial AUTO-CI
   Lucas Lang             : DCDCAS
   Marvin Lechner         : AUTO-CI (C++ implementation), FIC-MRCC
   Dagmar Lenk            : GEPOL surface, SMD
   Dimitrios Liakos       : Extrapolation schemes; Compound Job, initial MDCI parallelization
   Dimitrios Manganas     : Further ROCIS development; embedding schemes
   Dimitrios Pantazis     : SARC Basis sets
   Anastasios Papadopoulos: AUTO-CI, single reference methods and gradients
   Taras Petrenko         : DFT Hessian,TD-DFT gradient, ASA, ECA, R-Raman, ABS, FL, XAS/XES, NRVS
   Peter Pinski           : DLPNO-MP2, DLPNO-MP2 Gradient
   Christoph Reimann      : Effective Core Potentials
   Marius Retegan         : Local ZFS, SOC
   Christoph Riplinger    : Optimizer, TS searches, QM/MM, DLPNO-CCSD(T), (RO)-DLPNO pert. Triples
   Tobias Risthaus        : Range-separated hybrids, TD-DFT gradient, RPA, STAB
   Michael Roemelt        : Original ROCIS implementation
   Masaaki Saitow         : Open-shell DLPNO-CCSD energy and density
   Barbara Sandhoefer     : DKH picture change effects
   Avijit Sen             : IP-ROCIS
   Kantharuban Sivalingam : CASSCF convergence, NEVPT2, FIC-MRCI
   Bernardo de Souza      : ESD, SOC TD-DFT
   Georgi Stoychev        : AutoAux, RI-MP2 NMR, DLPNO-MP2 response
   Willem Van den Heuvel  : Paramagnetic NMR
   Boris Wezisla          : Elementary symmetry handling
   Frank Wennmohs         : Technical directorship


 We gratefully acknowledge several colleagues who have allowed us to
 interface, adapt or use parts of their codes:
   Stefan Grimme, W. Hujo, H. Kruse, P. Pracht,  : VdW corrections, initial TS optimization,
                  C. Bannwarth, S. Ehlert          DFT functionals, gCP, sTDA/sTD-DF
   Ed Valeev, F. Pavosevic, A. Kumar             : LibInt (2-el integral package), F12 methods
   Garnet Chan, S. Sharma, J. Yang, R. Olivares  : DMRG
   Ulf Ekstrom                                   : XCFun DFT Library
   Mihaly Kallay                                 : mrcc  (arbitrary order and MRCC methods)
   Jiri Pittner, Ondrej Demel                    : Mk-CCSD
   Frank Weinhold                                : gennbo (NPA and NBO analysis)
   Christopher J. Cramer and Donald G. Truhlar   : smd solvation model
   Lars Goerigk                                  : TD-DFT with DH, B97 family of functionals
   V. Asgeirsson, H. Jonsson                     : NEB implementation
   FAccTs GmbH                                   : IRC, NEB, NEB-TS, DLPNO-Multilevel, CI-OPT
                                                   MM, QMMM, 2- and 3-layer-ONIOM, Crystal-QMMM,
                                                   LR-CPCM, SF, NACMEs, symmetry and pop. for TD-DFT,
                                                   nearIR, NL-DFT gradient (VV10), updates on ESD,
                                                   ML-optimized integration grids
   S Lehtola, MJT Oliveira, MAL Marques          : LibXC Library
   Liviu Ungur et al                             : ANISO software


 Your calculation uses the libint2 library for the computation of 2-el integrals
 For citations please refer to: http://libint.valeyev.net

 Your ORCA version has been built with support for libXC version: 5.1.0
 For citations please refer to: https://tddft.org/programs/libxc/

 This ORCA versions uses:
   CBLAS   interface :  Fast vector & matrix operations
   LAPACKE interface :  Fast linear algebra routines
   Shared memory     :  Shared parallel matrices


Your calculation utilizes the atom-pairwise dispersion correction
based on tight binding partial charges (D4)
Cite in your paper:
E.Caldeweyher, C.Bannwarth, S.Grimme, J.Chem.Phys., (2017), 147, 034112.
E.Caldeweyher, S.Ehlert, A.Hansen, H.Neugebauer, S.Grimme, J.Chem.Phys., (2018), in progress.
   

================================================================================

----- Orbital basis set information -----
Your calculation utilizes the basis: def2-TZVP
   F. Weigend and R. Ahlrichs, Phys. Chem. Chem. Phys. 7, 3297 (2005).

----- AuxJ basis set information -----
Your calculation utilizes the auxiliary basis: def2/J
   F. Weigend, Phys. Chem. Chem. Phys. 8, 1057 (2006).

================================================================================
                                        WARNINGS
                       Please study these warnings very carefully!
================================================================================


WARNING: Geometry Optimization
  ===> : Switching off AutoStart
         For restart on a previous wavefunction, please use MOREAD

INFO   : the flag for use of the SHARK integral package has been found!

================================================================================
                                       INPUT FILE
================================================================================
NAME = educts_optfreq_5.inp
|  1> !B3LYP/G DEF2-TZVP OPT FREQ D4 SOSCF 
|  2> 
|  3> * xyz 1 1
|  4>   C   -6.16080807382348      0.63002515698793      1.79702894420810
|  5>   C   -6.68262051276152      0.94817644035368      0.52704046229478
|  6>   C   -6.43373402367450      0.13569063078082     -0.55762623089735
|  7>   C   -5.65400897565042     -1.02092563223454     -0.40301505808275
|  8>   C   -5.12629169733383     -1.35315453896726      0.85205543833054
|  9>   C   -5.37612967556257     -0.54140153101108      1.93445728054667
| 10>   C   -6.41641113795001      1.49776862955388      2.97742149230146
| 11>   H   -5.47452374485395      1.90294510850537      3.36478729472822
| 12>   H   -6.85080745613723      0.91688800317799      3.79746153362838
| 13>   H   -7.07914285492733      2.32816449526936      2.74353058313805
| 14>   H   -7.28405713040435      1.84034510837073      0.41210164349752
| 15>   H   -6.83848467356641      0.38386947313627     -1.52925489443207
| 16>   H   -5.46080445353501     -1.65854864911136     -1.25541303128480
| 17>   H   -4.52628857362353     -2.24575984078998      0.96497422725628
| 18>   H   -4.97247458316258     -0.79232963905652      2.90713732263557
| 19>   N   -9.24671       -0.66635      -13.27570
| 20>   O   -8.40203       -0.79494      -12.30682
| 21>   O   -8.11910       -0.61867      -14.68009
| 22> **                         ****END OF INPUT****
================================================================================

                       *****************************
                       * Geometry Optimization Run *
                       *****************************

Geometry optimization settings:
Update method            Update   .... BFGS
Choice of coordinates    CoordSys .... Z-matrix Internals
Initial Hessian          InHess   .... Almoef's Model

Convergence Tolerances:
Energy Change            TolE     ....  5.0000e-06 Eh
Max. Gradient            TolMAXG  ....  3.0000e-04 Eh/bohr
RMS Gradient             TolRMSG  ....  1.0000e-04 Eh/bohr
Max. Displacement        TolMAXD  ....  4.0000e-03 bohr
RMS Displacement         TolRMSD  ....  2.0000e-03 bohr
Strict Convergence                ....  False
------------------------------------------------------------------------------
                        ORCA OPTIMIZATION COORDINATE SETUP
------------------------------------------------------------------------------

The optimization will be done in new redundant internal coordinates
Making redundant internal coordinates   ...  (new redundants) done
Evaluating the initial hessian          ...  (Almloef) done
Evaluating the coordinates              ...  done
Calculating the B-matrix                .... done
Calculating the G-matrix                .... done
Diagonalizing the G-matrix              .... done
Small eigenvalue found = 2.164e-02
The first mode is                       ....   59
The number of degrees of freedom        ....   48

    -----------------------------------------------------------------
                    Redundant Internal Coordinates


    -----------------------------------------------------------------
         Definition                    Initial Value    Approx d2E/dq
    -----------------------------------------------------------------
      1. B(C   1,C   0)                  1.4094         0.581840   
      2. B(C   2,C   1)                  1.3779         0.653221   
      3. B(C   3,C   2)                  1.4034         0.594703   
      4. B(C   4,C   3)                  1.4015         0.599060   
      5. B(C   5,C   4)                  1.3758         0.658140   
      6. B(C   5,C   0)                  1.4166         0.566563   
      7. B(C   6,C   0)                  1.4872         0.437250   
      8. B(H   7,C   6)                  1.0961         0.352157   
      9. B(H   8,C   6)                  1.0948         0.353805   
     10. B(H   9,C   6)                  1.0879         0.362920   
     11. B(H  10,C   1)                  1.0821         0.370728   
     12. B(H  11,C   2)                  1.0814         0.371625   
     13. B(H  12,C   3)                  1.0819         0.370998   
     14. B(H  13,C   4)                  1.0814         0.371612   
     15. B(H  14,C   5)                  1.0826         0.370032   
     16. B(O  16,H  12)                 11.4687         0.000000   
     17. B(O  16,H  11)                 10.9540         0.000000   
     18. B(O  16,C   2)                 11.9492         0.000000   
     19. B(O  16,N  15)                  1.2918         0.718925   
     20. B(O  17,N  15)                  1.8017         0.110455   
     21. A(C   5,C   0,C   6)          120.0461         0.401403   
     22. A(C   1,C   0,C   6)          121.3234         0.403290   
     23. A(C   1,C   0,C   5)          118.6303         0.422272   
     24. A(C   2,C   1,H  10)          120.1954         0.357809   
     25. A(C   0,C   1,C   2)          120.6205         0.433182   
     26. A(C   0,C   1,H  10)          119.1841         0.350860   
     27. A(C   3,C   2,O  16)           97.7964         0.089051   
     28. A(C   1,C   2,O  16)          142.2030         0.089052   
     29. A(H  11,C   2,O  16)           21.9961         0.089040   
     30. A(C   3,C   2,H  11)          119.7393         0.352303   
     31. A(C   1,C   2,C   3)          119.9728         0.434890   
     32. A(C   1,C   2,H  11)          120.2878         0.357956   
     33. A(C   2,C   3,C   4)          120.2141         0.428180   
     34. A(C   4,C   3,H  12)          119.9094         0.352638   
     35. A(C   2,C   3,H  12)          119.8765         0.352202   
     36. A(C   5,C   4,H  13)          120.3703         0.358411   
     37. A(C   3,C   4,H  13)          119.8741         0.352736   
     38. A(C   3,C   4,C   5)          119.7556         0.436051   
     39. A(C   4,C   5,H  14)          120.1578         0.358151   
     40. A(C   0,C   5,C   4)          120.8066         0.431697   
     41. A(C   0,C   5,H  14)          119.0357         0.349177   
     42. A(H   8,C   6,H   9)          108.9246         0.290391   
     43. A(H   7,C   6,H   9)          108.5006         0.290178   
     44. A(C   0,C   6,H   9)          112.2993         0.333283   
     45. A(H   7,C   6,H   8)          105.8062         0.289023   
     46. A(C   0,C   6,H   8)          110.6789         0.331881   
     47. A(C   0,C   6,H   7)          110.3963         0.331625   
     48. A(C   2,H  11,O  16)          155.8848         0.089054   
     49. A(C   3,H  12,O  16)          131.9930         0.089035   
     50. A(O  16,N  15,O  17)          100.2549         0.322552   
     51. A(H  11,O  16,N  15)          145.1412         0.089071   
     52. A(C   2,O  16,N  15)          146.8690         0.089052   
     53. A(H  11,O  16,H  12)           12.4195         0.089000   
     54. A(C   2,O  16,H  12)           10.3059         0.089000   
     55. A(H  12,O  16,N  15)          153.8864         0.089046   
     56. D(C   2,C   1,C   0,C   6)    179.8249         0.023266   
     57. D(C   2,C   1,C   0,C   5)     -0.0060         0.023266   
     58. D(H  10,C   1,C   0,C   6)     -0.2314         0.023266   
     59. D(H  10,C   1,C   0,C   5)    179.9377         0.023266   
     60. D(O  16,C   2,C   1,H  10)      2.4911         0.032323   
     61. D(O  16,C   2,C   1,C   0)   -177.5658         0.032323   
     62. D(C   3,C   2,C   1,H  10)   -179.9460         0.032323   
     63. D(H  11,C   2,C   1,H  10)     -0.0681         0.032323   
     64. D(C   3,C   2,C   1,C   0)     -0.0029         0.032323   
     65. D(H  11,C   2,C   1,C   0)    179.8750         0.032323   
     66. D(H  12,C   3,C   2,C   1)    179.9083         0.026458   
     67. D(C   4,C   3,C   2,H  11)   -179.9000         0.026458   
     68. D(C   4,C   3,C   2,O  16)    178.4714         0.026458   
     69. D(H  12,C   3,C   2,H  11)      0.0297         0.026458   
     70. D(C   4,C   3,C   2,C   1)     -0.0214         0.026458   
     71. D(H  12,C   3,C   2,O  16)     -1.5990         0.026458   
     72. D(H  13,C   4,C   3,H  12)      0.0636         0.024736   
     73. D(H  13,C   4,C   3,C   2)    179.9932         0.024736   
     74. D(C   5,C   4,C   3,H  12)   -179.8746         0.024736   
     75. D(C   5,C   4,C   3,C   2)      0.0551         0.024736   
     76. D(H  14,C   5,C   4,H  13)      0.0056         0.030212   
     77. D(H  14,C   5,C   4,C   3)    179.9434         0.030212   
     78. D(C   0,C   5,C   4,H  13)    179.9977         0.030212   
     79. D(H  14,C   5,C   0,C   6)      0.1992         0.022008   
     80. D(H  14,C   5,C   0,C   1)   -179.9677         0.022008   
     81. D(C   4,C   5,C   0,C   6)   -179.7930         0.022008   
     82. D(C   0,C   5,C   4,C   3)     -0.0645         0.030212   
     83. D(C   4,C   5,C   0,C   1)      0.0401         0.022008   
     84. D(H   8,C   6,C   0,C   1)    125.5112         0.014110   
     85. D(H   7,C   6,C   0,C   5)     62.1451         0.014110   
     86. D(H   7,C   6,C   0,C   1)   -117.6835         0.014110   
     87. D(H   9,C   6,C   0,C   5)   -176.6303         0.014110   
     88. D(H   9,C   6,C   0,C   1)      3.5412         0.014110   
     89. D(H   8,C   6,C   0,C   5)    -54.6602         0.014110   
     90. D(O  16,H  11,C   2,C   3)     -4.3117         0.131174   
     91. D(O  16,H  11,C   2,C   1)    175.8101         0.131174   
     92. D(O  16,H  12,C   3,C   4)   -177.8490         0.117887   
     93. D(O  16,H  12,C   3,C   2)      2.2211         0.117887   
     94. D(H  12,O  16,N  15,O  17)    177.6460         0.050801   
     95. D(H  11,O  16,N  15,O  17)    160.0467         0.050801   
     96. D(C   2,O  16,N  15,O  17)    162.2416         0.050801   
     97. D(H  11,O  16,H  12,C   3)     -2.0386         0.001500   
     98. D(C   2,O  16,H  12,C   3)     -1.2642         0.001500   
     99. D(N  15,O  16,H  12,C   3)    -55.5078         0.001500   
    100. D(H  12,O  16,H  11,C   2)      3.7496         0.001500   
    101. D(N  15,O  16,H  11,C   2)    145.5211         0.001500   
    102. D(H  12,O  16,C   2,H  11)   -175.4910         0.001500   
    103. D(H  12,O  16,C   2,C   3)      0.7310         0.001500   
    104. D(H  12,O  16,C   2,C   1)    178.6003         0.001500   
    105. D(N  15,O  16,C   2,H  11)    -36.2990         0.001500   
    106. D(N  15,O  16,C   2,C   3)    139.9231         0.001500   
    107. D(N  15,O  16,C   2,C   1)    -42.2076         0.001500   
    -----------------------------------------------------------------

Number of atoms                         .... 18
Number of degrees of freedom            .... 107

         *************************************************************
         *                GEOMETRY OPTIMIZATION CYCLE   1            *
         *************************************************************
---------------------------------
CARTESIAN COORDINATES (ANGSTROEM)
---------------------------------
  C     -6.160808    0.630025    1.797029
  C     -6.682621    0.948176    0.527040
  C     -6.433734    0.135691   -0.557626
  C     -5.654009   -1.020926   -0.403015
  C     -5.126292   -1.353155    0.852055
  C     -5.376130   -0.541402    1.934457
  C     -6.416411    1.497769    2.977421
  H     -5.474524    1.902945    3.364787
  H     -6.850807    0.916888    3.797462
  H     -7.079143    2.328164    2.743531
  H     -7.284057    1.840345    0.412102
  H     -6.838485    0.383869   -1.529255
  H     -5.460804   -1.658549   -1.255413
  H     -4.526289   -2.245760    0.964974
  H     -4.972475   -0.792330    2.907137
  N     -9.246710   -0.666350  -13.275700
  O     -8.402030   -0.794940  -12.306820
  O     -8.119100   -0.618670  -14.680090

----------------------------
CARTESIAN COORDINATES (A.U.)
----------------------------
  NO LB      ZA    FRAG     MASS         X           Y           Z
   0 C     6.0000    0    12.011  -11.642240    1.190575    3.395893
   1 C     6.0000    0    12.011  -12.628323    1.791794    0.995962
   2 C     6.0000    0    12.011  -12.157995    0.256418   -1.053761
   3 C     6.0000    0    12.011  -10.684529   -1.929270   -0.761588
   4 C     6.0000    0    12.011   -9.687287   -2.557091    1.610151
   5 C     6.0000    0    12.011  -10.159413   -1.023101    3.655594
   6 C     6.0000    0    12.011  -12.125260    2.830373    5.626511
   7 H     1.0000    0     1.008  -10.345351    3.596045    6.358526
   8 H     1.0000    0     1.008  -12.946150    1.732667    7.176162
   9 H     1.0000    0     1.008  -13.377641    4.399593    5.184521
  10 H     1.0000    0     1.008  -13.764873    3.477748    0.778759
  11 H     1.0000    0     1.008  -12.922863    0.725408   -2.889873
  12 H     1.0000    0     1.008  -10.319425   -3.134203   -2.372387
  13 H     1.0000    0     1.008   -8.553446   -4.243871    1.823537
  14 H     1.0000    0     1.008   -9.396615   -1.497286    5.493693
  15 N     7.0000    0    14.007  -17.473750   -1.259219  -25.087437
  16 O     8.0000    0    15.999  -15.877536   -1.502219  -23.256519
  17 O     8.0000    0    15.999  -15.342875   -1.169117  -27.741350

--------------------------------
INTERNAL COORDINATES (ANGSTROEM)
--------------------------------
 C      0   0   0     0.000000000000     0.00000000     0.00000000
 C      1   0   0     1.409389656813     0.00000000     0.00000000
 C      2   1   0     1.377889513179   120.62052890     0.00000000
 C      3   2   1     1.403437545866   119.97279805     0.00000000
 C      4   3   2     1.401450506893   120.21414892     0.00000000
 C      5   4   3     1.375847269621   119.75559019     0.05506285
 C      1   2   3     1.487157768418   121.32336461   179.82489079
 H      7   1   2     1.096071213589   110.39626736   242.31651936
 H      7   1   2     1.094800499056   110.67893089   125.51123420
 H      7   1   2     1.087876638169   112.29934235     3.54115200
 H      2   1   3     1.082082191564   119.18407284   179.94372788
 H      3   2   1     1.081424100981   120.28782017   179.87504576
 H      4   3   2     1.081884191462   119.87645386   179.90826334
 H      5   4   3     1.081433597683   119.87411926   179.99321235
 H      6   5   4     1.082593558685   120.15776211   179.94344384
 N     12   3   2    12.036672413203   158.69614310   181.29470234
 O     16  12   3     1.291800350248    31.34205963   320.45956460
 O     16  12   3     1.801690585700   129.28378935   294.74793109

---------------------------
INTERNAL COORDINATES (A.U.)
---------------------------
 C      0   0   0     0.000000000000     0.00000000     0.00000000
 C      1   0   0     2.663360467357     0.00000000     0.00000000
 C      2   1   0     2.603833822710   120.62052890     0.00000000
 C      3   2   1     2.652112607750   119.97279805     0.00000000
 C      4   3   2     2.648357648272   120.21414892     0.00000000
 C      5   4   3     2.599974541687   119.75559019     0.05506285
 C      1   2   3     2.810320900244   121.32336461   179.82489079
 H      7   1   2     2.071274416958   110.39626736   242.31651936
 H      7   1   2     2.068873114496   110.67893089   125.51123420
 H      7   1   2     2.055788913631   112.29934235     3.54115200
 H      2   1   3     2.044838996449   119.18407284   179.94372788
 H      3   2   1     2.043595385477   120.28782017   179.87504576
 H      4   3   2     2.044464830482   119.87645386   179.90826334
 H      5   4   3     2.043613331641   119.87411926   179.99321235
 H      6   5   4     2.045805340261   120.15776211   179.94344384
 N     12   3   2    22.746014424678   158.69614310   181.29470234
 O     16  12   3     2.441148881672    31.34205963   320.45956460
 O     16  12   3     3.404701785037   129.28378935   294.74793109

---------------------
BASIS SET INFORMATION
---------------------
There are 4 groups of distinct atoms

 Group   1 Type C   : 11s6p2d1f contracted to 5s3p2d1f pattern {62111/411/11/1}
 Group   2 Type H   : 5s1p contracted to 3s1p pattern {311/1}
 Group   3 Type N   : 11s6p2d1f contracted to 5s3p2d1f pattern {62111/411/11/1}
 Group   4 Type O   : 11s6p2d1f contracted to 5s3p2d1f pattern {62111/411/11/1}

Atom   0C    basis set group =>   1
Atom   1C    basis set group =>   1
Atom   2C    basis set group =>   1
Atom   3C    basis set group =>   1
Atom   4C    basis set group =>   1
Atom   5C    basis set group =>   1
Atom   6C    basis set group =>   1
Atom   7H    basis set group =>   2
Atom   8H    basis set group =>   2
Atom   9H    basis set group =>   2
Atom  10H    basis set group =>   2
Atom  11H    basis set group =>   2
Atom  12H    basis set group =>   2
Atom  13H    basis set group =>   2
Atom  14H    basis set group =>   2
Atom  15N    basis set group =>   3
Atom  16O    basis set group =>   4
Atom  17O    basis set group =>   4
---------------------------------
AUXILIARY/J BASIS SET INFORMATION
---------------------------------
There are 4 groups of distinct atoms

 Group   1 Type C   : 12s5p4d2f1g contracted to 6s4p3d1f1g pattern {711111/2111/211/2/1}
 Group   2 Type H   : 5s2p1d contracted to 3s1p1d pattern {311/2/1}
 Group   3 Type N   : 12s5p4d2f1g contracted to 6s4p3d1f1g pattern {711111/2111/211/2/1}
 Group   4 Type O   : 12s5p4d2f1g contracted to 6s4p3d1f1g pattern {711111/2111/211/2/1}

Atom   0C    basis set group =>   1
Atom   1C    basis set group =>   1
Atom   2C    basis set group =>   1
Atom   3C    basis set group =>   1
Atom   4C    basis set group =>   1
Atom   5C    basis set group =>   1
Atom   6C    basis set group =>   1
Atom   7H    basis set group =>   2
Atom   8H    basis set group =>   2
Atom   9H    basis set group =>   2
Atom  10H    basis set group =>   2
Atom  11H    basis set group =>   2
Atom  12H    basis set group =>   2
Atom  13H    basis set group =>   2
Atom  14H    basis set group =>   2
Atom  15N    basis set group =>   3
Atom  16O    basis set group =>   4
Atom  17O    basis set group =>   4
------------------------------------------------------------------------------
                           ORCA GTO INTEGRAL CALCULATION
                           -- RI-GTO INTEGRALS CHOSEN --
------------------------------------------------------------------------------
------------------------------------------------------------------------------
                   ___                                                        
                  /   \      - P O W E R E D   B Y -                         
                 /     \                                                     
                 |  |  |   _    _      __       _____    __    __             
                 |  |  |  | |  | |    /  \     |  _  \  |  |  /  |          
                  \  \/   | |  | |   /    \    | | | |  |  | /  /          
                 / \  \   | |__| |  /  /\  \   | |_| |  |  |/  /          
                |  |  |   |  __  | /  /__\  \  |    /   |      \           
                |  |  |   | |  | | |   __   |  |    \   |  |\   \          
                \     /   | |  | | |  |  |  |  | |\  \  |  | \   \       
                 \___/    |_|  |_| |__|  |__|  |_| \__\ |__|  \__/        
                                                                              
                      - O R C A' S   B I G   F R I E N D -                    
                                      &                                       
                       - I N T E G R A L  F E E D E R -                       
                                                                              
 v1 FN, 2020, v2 2021                                                         
------------------------------------------------------------------------------


Reading SHARK input file educts_optfreq_5.SHARKINP.tmp ... ok
----------------------
SHARK INTEGRAL PACKAGE
----------------------

Number of atoms                             ...     18
Number of basis functions                   ...    358
Number of shells                            ...    142
Maximum angular momentum                    ...      3
Integral batch strategy                     ... SHARK/LIBINT Hybrid
RI-J (if used) integral strategy            ... SPLIT-RIJ (Revised 2003 algorithm where possible)
Printlevel                                  ...      1
Contraction scheme used                     ... SEGMENTED contraction
Coulomb Range Separation                    ... NOT USED
Exchange Range Separation                   ... NOT USED
Finite Nucleus Model                        ... NOT USED
Auxiliary Coulomb fitting basis             ... AVAILABLE
   # of basis functions in Aux-J            ...    578
   # of shells in Aux-J                     ...    190
   Maximum angular momentum in Aux-J        ...      4
Auxiliary J/K fitting basis                 ... NOT available
Auxiliary Correlation fitting basis         ... NOT available
Auxiliary 'external' fitting basis          ... NOT available
Integral threshold                          ...     2.500000e-11
Primitive cut-off                           ...     2.500000e-12
Primitive pair pre-selection threshold      ...     2.500000e-12

Calculating pre-screening integrals         ... done (  0.5 sec) Dimension = 142
Organizing shell pair data                  ... done (  0.7 sec)
Shell pair information
Total number of shell pairs                 ...     10153
Shell pairs after pre-screening             ...      6187
Total number of primitive shell pairs       ...     31120
Primitive shell pairs kept                  ...     14610
          la=0 lb=0:   1708 shell pairs
          la=1 lb=0:   1738 shell pairs
          la=1 lb=1:    462 shell pairs
          la=2 lb=0:    883 shell pairs
          la=2 lb=1:    451 shell pairs
          la=2 lb=2:    125 shell pairs
          la=3 lb=0:    441 shell pairs
          la=3 lb=1:    229 shell pairs
          la=3 lb=2:    116 shell pairs
          la=3 lb=3:     34 shell pairs

Calculating one electron integrals          ... done (  0.5 sec)
Calculating RI/J V-Matrix + Cholesky decomp.... done (  0.1 sec)
Calculating Nuclear repulsion               ... done (  0.0 sec) ENN=    364.572834675494 Eh

SHARK setup successfully completed in   3.2 seconds

Maximum memory used throughout the entire GTOINT-calculation: 91.9 MB
-------------------------------------------------------------------------------
                                 ORCA SCF
-------------------------------------------------------------------------------

------------
SCF SETTINGS
------------
Hamiltonian:
 Density Functional     Method          .... DFT(GTOs)
 Exchange Functional    Exchange        .... B88
   X-Alpha parameter    XAlpha          ....  0.666667
   Becke's b parameter  XBeta           ....  0.004200
 Correlation Functional Correlation     .... LYP
 LDA part of GGA corr.  LDAOpt          .... VWN-3
 Gradients option       PostSCFGGA      .... off
 Hybrid DFT is turned on
   Fraction HF Exchange ScalHFX         ....  0.200000
   Scaling of DF-GGA-X  ScalDFX         ....  0.720000
   Scaling of DF-GGA-C  ScalDFC         ....  0.810000
   Scaling of DF-LDA-C  ScalLDAC        ....  1.000000
   Perturbative correction              ....  0.000000
   Density functional embedding theory  .... OFF
   NL short-range parameter             ....  4.800000
 RI-approximation to the Coulomb term is turned on
   Number of AuxJ basis functions       .... 578
   RIJ-COSX (HFX calculated with COS-X)).... on


General Settings:
 Integral files         IntName         .... educts_optfreq_5
 Hartree-Fock type      HFTyp           .... RHF
 Total Charge           Charge          ....    1
 Multiplicity           Mult            ....    1
 Number of Electrons    NEL             ....   72
 Basis Dimension        Dim             ....  358
 Nuclear Repulsion      ENuc            ....    364.5728346755 Eh

Convergence Acceleration:
 DIIS                   CNVDIIS         .... on
   Start iteration      DIISMaxIt       ....    12
   Startup error        DIISStart       ....  0.200000
   # of expansion vecs  DIISMaxEq       ....     5
   Bias factor          DIISBfac        ....   1.050
   Max. coefficient     DIISMaxC        ....  10.000
 Trust-Rad. Augm. Hess. CNVTRAH         .... auto
   Auto Start mean grad. ratio tolernc. ....  1.125000
   Auto Start start iteration           ....    20
   Auto Start num. interpolation iter.  ....    10
   Max. Number of Micro iterations      ....    16
   Max. Number of Macro iterations      .... Maxiter - #DIIS iter
   Number of Davidson start vectors     ....     2
   Converg. threshold I  (grad. norm)   ....   1.000e-05
   Converg. threshold II (energy diff.) ....   1.000e-08
   Grad. Scal. Fac. for Micro threshold ....   0.100
   Minimum threshold for Micro iter.    ....   0.010
   NR start threshold (gradient norm)   ....   0.001
   Initial trust radius                 ....   0.400
   Minimum AH scaling param. (alpha)    ....   1.000
   Maximum AH scaling param. (alpha)    .... 1000.000
   Orbital update algorithm             .... Taylor
   White noise on init. David. guess    .... on
   Maximum white noise                  ....   0.010
   Quad. conv. algorithm                .... NR
 SOSCF                  CNVSOSCF        .... on
   Start iteration      SOSCFMaxIt      ....   150
   Startup grad/error   SOSCFStart      ....  0.003300
 Level Shifting         CNVShift        .... on
   Level shift para.    LevelShift      ....    0.2500
   Turn off err/grad.   ShiftErr        ....    0.0010
 Zerner damping         CNVZerner       .... off
 Static damping         CNVDamp         .... on
   Fraction old density DampFac         ....    0.7000
   Max. Damping (<1)    DampMax         ....    0.9800
   Min. Damping (>=0)   DampMin         ....    0.0000
   Turn off err/grad.   DampErr         ....    0.1000
 Fernandez-Rico         CNVRico         .... off

SCF Procedure:
 Maximum # iterations   MaxIter         ....   125
 SCF integral mode      SCFMode         .... Direct
   Integral package                     .... SHARK and LIBINT hybrid scheme
 Reset frequency        DirectResetFreq ....    20
 Integral Threshold     Thresh          ....  2.500e-11 Eh
 Primitive CutOff       TCut            ....  2.500e-12 Eh

Convergence Tolerance:
 Convergence Check Mode ConvCheckMode   .... Total+1el-Energy
 Convergence forced     ConvForced      .... 0
 Energy Change          TolE            ....  1.000e-08 Eh
 1-El. energy change                    ....  1.000e-05 Eh
 Orbital Gradient       TolG            ....  1.000e-05
 Orbital Rotation angle TolX            ....  1.000e-05
 DIIS Error             TolErr          ....  5.000e-07


Diagonalization of the overlap matrix:
Smallest eigenvalue                        ... 8.930e-06
Time for diagonalization                   ...    0.077 sec
Threshold for overlap eigenvalues          ... 1.000e-08
Number of eigenvalues below threshold      ... 0
Time for construction of square roots      ...    0.044 sec
Total time needed                          ...    0.123 sec

Time for model grid setup =    1.777 sec

------------------------------
INITIAL GUESS: MODEL POTENTIAL
------------------------------
Loading Hartree-Fock densities                     ... done
Calculating cut-offs                               ... done
Initializing the effective Hamiltonian             ... done
Setting up the integral package (SHARK)            ... done
Starting the Coulomb interaction                   ... done (   3.5 sec)
Reading the grid                                   ... done
Mapping shells                                     ... done
Starting the XC term evaluation                    ... done (   3.7 sec)
  promolecular density results
     # of electrons  =     72.991300345
     EX              =    -61.064590851
     EC              =     -2.449881329
     EX+EC           =    -63.514472179
Transforming the Hamiltonian                       ... done (   0.1 sec)
Diagonalizing the Hamiltonian                      ... done (   0.1 sec)
Back transforming the eigenvectors                 ... done (   0.0 sec)
Now organizing SCF variables                       ... done
                      ------------------
                      INITIAL GUESS DONE (   9.1 sec)
                      ------------------
-------------------
DFT GRID GENERATION
-------------------

General Integration Accuracy     IntAcc      ... 4.388
Radial Grid Type                 RadialGrid  ... OptM3 with GC (2021)
Angular Grid (max. ang.)         AngularGrid ... 4 (Lebedev-302)
Angular grid pruning method      GridPruning ... 4 (adaptive)
Weight generation scheme         WeightScheme... Becke
Basis function cutoff            BFCut       ... 1.0000e-11
Integration weight cutoff        WCut        ... 1.0000e-14
Angular grids for H and He will be reduced by one unit
Partially contracted basis set               ... off
Rotationally invariant grid construction     ... off

Total number of grid points                  ...    86357
Total number of batches                      ...     1361
Average number of points per batch           ...       63
Average number of grid points per atom       ...     4798
Time for grid setup =    7.163 sec

--------------------
COSX GRID GENERATION
--------------------

GRIDX 1
-------
General Integration Accuracy     IntAcc      ... 3.816
Radial Grid Type                 RadialGrid  ... OptM3 with GC (2021)
Angular Grid (max. ang.)         AngularGrid ... 1 (Lebedev-50)
Angular grid pruning method      GridPruning ... 4 (adaptive)
Weight generation scheme         WeightScheme... Becke
Basis function cutoff            BFCut       ... 1.0000e-11
Integration weight cutoff        WCut        ... 1.0000e-14
Angular grids for H and He will be reduced by one unit
Partially contracted basis set               ... on
Rotationally invariant grid construction     ... off

Total number of grid points                  ...    11017
Total number of batches                      ...      179
Average number of points per batch           ...       61
Average number of grid points per atom       ...      612
UseSFitting                                  ... on

GRIDX 2
-------
General Integration Accuracy     IntAcc      ... 4.020
Radial Grid Type                 RadialGrid  ... OptM3 with GC (2021)
Angular Grid (max. ang.)         AngularGrid ... 2 (Lebedev-110)
Angular grid pruning method      GridPruning ... 4 (adaptive)
Weight generation scheme         WeightScheme... Becke
Basis function cutoff            BFCut       ... 1.0000e-11
Integration weight cutoff        WCut        ... 1.0000e-14
Angular grids for H and He will be reduced by one unit
Partially contracted basis set               ... on
Rotationally invariant grid construction     ... off

Total number of grid points                  ...    24378
Total number of batches                      ...      390
Average number of points per batch           ...       62
Average number of grid points per atom       ...     1354
UseSFitting                                  ... on

GRIDX 3
-------
General Integration Accuracy     IntAcc      ... 4.338
Radial Grid Type                 RadialGrid  ... OptM3 with GC (2021)
Angular Grid (max. ang.)         AngularGrid ... 3 (Lebedev-194)
Angular grid pruning method      GridPruning ... 4 (adaptive)
Weight generation scheme         WeightScheme... Becke
Basis function cutoff            BFCut       ... 1.0000e-11
Integration weight cutoff        WCut        ... 1.0000e-14
Angular grids for H and He will be reduced by one unit
Partially contracted basis set               ... on
Rotationally invariant grid construction     ... off

Total number of grid points                  ...    53835
Total number of batches                      ...      849
Average number of points per batch           ...       63
Average number of grid points per atom       ...     2991
UseSFitting                                  ... on

Time for X-Grid setup             =   10.001 sec

--------------
SCF ITERATIONS
--------------
ITER       Energy         Delta-E        Max-DP      RMS-DP      [F,P]     Damp
               ***  Starting incremental Fock matrix formation  ***
  0   -475.7894725081   0.000000000000 0.17009311  0.00169666  0.2057597 0.7000
  1   -476.0130451381  -0.223572629995 0.05132863  0.00065967  0.1033846 0.7000
                               ***Turning on DIIS***
  2   -476.1438183217  -0.130773183602 0.10432078  0.00146263  0.0344765 0.0000
  3   -476.1176143326   0.026203989070 0.00697702  0.00010094  0.1169587 0.7000
  4   -476.1302068246  -0.012592491965 0.00720580  0.00011745  0.1052031 0.7000
  5   -476.1424451623  -0.012238337724 0.02333693  0.00040856  0.0922411 0.0000
  6   -476.1740945450  -0.031649382675 0.32291385  0.00296859  0.0597096 0.0000
  7   -475.6035762311   0.570518313905 0.00463601  0.00006099  0.4687773 0.7000
  8   -475.6110841594  -0.007507928249 0.00563672  0.00006671  0.4607406 0.7000
  9   -475.6210289555  -0.009944796161 0.00609937  0.00006311  0.4504043 0.7000
 10   -475.6329636832  -0.011934727723 0.01140591  0.00011433  0.4376287 0.7000
 11   -475.6611448641  -0.028181180897 0.14560376  0.00196324  0.4030579 0.7000
 12   -475.8185310239  -0.157386159740 0.04721846  0.00081319  0.1260553 0.7000
 13   -475.9103934482  -0.091862424281 0.10518144  0.00184514  0.0924593 0.0000
 14   -476.0698179577  -0.159424509494 0.00562453  0.00008108  0.2131284 0.7000
 15   -476.0850847283  -0.015266770628 0.00678982  0.00010422  0.1937387 0.7000
 16   -476.1021208641  -0.017036135840 0.11567371  0.00135249  0.1705182 0.7000
 17   -476.1105409859  -0.008420121824 0.06437222  0.00094366  0.1748165 0.7000
 18   -475.6112778691   0.499263116835 0.05011750  0.00070118  0.2748976 0.7000
 19   -475.0362942481   0.574983621007 0.03283955  0.00052540  0.2807810 0.7000
               *** Restarting incremental Fock matrix formation ***
                                   *** Resetting DIIS ***

 WARNING: the maximum gradient error descreased on average only by a factor   1.0
          during the last 20 iterations

                      *** Initiating the TRAH-SCF procedure ***


TRAH GRIDX
----------

General Integration Accuracy     IntAcc      ... 3.067
Radial Grid Type                 RadialGrid  ... OptM3 with GC (2021)
Angular Grid (max. ang.)         AngularGrid ... 1 (Lebedev-50)
Angular grid pruning method      GridPruning ... 4 (adaptive)
Weight generation scheme         WeightScheme... Becke
Basis function cutoff            BFCut       ... 1.0000e-11
Integration weight cutoff        WCut        ... 1.0000e-14
Angular grids for H and He will be reduced by one unit
Partially contracted basis set               ... on
Rotationally invariant grid construction     ... off

Total number of grid points                  ...     5818
Total number of batches                      ...      102
Average number of points per batch           ...       57
Average number of grid points per atom       ...      323


TRAH GRID
---------

General Integration Accuracy     IntAcc      ... 3.467
Radial Grid Type                 RadialGrid  ... OptM3 with GC (2021)
Angular Grid (max. ang.)         AngularGrid ... 1 (Lebedev-50)
Angular grid pruning method      GridPruning ... 4 (adaptive)
Weight generation scheme         WeightScheme... Becke
Basis function cutoff            BFCut       ... 1.0000e-11
Integration weight cutoff        WCut        ... 1.0000e-14
Angular grids for H and He will be reduced by one unit
Partially contracted basis set               ... off
Rotationally invariant grid construction     ... off

Total number of grid points                  ...    12710
Total number of batches                      ...      207
Average number of points per batch           ...       61
Average number of grid points per atom       ...      706

 --------------------------------------------------------------------------------------------
   Iter.        energy            ||Error||_2        Shift      TRadius  Mac/Mic        Rej.
 --------------------------------------------------------------------------------------------
WARNING: 878 diagonal Hessian elements are negative!
    0       -472.905857417076     3.578785e+00                     0.400 (TRAH MAcro)   No
WARNING : negative HOMO - LUMO gap : -2.163634
    0     dE    -5.334621e-01     4.297051e+00    -9.9085e-01      0.277 (TRAH MIcro)
    0     dE    -8.473849e-01     1.202783e+00    -3.1955e+00      0.400 (TRAH MIcro)
    0     dE    -4.556908e-01     1.239819e+00    -1.3332e+01      0.164 (TRAH MIcro)
    0     dE    -4.598983e-01     9.281920e-01    -1.3428e+01      0.164 (TRAH MIcro)
    0     dE    -4.655097e-01     1.587329e-01    -1.3566e+01      0.164 (TRAH MIcro)
    0     dE    -4.655631e-01     1.128557e-01    -1.3571e+01      0.164 (TRAH MIcro)
    0     dE    -4.653648e-01     3.299790e-02    -1.3574e+01      0.164 (TRAH MIcro)
    0     dE    -4.652986e-01     1.141031e-02    -1.3575e+01      0.164 (TRAH MIcro)
    0     dE    -4.652929e-01     9.355203e-03    -1.3575e+01      0.164 (TRAH MIcro)
WARNING: 797 diagonal Hessian elements are negative!
    1       -473.368719134389     2.185511e+00                     0.480 (TRAH MAcro)   No
WARNING : negative HOMO - LUMO gap : -1.937325
    1     dE    -2.976249e-01     1.455841e+00    -5.5873e-01      0.256 (TRAH MIcro)
    1     dE    -4.550073e-01     3.926104e-01    -7.7382e-01      0.420 (TRAH MIcro)
    1     dE    -4.665407e-01     1.191237e-01    -7.8606e-01      0.432 (TRAH MIcro)
    1     dE    -3.528306e-01     7.678004e-01    -4.0573e+00      0.243 (TRAH MIcro)
    1     dE    -2.883979e-01     1.869674e-01    -7.9086e+00      0.177 (TRAH MIcro)
    1     dE    -2.711267e-01     9.027635e-02    -7.9374e+00      0.163 (TRAH MIcro)
    1     dE    -2.655118e-01     5.037955e-02    -7.9493e+00      0.159 (TRAH MIcro)
    1     dE    -2.641356e-01     3.103904e-02    -7.9519e+00      0.158 (TRAH MIcro)
    1     dE    -2.640648e-01     1.325330e-02    -7.9528e+00      0.157 (TRAH MIcro)
    1     dE    -2.640608e-01     4.586711e-03    -7.9531e+00      0.157 (TRAH MIcro)
WARNING: 708 diagonal Hessian elements are negative!
    2       -473.630671019489     1.213456e+00                     0.576 (TRAH MAcro)   No
WARNING : negative HOMO - LUMO gap : -1.753207
    2     dE    -1.243115e-01     7.362371e-01    -2.3931e-01      0.197 (TRAH MIcro)
    2     dE    -1.694751e-01     3.803592e-01    -3.0552e-01      0.331 (TRAH MIcro)
    2     dE    -3.089074e-01     5.811346e+00    -8.2884e-01      0.576 (TRAH MIcro)
    2     dE    -8.686186e-02     2.018716e-01    -8.2875e+00      0.090 (TRAH MIcro)
    2     dE    -8.877436e-02     2.660142e-02    -8.3890e+00      0.091 (TRAH MIcro)
    2     dE    -8.879538e-02     1.846964e-02    -8.3900e+00      0.091 (TRAH MIcro)
    2     dE    -8.881464e-02     6.840698e-03    -8.3907e+00      0.091 (TRAH MIcro)
WARNING: 672 diagonal Hessian elements are negative!
    3       -473.719158581455     7.525051e-01                     0.691 (TRAH MAcro)   No
WARNING : negative HOMO - LUMO gap : -1.660063
    3     dE    -5.748422e-02     4.006871e-01    -1.1246e-01      0.149 (TRAH MIcro)
    3     dE    -7.773209e-02     5.022140e-01    -1.4533e-01      0.264 (TRAH MIcro)
    3     dE    -7.345319e-02     4.752022e-01    -4.9025e+00      0.131 (TRAH MIcro)
    3     dE    -3.187998e-02     9.635383e-02    -1.0355e+01      0.050 (TRAH MIcro)
    3     dE    -3.228227e-02     1.986843e-02    -1.0417e+01      0.051 (TRAH MIcro)
    3     dE    -3.230377e-02     9.052134e-03    -1.0422e+01      0.051 (TRAH MIcro)
WARNING: 652 diagonal Hessian elements are negative!
    4       -473.751414697868     5.261023e-01                     0.829 (TRAH MAcro)   No
WARNING : negative HOMO - LUMO gap : -1.613274
    4     dE    -3.181180e-02     2.895940e-01    -6.2730e-02      0.119 (TRAH MIcro)
    4     dE    -7.787988e-02     2.927110e+00    -1.2514e-01      0.495 (TRAH MIcro)
    4     dE    -2.285962e-02     6.341983e-02    -6.9852e+00      0.054 (TRAH MIcro)
    4     dE    -2.305218e-02     1.563637e-02    -7.0332e+00      0.054 (TRAH MIcro)
    4     dE    -2.298944e-02     1.099605e-02    -7.0379e+00      0.054 (TRAH MIcro)
    4     dE    -2.294030e-02     6.089377e-03    -7.0390e+00      0.054 (TRAH MIcro)
WARNING: 626 diagonal Hessian elements are negative!
    5       -473.774278155930     3.744286e-01                     0.995 (TRAH MAcro)   No
WARNING : negative HOMO - LUMO gap : -1.572467
    5     dE    -5.575065e-02     2.938327e+00    -1.0247e-01      0.297 (TRAH MIcro)
    5     dE    -3.156782e+00     1.133696e+00    -6.2108e+00      0.995 (TRAH MIcro)
    5     dE    -9.358229e-01     1.498630e-01    -6.4693e+00      0.526 (TRAH MIcro)
    5     dE    -9.809530e-01     8.064842e-02    -6.4807e+00      0.538 (TRAH MIcro)
    5     dE    -1.006693e+00     5.313064e-02    -6.4835e+00      0.546 (TRAH MIcro)
    5     dE    -1.029991e+00     2.764975e-02    -6.4847e+00      0.552 (TRAH MIcro)
    5     dE    -1.045732e+00     1.915994e-02    -6.4852e+00      0.556 (TRAH MIcro)
    5     dE    -1.052924e+00     1.322004e-02    -6.4854e+00      0.558 (TRAH MIcro)
    5     dE    -1.056307e+00     6.976044e-03    -6.4854e+00      0.559 (TRAH MIcro)
WARNING: 419 diagonal Hessian elements are negative!
    6       -474.606862018892     2.280000e+00                     1.194 (TRAH MAcro)   No
WARNING : negative HOMO - LUMO gap : -1.089682
    6     dE    -2.617360e+00     3.512366e+00    -2.4399e+00      1.070 (TRAH MIcro)
    6     dE    -3.631140e+00     2.764712e+00    -3.6005e+00      1.194 (TRAH MIcro)
    6     dE    -3.948521e+00     7.373741e-01    -4.3718e+00      1.194 (TRAH MIcro)
    6     dE    -1.687642e+00     3.745256e-01    -4.9314e+00      0.654 (TRAH MIcro)
    6     dE    -1.674482e+00     1.426897e-01    -4.9353e+00      0.650 (TRAH MIcro)
    6     dE    -1.669454e+00     2.833172e-02    -4.9363e+00      0.648 (TRAH MIcro)
    6     dE    -1.669862e+00     1.415960e-02    -4.9363e+00      0.648 (TRAH MIcro)
    6     dE    -1.669916e+00     4.367049e-03    -4.9364e+00      0.648 (TRAH MIcro)
WARNING: 33 diagonal Hessian elements are negative!
    7       -475.846057177065     1.503835e+00                     1.194 (TRAH MAcro)   No
WARNING : negative HOMO - LUMO gap : -0.310862
    7     dE    -3.339695e-01     1.970838e+00    -5.8113e-01      0.386 (TRAH MIcro)
    7     dE    -4.164320e-01     1.025946e+00    -6.8113e-01      0.472 (TRAH MIcro)
    7     dE    -4.924031e-01     3.883759e-01    -7.4671e-01      0.565 (TRAH MIcro)
    7     dE    -5.365139e-01     5.632797e-01    -7.6495e-01      0.635 (TRAH MIcro)
    7     dE    -1.068455e+00     1.319254e+00    -9.6531e-01      1.194 (TRAH MIcro)
    7     dE    -5.012089e-01     3.180298e-01    -1.3460e+00      0.541 (TRAH MIcro)
    7     dE    -6.713371e-01     1.008315e-01    -1.3612e+00      0.731 (TRAH MIcro)
    7     dE    -7.170575e-01     6.143735e-02    -1.3630e+00      0.775 (TRAH MIcro)
    7     dE    -7.411054e-01     3.038191e-02    -1.3636e+00      0.797 (TRAH MIcro)
    7     dE    -7.462459e-01     2.010407e-02    -1.3637e+00      0.802 (TRAH MIcro)
    7     dE    -7.467071e-01     6.534121e-03    -1.3637e+00      0.802 (TRAH MIcro)
WARNING: 10 diagonal Hessian elements are negative!
    8       -476.192076222917     1.289493e+00                     1.194 (TRAH MAcro)   No
WARNING : negative HOMO - LUMO gap : -0.190723
    8     dE    -7.471246e-02     1.371282e+00    -1.4749e-01      0.114 (TRAH MIcro)
    8     dE    -1.093933e-01     6.641615e-01    -2.0586e-01      0.251 (TRAH MIcro)
    8     dE    -1.435599e-01     4.564851e-01    -2.5543e-01      0.352 (TRAH MIcro)
    8     dE    -2.009438e-01     4.315728e-01    -2.9663e-01      0.596 (TRAH MIcro)
    8     dE    -4.831873e-01     8.468612e-01    -4.3230e-01      1.194 (TRAH MIcro)
    8     dE    -5.227423e-01     3.207904e-01    -5.0922e-01      1.186 (TRAH MIcro)
    8     dE    -5.374178e-01     1.599944e-01    -5.2515e-01      1.194 (TRAH MIcro)
    8     dE    -5.405303e-01     1.552018e-01    -5.2982e-01      1.194 (TRAH MIcro)
    8     dE    -3.193746e-01     2.631971e-01    -6.0346e-01      0.779 (TRAH MIcro)
    8     dE    -1.572067e-01     2.283521e-01    -8.4613e-01      0.340 (TRAH MIcro)
    8     dE    -1.557186e-01     3.042014e-02    -8.5501e-01      0.329 (TRAH MIcro)
    8     dE    -1.557134e-01     1.352727e-02    -8.5528e-01      0.328 (TRAH MIcro)
    8     dE    -1.561149e-01     4.597966e-03    -8.5532e-01      0.330 (TRAH MIcro)
    9       -476.314342495973     2.611446e-01                     1.433 (TRAH MAcro)   No
WARNING : small    HOMO - LUMO gap : 0.015447
    9     dE    -4.282456e-03     3.688570e-01    -8.5557e-03      0.033 (TRAH MIcro)
    9     dE    -7.383874e-03     2.432503e-01    -1.4694e-02      0.071 (TRAH MIcro)
    9     dE    -1.110012e-02     2.625041e-01    -2.1925e-02      0.112 (TRAH MIcro)
    9     dE    -1.609332e-02     1.150893e-01    -3.0913e-02      0.203 (TRAH MIcro)
    9     dE    -1.732400e-02     7.518295e-02    -3.2751e-02      0.241 (TRAH MIcro)
    9     dE    -2.023669e-02     1.127504e-01    -3.5549e-02      0.372 (TRAH MIcro)
    9     dE    -2.524379e-02     1.018278e-01    -3.8224e-02      0.566 (TRAH MIcro)
    9     dE    -2.884801e-02     4.601200e-02    -3.9482e-02      0.679 (TRAH MIcro)
    9     dE    -2.958407e-02     3.243747e-02    -3.9690e-02      0.701 (TRAH MIcro)
    9     dE    -2.999704e-02     1.429375e-02    -3.9786e-02      0.713 (TRAH MIcro)
    9     dE    -3.031251e-02     2.528387e-02    -3.9851e-02      0.722 (TRAH MIcro)
    9     dE    -2.025446e-02     2.087815e-02    -7.1717e-02      0.336 (TRAH MIcro)
    9     dE    -2.022300e-02     3.346495e-03    -7.1770e-02      0.334 (TRAH MIcro)
   10       -476.331302146865     9.620683e-02                     1.720 (TRAH MAcro)   No
WARNING : small    HOMO - LUMO gap : 0.000515
   10     dE    -4.250527e-04     9.851322e-02    -8.5004e-04      0.009 (TRAH MIcro)
   10     dE    -4.900067e-04     7.315074e-02    -9.7985e-04      0.013 (TRAH MIcro)
   10     dE    -1.686299e-03     7.763259e-02    -3.3492e-03      0.084 (TRAH MIcro)
   10     dE    -2.052240e-03     3.769886e-02    -4.0549e-03      0.111 (TRAH MIcro)
   10     dE    -2.201153e-03     2.477035e-02    -4.3278e-03      0.131 (TRAH MIcro)
   10     dE    -2.398857e-03     2.567327e-02    -4.6460e-03      0.181 (TRAH MIcro)
   10     dE    -2.467822e-03     8.020393e-03    -4.7478e-03      0.199 (TRAH MIcro)
   11       -476.332958993879     5.843056e-02                     1.720 (TRAH MAcro)   No
WARNING : small    HOMO - LUMO gap : 0.010117
   11     dE    -1.558128e-04     7.617119e-02    -3.1162e-04      0.005 (TRAH MIcro)
   11     dE    -2.241176e-04     3.649024e-02    -4.4818e-04      0.011 (TRAH MIcro)
   11     dE    -3.729629e-04     2.424460e-02    -7.4520e-04      0.031 (TRAH MIcro)
   11     dE    -4.395645e-04     2.256732e-02    -8.7708e-04      0.048 (TRAH MIcro)
   11     dE    -4.552934e-04     7.984134e-03    -9.0787e-04      0.055 (TRAH MIcro)
   11     dE    -4.588532e-04     3.964905e-03    -9.1474e-04      0.057 (TRAH MIcro)
   12       -476.333482146185     9.771709e-03                     2.064 (TRAH MAcro)   No
WARNING : small    HOMO - LUMO gap : 0.007451
   12     dE    -3.639388e-06     1.953129e-02    -7.2788e-06      0.001 (TRAH MIcro)
   12     dE    -6.390000e-06     9.437883e-03    -1.2780e-05      0.002 (TRAH MIcro)
   12     dE    -2.963042e-05     1.322315e-02    -5.9244e-05      0.017 (TRAH MIcro)
   12     dE    -4.370442e-05     8.240369e-03    -8.7342e-05      0.028 (TRAH MIcro)
   12     dE    -4.618136e-05     2.864633e-03    -9.2281e-05      0.030 (TRAH MIcro)
   12     dE    -4.653469e-05     8.067526e-04    -9.2984e-05      0.030 (TRAH MIcro)
   13       -476.333531413007     2.642603e-03                     2.477 (TRAH MAcro)   No
WARNING : small    HOMO - LUMO gap : 0.007062
   13     dE    -2.949157e-07     5.508296e-03    -5.8985e-07      0.000 (TRAH MIcro)
   13     dE    -4.707605e-07     2.439636e-03    -9.4152e-07      0.001 (TRAH MIcro)
   13     dE    -7.247913e-07     9.708742e-04    -1.4496e-06      0.001 (TRAH MIcro)
   13     dE    -8.401645e-07     1.722111e-03    -1.6803e-06      0.002 (TRAH MIcro)
   13     dE    -9.629965e-07     8.328259e-04    -1.9260e-06      0.003 (TRAH MIcro)
   13     dE    -9.944889e-07     4.488627e-04    -1.9890e-06      0.003 (TRAH MIcro)
   13     dE    -1.027430e-06     3.880048e-04    -2.0548e-06      0.004 (TRAH MIcro)
   13     dE    -1.052879e-06     3.950591e-04    -2.1057e-06      0.004 (TRAH MIcro)
   13     dE    -1.067901e-06     1.423971e-04    -2.1358e-06      0.004 (TRAH MIcro)
   14       -476.333532484341     1.417778e-04                           (NR   MAcro)
WARNING : small    HOMO - LUMO gap : 0.006884
   14     dE    -2.110060e-10     1.325404e-04                           (NR   MIcro)
   14     dE    -1.315763e-09     6.973746e-05                           (NR   MIcro)
   14     dE    -1.797880e-09     3.362600e-05                           (NR   MIcro)
   14     dE    -1.917375e-09     2.564348e-05                           (NR   MIcro)
   14     dE    -1.982673e-09     2.245988e-05                           (NR   MIcro)
   14     dE    -2.041432e-09     1.365328e-05                           (NR   MIcro)
   14     dE    -2.066370e-09     7.442461e-06                           (NR   MIcro)
   14     dE    -2.069750e-09     3.904720e-06                           (NR   MIcro)
   14     dE    -2.070908e-09     1.954294e-06                           (NR   MIcro)
   14     dE    -2.071630e-09     1.824449e-06                           (NR   MIcro)
   14     dE    -2.072065e-09     1.346033e-06                           (NR   MIcro)
   14     dE    -2.072281e-09     1.017619e-06                           (NR   MIcro)
   14     dE    -2.072401e-09     6.087174e-07                           (NR   MIcro)
   15       -476.333532486215     8.867415e-07                           (NR   MAcro)
WARNING : small    HOMO - LUMO gap : 0.006884

               *****************************************************
               *                     SUCCESS                       *
               *           SCF CONVERGED AFTER 169 CYCLES          *
               *****************************************************

Old exchange energy                            =    -12.229999230 Eh
New exchange energy                            =    -12.229988251 Eh
Exchange energy change after final integration =      0.000010978 Eh
Total energy after final integration           =   -476.333521508 Eh
Final COS-X integration done in                =   120.267 sec

----------------
TOTAL SCF ENERGY
----------------

Total Energy       :         -476.33352151 Eh          -12961.69408 eV

Components:
Nuclear Repulsion  :          364.57283468 Eh            9920.53118 eV
Electronic Energy  :         -840.90635618 Eh          -22882.22526 eV
One Electron Energy:        -1356.71668586 Eh          -36918.13790 eV
Two Electron Energy:          515.81032967 Eh           14035.91264 eV
Max COSX asymmetry :            0.00000110 Eh               0.00003 eV

Virial components:
Potential Energy   :         -949.82558150 Eh          -25846.06806 eV
Kinetic Energy     :          473.49206000 Eh           12884.37398 eV
Virial Ratio       :            2.00600108


DFT components:
N(Alpha)           :       35.999951102593 electrons
N(Beta)            :       35.999951102593 electrons
N(Total)           :       71.999902205187 electrons
E(X)               :      -48.910452392807 Eh       
E(C)               :       -3.130928587320 Eh       
E(XC)              :      -52.041380980127 Eh       
DFET-embed. en.    :        0.000000000000 Eh       

---------------
SCF CONVERGENCE
---------------

  Last Energy change         ...   -1.8735e-09  Tolerance :   1.0000e-08
  Last Orbital Gradient      ...    8.8674e-07  Tolerance :   1.0000e-05
  Last Orbital Rotation      ...    1.1988e-04

             **** THE GBW FILE WAS UPDATED (educts_optfreq_5.gbw) ****
             **** DENSITY educts_optfreq_5.scfp WAS UPDATED ****
             **** ENERGY FILE WAS UPDATED (educts_optfreq_5.en.tmp) ****
             **** THE GBW FILE WAS UPDATED (educts_optfreq_5.gbw) ****
             **** DENSITY educts_optfreq_5.scfp WAS UPDATED ****
----------------
ORBITAL ENERGIES
----------------

  NO   OCC          E(Eh)            E(eV) 
   0   2.0000     -19.417931      -528.3888 
   1   2.0000     -19.353313      -526.6304 
   2   2.0000     -14.683968      -399.5711 
   3   2.0000     -10.386019      -282.6180 
   4   2.0000     -10.371791      -282.2308 
   5   2.0000     -10.352264      -281.6994 
   6   2.0000     -10.350786      -281.6592 
   7   2.0000     -10.348594      -281.5996 
   8   2.0000     -10.347216      -281.5621 
   9   2.0000     -10.323464      -280.9157 
  10   2.0000      -1.301183       -35.4070 
  11   2.0000      -1.054224       -28.6869 
  12   2.0000      -1.039230       -28.2789 
  13   2.0000      -0.949810       -25.8456 
  14   2.0000      -0.923377       -25.1264 
  15   2.0000      -0.854041       -23.2396 
  16   2.0000      -0.844187       -22.9715 
  17   2.0000      -0.780090       -21.2273 
  18   2.0000      -0.757219       -20.6050 
  19   2.0000      -0.683728       -18.6052 
  20   2.0000      -0.639303       -17.3963 
  21   2.0000      -0.630341       -17.1525 
  22   2.0000      -0.620882       -16.8951 
  23   2.0000      -0.614352       -16.7174 
  24   2.0000      -0.609882       -16.5957 
  25   2.0000      -0.593927       -16.1616 
  26   2.0000      -0.583060       -15.8659 
  27   2.0000      -0.581939       -15.8354 
  28   2.0000      -0.545772       -14.8512 
  29   2.0000      -0.526153       -14.3174 
  30   2.0000      -0.518476       -14.1084 
  31   2.0000      -0.510226       -13.8840 
  32   2.0000      -0.451076       -12.2744 
  33   2.0000      -0.450408       -12.2562 
  34   2.0000      -0.430404       -11.7119 
  35   2.0000      -0.404063       -10.9951 
  36   0.0000      -0.397178       -10.8078 
  37   0.0000      -0.292876        -7.9695 
  38   0.0000      -0.221258        -6.0207 
  39   0.0000      -0.187110        -5.0915 
  40   0.0000      -0.176549        -4.8042 
  41   0.0000      -0.086674        -2.3585 
  42   0.0000      -0.070639        -1.9222 
  43   0.0000      -0.054294        -1.4774 
  44   0.0000      -0.040828        -1.1110 
  45   0.0000      -0.037235        -1.0132 
  46   0.0000      -0.023695        -0.6448 
  47   0.0000      -0.016680        -0.4539 
  48   0.0000       0.000280         0.0076 
  49   0.0000       0.008235         0.2241 
  50   0.0000       0.011893         0.3236 
  51   0.0000       0.025414         0.6916 
  52   0.0000       0.028824         0.7843 
  53   0.0000       0.047124         1.2823 
  54   0.0000       0.049154         1.3375 
  55   0.0000       0.081334         2.2132 
  56   0.0000       0.084039         2.2868 
  57   0.0000       0.085455         2.3254 
  58   0.0000       0.092031         2.5043 
  59   0.0000       0.108544         2.9536 
  60   0.0000       0.111606         3.0370 
  61   0.0000       0.123006         3.3472 
  62   0.0000       0.130823         3.5599 
  63   0.0000       0.145047         3.9469 
  64   0.0000       0.147184         4.0051 
  65   0.0000       0.164633         4.4799 
  66   0.0000       0.176270         4.7966 
  67   0.0000       0.200245         5.4489 
  68   0.0000       0.202200         5.5021 
  69   0.0000       0.204580         5.5669 
  70   0.0000       0.209419         5.6986 
  71   0.0000       0.212714         5.7882 
  72   0.0000       0.215909         5.8752 
  73   0.0000       0.231129         6.2893 
  74   0.0000       0.237061         6.4508 
  75   0.0000       0.260993         7.1020 
  76   0.0000       0.271918         7.3993 
  77   0.0000       0.279781         7.6132 
  78   0.0000       0.284123         7.7314 
  79   0.0000       0.289110         7.8671 
  80   0.0000       0.297072         8.0837 
  81   0.0000       0.306294         8.3347 
  82   0.0000       0.314686         8.5630 
  83   0.0000       0.321061         8.7365 
  84   0.0000       0.322135         8.7657 
  85   0.0000       0.328976         8.9519 
  86   0.0000       0.335951         9.1417 
  87   0.0000       0.342565         9.3217 
  88   0.0000       0.346801         9.4369 
  89   0.0000       0.354667         9.6510 
  90   0.0000       0.356393         9.6980 
  91   0.0000       0.366614         9.9761 
  92   0.0000       0.368275        10.0213 
  93   0.0000       0.379721        10.3327 
  94   0.0000       0.401627        10.9288 
  95   0.0000       0.415956        11.3187 
  96   0.0000       0.443552        12.0697 
  97   0.0000       0.469152        12.7663 
  98   0.0000       0.474429        12.9099 
  99   0.0000       0.499822        13.6009 
 100   0.0000       0.501648        13.6505 
 101   0.0000       0.507313        13.8047 
 102   0.0000       0.522224        14.2104 
 103   0.0000       0.540823        14.7165 
 104   0.0000       0.549012        14.9394 
 105   0.0000       0.577051        15.7024 
 106   0.0000       0.611009        16.6264 
 107   0.0000       0.613096        16.6832 
 108   0.0000       0.631319        17.1791 
 109   0.0000       0.646964        17.6048 
 110   0.0000       0.654682        17.8148 
 111   0.0000       0.671278        18.2664 
 112   0.0000       0.679420        18.4880 
 113   0.0000       0.715120        19.4594 
 114   0.0000       0.749807        20.4033 
 115   0.0000       0.769945        20.9513 
 116   0.0000       0.774302        21.0698 
 117   0.0000       0.803396        21.8615 
 118   0.0000       0.803434        21.8626 
 119   0.0000       0.837574        22.7915 
 120   0.0000       0.840215        22.8634 
 121   0.0000       0.853003        23.2114 
 122   0.0000       0.877258        23.8714 
 123   0.0000       0.895721        24.3738 
 124   0.0000       0.913882        24.8680 
 125   0.0000       0.921993        25.0887 
 126   0.0000       0.938029        25.5251 
 127   0.0000       0.958118        26.0717 
 128   0.0000       0.971728        26.4421 
 129   0.0000       1.034500        28.1502 
 130   0.0000       1.041437        28.3389 
 131   0.0000       1.044732        28.4286 
 132   0.0000       1.049145        28.5487 
 133   0.0000       1.065899        29.0046 
 134   0.0000       1.077523        29.3209 
 135   0.0000       1.082627        29.4598 
 136   0.0000       1.092188        29.7199 
 137   0.0000       1.124701        30.6047 
 138   0.0000       1.139677        31.0122 
 139   0.0000       1.148590        31.2547 
 140   0.0000       1.216879        33.1130 
 141   0.0000       1.233808        33.5736 
 142   0.0000       1.280427        34.8422 
 143   0.0000       1.287167        35.0256 
 144   0.0000       1.300486        35.3880 
 145   0.0000       1.303778        35.4776 
 146   0.0000       1.310662        35.6649 
 147   0.0000       1.314066        35.7575 
 148   0.0000       1.331301        36.2265 
 149   0.0000       1.355920        36.8964 
 150   0.0000       1.358815        36.9752 
 151   0.0000       1.371673        37.3251 
 152   0.0000       1.380186        37.5568 
 153   0.0000       1.388845        37.7924 
 154   0.0000       1.394009        37.9329 
 155   0.0000       1.395696        37.9788 
 156   0.0000       1.410502        38.3817 
 157   0.0000       1.440016        39.1848 
 158   0.0000       1.454965        39.5916 
 159   0.0000       1.477497        40.2047 
 160   0.0000       1.487261        40.4704 
 161   0.0000       1.504074        40.9279 
 162   0.0000       1.523170        41.4476 
 163   0.0000       1.527283        41.5595 
 164   0.0000       1.533769        41.7360 
 165   0.0000       1.545269        42.0489 
 166   0.0000       1.555984        42.3405 
 167   0.0000       1.565347        42.5953 
 168   0.0000       1.567718        42.6598 
 169   0.0000       1.574048        42.8320 
 170   0.0000       1.674471        45.5647 
 171   0.0000       1.695011        46.1236 
 172   0.0000       1.698816        46.2271 
 173   0.0000       1.706553        46.4377 
 174   0.0000       1.739247        47.3273 
 175   0.0000       1.779210        48.4148 
 176   0.0000       1.795786        48.8658 
 177   0.0000       1.827638        49.7326 
 178   0.0000       1.848177        50.2915 
 179   0.0000       1.869005        50.8582 
 180   0.0000       1.885404        51.3044 
 181   0.0000       1.890799        51.4513 
 182   0.0000       1.905389        51.8483 
 183   0.0000       1.907986        51.9189 
 184   0.0000       1.922253        52.3071 
 185   0.0000       1.930352        52.5275 
 186   0.0000       1.960384        53.3448 
 187   0.0000       1.974259        53.7223 
 188   0.0000       1.983001        53.9602 
 189   0.0000       2.035735        55.3952 
 190   0.0000       2.056073        55.9486 
 191   0.0000       2.069439        56.3123 
 192   0.0000       2.084967        56.7348 
 193   0.0000       2.104476        57.2657 
 194   0.0000       2.110574        57.4316 
 195   0.0000       2.186387        59.4946 
 196   0.0000       2.190225        59.5990 
 197   0.0000       2.196681        59.7747 
 198   0.0000       2.240344        60.9629 
 199   0.0000       2.288659        62.2776 
 200   0.0000       2.319985        63.1300 
 201   0.0000       2.341882        63.7258 
 202   0.0000       2.346015        63.8383 
 203   0.0000       2.352383        64.0116 
 204   0.0000       2.374908        64.6245 
 205   0.0000       2.389775        65.0291 
 206   0.0000       2.389997        65.0351 
 207   0.0000       2.407694        65.5167 
 208   0.0000       2.422474        65.9189 
 209   0.0000       2.430134        66.1273 
 210   0.0000       2.440148        66.3998 
 211   0.0000       2.451419        66.7065 
 212   0.0000       2.474719        67.3405 
 213   0.0000       2.483018        67.5664 
 214   0.0000       2.496099        67.9223 
 215   0.0000       2.501092        68.0582 
 216   0.0000       2.518048        68.5196 
 217   0.0000       2.528244        68.7970 
 218   0.0000       2.531498        68.8855 
 219   0.0000       2.533582        68.9423 
 220   0.0000       2.570608        69.9498 
 221   0.0000       2.588486        70.4363 
 222   0.0000       2.595721        70.6332 
 223   0.0000       2.612411        71.0873 
 224   0.0000       2.616739        71.2051 
 225   0.0000       2.624673        71.4210 
 226   0.0000       2.650620        72.1270 
 227   0.0000       2.655390        72.2568 
 228   0.0000       2.680680        72.9450 
 229   0.0000       2.683743        73.0284 
 230   0.0000       2.722776        74.0905 
 231   0.0000       2.739246        74.5387 
 232   0.0000       2.765586        75.2554 
 233   0.0000       2.818957        76.7077 
 234   0.0000       2.827219        76.9325 
 235   0.0000       2.833286        77.0976 
 236   0.0000       2.855390        77.6991 
 237   0.0000       2.872815        78.1733 
 238   0.0000       2.920617        79.4740 
 239   0.0000       2.934631        79.8554 
 240   0.0000       2.940448        80.0137 
 241   0.0000       2.955253        80.4165 
 242   0.0000       2.957965        80.4903 
 243   0.0000       2.970655        80.8356 
 244   0.0000       2.991835        81.4120 
 245   0.0000       2.998255        81.5867 
 246   0.0000       3.021259        82.2126 
 247   0.0000       3.039549        82.7103 
 248   0.0000       3.053580        83.0921 
 249   0.0000       3.056413        83.1692 
 250   0.0000       3.075117        83.6782 
 251   0.0000       3.104134        84.4678 
 252   0.0000       3.130589        85.1877 
 253   0.0000       3.139691        85.4353 
 254   0.0000       3.153946        85.8232 
 255   0.0000       3.171372        86.2974 
 256   0.0000       3.182180        86.5915 
 257   0.0000       3.208381        87.3045 
 258   0.0000       3.213142        87.4340 
 259   0.0000       3.219265        87.6007 
 260   0.0000       3.234632        88.0188 
 261   0.0000       3.296742        89.7089 
 262   0.0000       3.297572        89.7315 
 263   0.0000       3.317549        90.2751 
 264   0.0000       3.327287        90.5401 
 265   0.0000       3.373996        91.8111 
 266   0.0000       3.390320        92.2553 
 267   0.0000       3.418310        93.0169 
 268   0.0000       3.431287        93.3701 
 269   0.0000       3.440328        93.6161 
 270   0.0000       3.502739        95.3144 
 271   0.0000       3.527209        95.9802 
 272   0.0000       3.574051        97.2549 
 273   0.0000       3.603065        98.0444 
 274   0.0000       3.605766        98.1179 
 275   0.0000       3.611967        98.2866 
 276   0.0000       3.626538        98.6831 
 277   0.0000       3.650608        99.3381 
 278   0.0000       3.674649        99.9923 
 279   0.0000       3.689474       100.3957 
 280   0.0000       3.716861       101.1409 
 281   0.0000       3.732714       101.5723 
 282   0.0000       3.771556       102.6292 
 283   0.0000       3.779423       102.8433 
 284   0.0000       3.788413       103.0879 
 285   0.0000       3.839448       104.4767 
 286   0.0000       3.872734       105.3824 
 287   0.0000       3.881799       105.6291 
 288   0.0000       3.911327       106.4326 
 289   0.0000       3.932481       107.0083 
 290   0.0000       3.947345       107.4127 
 291   0.0000       3.998995       108.8182 
 292   0.0000       4.011783       109.1662 
 293   0.0000       4.034406       109.7818 
 294   0.0000       4.047112       110.1275 
 295   0.0000       4.061948       110.5312 
 296   0.0000       4.070908       110.7750 
 297   0.0000       4.111555       111.8811 
 298   0.0000       4.143753       112.7573 
 299   0.0000       4.170211       113.4772 
 300   0.0000       4.248158       115.5983 
 301   0.0000       4.259505       115.9070 
 302   0.0000       4.280024       116.4654 
 303   0.0000       4.311861       117.3317 
 304   0.0000       4.368018       118.8598 
 305   0.0000       4.427512       120.4787 
 306   0.0000       4.458652       121.3261 
 307   0.0000       4.467832       121.5759 
 308   0.0000       4.483038       121.9897 
 309   0.0000       4.506988       122.6414 
 310   0.0000       4.508122       122.6722 
 311   0.0000       4.533736       123.3692 
 312   0.0000       4.569283       124.3365 
 313   0.0000       4.691152       127.6527 
 314   0.0000       4.700581       127.9093 
 315   0.0000       4.785734       130.2265 
 316   0.0000       4.865920       132.4084 
 317   0.0000       4.905027       133.4726 
 318   0.0000       4.913507       133.7033 
 319   0.0000       4.915955       133.7699 
 320   0.0000       4.968711       135.2055 
 321   0.0000       4.975715       135.3961 
 322   0.0000       4.986459       135.6885 
 323   0.0000       5.027219       136.7976 
 324   0.0000       5.043677       137.2454 
 325   0.0000       5.057252       137.6148 
 326   0.0000       5.063929       137.7965 
 327   0.0000       5.110415       139.0615 
 328   0.0000       5.175446       140.8310 
 329   0.0000       5.194547       141.3508 
 330   0.0000       5.210214       141.7771 
 331   0.0000       5.265287       143.2757 
 332   0.0000       5.271922       143.4563 
 333   0.0000       5.384218       146.5120 
 334   0.0000       5.473489       148.9412 
 335   0.0000       5.863979       159.5670 
 336   0.0000       5.895711       160.4305 
 337   0.0000       6.008827       163.5085 
 338   0.0000       6.014143       163.6532 
 339   0.0000       6.029255       164.0644 
 340   0.0000       6.060988       164.9279 
 341   0.0000       6.188718       168.4036 
 342   0.0000       6.224916       169.3886 
 343   0.0000       6.549684       178.2260 
 344   0.0000       6.596053       179.4877 
 345   0.0000       6.652944       181.0358 
 346   0.0000       6.708250       182.5408 
 347   0.0000       7.138371       194.2449 
 348   0.0000      21.733050       591.3864 
 349   0.0000      22.251567       605.4959 
 350   0.0000      22.386949       609.1799 
 351   0.0000      22.401025       609.5629 
 352   0.0000      22.519350       612.7827 
 353   0.0000      22.587231       614.6298 
 354   0.0000      22.973406       625.1382 
 355   0.0000      31.102349       846.3379 
 356   0.0000      42.776630      1164.0113 
 357   0.0000      43.244077      1176.7311 

                    ********************************
                    * MULLIKEN POPULATION ANALYSIS *
                    ********************************

-----------------------
MULLIKEN ATOMIC CHARGES
-----------------------
   0 C :    0.202198
   1 C :   -0.141332
   2 C :   -0.069419
[...]

Old exchange energy                            =    -12.300939567 Eh
New exchange energy                            =    -12.300937236 Eh
Exchange energy change after final integration =      0.000002331 Eh
Total energy after final integration           =   -476.414598084 Eh
Final COS-X integration done in                =    39.932 sec
Total Energy       :         -476.41459808 Eh          -12963.90029 eV
  Last Energy change         ...   -1.1259e-08  Tolerance :   1.0000e-08
  Last MAX-Density change    ...    9.9920e-16  Tolerance :   1.0000e-07
             **** THE GBW FILE WAS UPDATED (educts_optfreq_5.gbw) ****
             **** DENSITY educts_optfreq_5.scfp WAS UPDATED ****
             **** ENERGY FILE WAS UPDATED (educts_optfreq_5.en.tmp) ****
             **** THE GBW FILE WAS UPDATED (educts_optfreq_5.gbw) ****
             **** DENSITY educts_optfreq_5.scfp WAS UPDATED ****
Total SCF time: 0 days 0 hours 6 min 0 sec 

Maximum memory used throughout the entire SCF-calculation: 164.7 MB


-------------------------------------------------------------------------------
                          DFT DISPERSION CORRECTION                            
                                                                               
                                 DFTD4 V2.5                                    
-------------------------------------------------------------------------------
Starting D4
-------------------------   ----------------
Dispersion correction           -0.021584099
-------------------------   ----------------


-------------------------   --------------------
FINAL SINGLE POINT ENERGY      -476.436182182794
-------------------------   --------------------

------------------------------------------------------------------------------
                         ORCA SCF GRADIENT CALCULATION
------------------------------------------------------------------------------

 ... reading COSX grid (gridx3)
Gradient of the Kohn-Sham DFT energy:
Kohn-Sham wavefunction type      ... RKS
Hartree-Fock exchange scaling    ...    0.200
Number of operators              ...    1
Number of atoms                  ...   18
Basis set dimensions             ...  358
Integral neglect threshold       ... 2.5e-11
Integral primitive cutoff        ... 2.5e-12
SHARK Integral package           ... ON

Nuc. rep. gradient       (SHARK) ... done (  0.0 sec)
HCore & Overlap gradient (SHARK) ... done (  1.2 sec)
RI-J gradient            (SHARK) ... done (  8.3 sec)
COSX-gradient                    ... done ( 49.3 sec)
Exchange-correlation gradient    ... done
Dispersion correction            ... Starting D4


------------------- 
Dispersion Gradient 
------------------- 
   1  :   -0.000043734    0.000149519    0.000252615
   2  :   -0.000210809    0.000285802   -0.000207055
   3  :   -0.000143392    0.000089324   -0.000480066
   4  :    0.000062458   -0.000223320   -0.000383472
   5  :    0.000249003   -0.000432218   -0.000116279
   6  :    0.000212135   -0.000273040    0.000197971
   7  :   -0.000091514    0.000304435    0.000552342
   8  :    0.000022512    0.000095275    0.000144406
   9  :   -0.000052644    0.000043830    0.000158163
  10  :   -0.000044810    0.000098085    0.000119778
  11  :   -0.000111982    0.000166468   -0.000060062
  12  :   -0.000064204    0.000056392   -0.000159463
  13  :    0.000022031   -0.000090458   -0.000149674
  14  :    0.000094089   -0.000153839   -0.000010608
  15  :    0.000100407   -0.000116448    0.000138673
  16  :    0.000004133   -0.000000219    0.000001130
  17  :   -0.000031976    0.000000592    0.000073207
  18  :    0.000028297   -0.000000181   -0.000071606

  |G| =    0.000945529

done

------------------
CARTESIAN GRADIENT
------------------

   1   C   :    0.000655131    0.000278693   -0.000961006
   2   C   :    0.000138860   -0.000796026    0.000780476
   3   C   :    0.002199441   -0.003958119   -0.000571353
   4   C   :   -0.002228308    0.004446857   -0.003645781
   5   C   :    0.000478892    0.001377640    0.003707872
   6   C   :    0.000402526   -0.001634728   -0.002601655
   7   C   :   -0.000198263   -0.001045074   -0.005028034
   8   H   :    0.002069439    0.000522744    0.000099187
   9   H   :   -0.001816373   -0.002643778    0.003000634
  10   H   :   -0.000494599    0.001052670    0.000186363
  11   H   :    0.001462810   -0.002045832   -0.000315940
  12   H   :    0.000380715    0.000458179    0.001563618
  13   H   :   -0.001201997    0.001080024    0.005111990
  14   H   :   -0.001013162    0.001908522    0.000436144
  15   H   :   -0.000952158    0.000979066   -0.001832163
  16   N   :    0.036012655   -0.002614376    0.016786213
  17   O   :   -0.009090121    0.001275740   -0.030730991
  18   O   :   -0.026947359    0.001371553    0.014119920

Difference to translation invariance:
           :   -0.0001418697    0.0000137559    0.0001054938

Difference to rotation invariance:
           :    0.0010314317    0.0030301421    0.0000116234

Norm of the cartesian gradient     ...    0.0610600497
RMS gradient                       ...    0.0083092203
MAX gradient                       ...    0.0360126548

-------
TIMINGS
-------

Total SCF gradient time            ...       72.424 sec

One electron gradient       ....       1.203 sec  (  1.7%)
RI-J Coulomb gradient       ....       8.339 sec  ( 11.5%)
COSX gradient               ....      49.263 sec  ( 68.0%)
XC gradient                 ....      10.837 sec  ( 15.0%)

Maximum memory used throughout the entire SCFGRAD-calculation: 134.6 MB
------------------------------------------------------------------------------
                         ORCA GEOMETRY RELAXATION STEP
------------------------------------------------------------------------------

Reading the OPT-File                    .... done
Getting information on internals        .... done
Copying old internal coords+grads       .... done
Making the new internal coordinates     .... (new redundants).... done
Validating the new internal coordinates .... (new redundants).... done
Calculating the B-matrix                .... done
Calculating the G,G- and P matrices     .... done
Transforming gradient to internals      .... done
Projecting the internal gradient        .... done
Number of atoms                         ....  18
Number of internal coordinates          .... 116
Current Energy                          ....  -476.436182183 Eh
Current gradient norm                   ....     0.061060050 Eh/bohr
Maximum allowed component of the step   ....  0.300
Current trust radius                    ....  0.300
Updating the Hessian (BFGS)             .... done
Forming the augmented Hessian           .... done
Diagonalizing the augmented Hessian     .... done
Last element of RFO vector              ....  0.103146221
Lowest eigenvalues of augmented Hessian:
 -0.017809402 -0.003320743 -0.000000435  0.000401976  0.000734709
Length of the computed step             ....  9.643263650
Warning: the length of the step is outside the trust region - taking restricted step instead
The input lambda is                     ....    -0.017809
   iter:   1  x=   -0.017888  g=1183254.163453 f(x)=    92.902534
   iter:   2  x=   -0.018006  g=350895.692151 f(x)=    41.272384
   iter:   3  x=   -0.018181  g=104164.014407 f(x)=    18.323851
   iter:   4  x=   -0.018444  g=30992.983955 f(x)=     8.124144
   iter:   5  x=   -0.018831  g= 9270.020213 f(x)=     3.590884
   iter:   6  x=   -0.019393  g= 2805.454302 f(x)=     1.576156
   iter:   7  x=   -0.020174  g=  871.602338 f(x)=     0.680934
   iter:   8  x=   -0.021163  g=  286.827474 f(x)=     0.283630
   iter:   9  x=   -0.022181  g=  106.524140 f(x)=     0.108455
   iter:  10  x=   -0.022859  g=   49.782838 f(x)=     0.033734
   iter:  11  x=   -0.023049  g=   32.860102 f(x)=     0.006265
   iter:  12  x=   -0.023060  g=   29.526819 f(x)=     0.000325
   iter:  13  x=   -0.023060  g=   29.348328 f(x)=     0.000001
   iter:  14  x=   -0.023060  g=   29.347786 f(x)=     0.000000
   iter:  15  x=   -0.023060  g=   29.347786 f(x)=     0.000000
The output lambda is                    ....    -0.023060 (15 iterations)
The final length of the internal step   ....  0.300000000
Converting the step to cartesian space:
 Initial RMS(Int)=    0.0278543007
Transforming coordinates:
 Iter   0:  RMS(Cart)=    0.0199678961 RMS(Int)=    0.8236924171
 Iter   1:  RMS(Cart)=    0.0002270218 RMS(Int)=    0.0001694598
 Iter   2:  RMS(Cart)=    0.0000059426 RMS(Int)=    0.0000069129
 Iter   3:  RMS(Cart)=    0.0000001948 RMS(Int)=    0.0000004660
 Iter   4:  RMS(Cart)=    0.0000000118 RMS(Int)=    0.0000000330
done
Storing new coordinates                 .... done

                                .--------------------.
          ----------------------|Geometry convergence|-------------------------
          Item                value                   Tolerance       Converged
          ---------------------------------------------------------------------
          Energy change       0.0016486929            0.0000050000      NO
          RMS gradient        0.0035311337            0.0001000000      NO
          MAX gradient        0.0224273764            0.0003000000      NO
          RMS step            0.0278543007            0.0020000000      NO
          MAX step            0.1207463744            0.0040000000      NO
          ........................................................
          Max(Bonds)      0.0416      Max(Angles)    6.92
          Max(Dihed)        5.94      Max(Improp)    0.00
          ---------------------------------------------------------------------

The optimization has not yet converged - more geometry cycles are needed


    ---------------------------------------------------------------------------
                         Redundant Internal Coordinates
                            (Angstroem and degrees)

        Definition                    Value    dE/dq     Step     New-Value
    ----------------------------------------------------------------------------
     1. B(C   1,C   0)                1.4174 -0.002754  0.0030    1.4204   
     2. B(C   2,C   1)                1.3705 -0.002478  0.0013    1.3717   
     3. B(C   3,C   2)                1.4026 -0.006171  0.0082    1.4108   
     4. B(C   4,C   3)                1.4114 -0.000434 -0.0007    1.4107   
     5. B(C   5,C   4)                1.3622 -0.006111  0.0056    1.3678   
     6. B(C   5,C   0)                1.4251 -0.003220  0.0044    1.4295   
     7. B(C   6,C   0)                1.4710 -0.002468  0.0030    1.4740   
     8. B(H   7,C   6)                1.1033  0.002008 -0.0029    1.1003   
     9. B(H   8,C   6)                1.1046  0.004378 -0.0048    1.0998   
    10. B(H   9,C   6)                1.0884  0.001122 -0.0024    1.0860   
    11. B(H  10,C   1)                1.0782 -0.002512  0.0029    1.0810   
    12. B(H  11,C   2)                1.0793 -0.000860  0.0005    1.0798   
    13. B(H  12,C   3)                1.0751 -0.003872  0.0050    1.0801   
    14. B(H  13,C   4)                1.0781 -0.002158  0.0024    1.0805   
    15. B(H  14,C   5)                1.0790 -0.002273  0.0028    1.0818   
    16. B(O  16,H  12)               11.8101  0.001475 -0.0172   11.7928   
    17. B(O  16,H  11)               11.6284  0.000545 -0.0202   11.6082   
    18. B(O  16,C   3)               12.6474 -0.001332 -0.0084   12.6390   
    19. B(O  16,C   2)               12.5530 -0.000832 -0.0142   12.5389   
    20. B(O  16,N  15)                1.2281 -0.022427  0.0301    1.2583   
    21. B(O  17,O  16)                1.8646 -0.014310  0.0416    1.9062   
    22. B(O  17,N  15)                1.2293 -0.018503  0.0012    1.2305   
    23. A(C   5,C   0,C   6)          119.59 -0.001130    0.14    119.73   
    24. A(C   1,C   0,C   5)          118.91  0.000147    0.00    118.91   
    25. A(C   1,C   0,C   6)          121.50  0.000983   -0.17    121.34   
    26. A(C   0,C   1,H  10)          118.99  0.000272    0.02    119.01   
    27. A(C   2,C   1,H  10)          120.42 -0.000292    0.03    120.45   
    28. A(C   0,C   1,C   2)          120.59  0.000019   -0.05    120.54   
    29. A(C   1,C   2,H  11)          120.17 -0.000119    0.10    120.27   
    30. A(C   1,C   2,O  16)          149.67  0.000465   -0.06    149.61   
    31. A(C   3,C   2,O  16)           90.67  0.000095    0.02     90.69   
    32. A(C   1,C   2,C   3)          119.52 -0.000566    0.11    119.62   
    33. A(C   3,C   2,H  11)          120.31  0.000685   -0.21    120.10   
    34. A(H  11,C   2,O  16)           29.76  0.000595   -0.22     29.53   
    35. A(C   2,C   3,C   4)          120.85  0.000489   -0.02    120.83   
    36. A(C   4,C   3,H  12)          118.87 -0.000547    0.21    119.08   
    37. A(C   2,C   3,H  12)          120.26  0.000052   -0.16    120.10   
    38. A(C   4,C   3,O  16)          156.14 -0.000648    0.18    156.32   
    39. A(C   2,C   3,O  16)           82.97  0.000158   -0.10     82.87   
    40. A(H  12,C   3,O  16)           37.29 -0.000107   -0.26     37.03   
    41. A(C   5,C   4,H  13)          120.63 -0.000510    0.05    120.68   
    42. A(C   3,C   4,H  13)          119.73  0.000368   -0.01    119.72   
    43. A(C   3,C   4,C   5)          119.64  0.000140   -0.02    119.62   
    44. A(C   0,C   5,C   4)          120.47 -0.000236    0.06    120.53   
    45. A(C   4,C   5,H  14)          120.83  0.000381   -0.09    120.74   
    46. A(C   0,C   5,H  14)          118.70 -0.000146    0.04    118.74   
    47. A(H   8,C   6,H   9)          109.52 -0.000171    0.12    109.63   
    48. A(H   7,C   6,H   9)          108.78  0.000070   -0.03    108.75   
    49. A(C   0,C   6,H   9)          113.39  0.000585   -0.29    113.10   
    50. A(H   7,C   6,H   8)          104.57  0.000446   -0.11    104.47   
    51. A(C   0,C   6,H   8)          110.70  0.000258    0.01    110.70   
    52. A(C   0,C   6,H   7)          109.50 -0.001209    0.28    109.77   
    53. A(O  16,N  15,O  17)           98.71  0.011073    1.16     99.87   
    54. A(C   2,O  16,N  15)          168.87  0.001609    5.78    174.65   
    55. A(N  15,O  16,O  17)           40.67 -0.004812   -1.16     39.51   
    56. A(C   2,O  16,C   3)            6.37 -0.000254    0.07      6.44   
    57. A(C   3,O  16,O  17)          143.50  0.003822   -6.91    136.59   
    58. A(C   2,O  16,O  17)          146.27  0.003730   -6.92    139.35   
    59. A(N  15,O  17,O  16)           40.62 -0.006261    0.00     40.62   
    60. D(H  10,C   1,C   0,C   6)      1.19  0.000257   -0.07      1.12   
    61. D(C   2,C   1,C   0,C   6)   -178.49  0.000453   -0.53   -179.02   
    62. D(C   2,C   1,C   0,C   5)      1.36  0.000289   -0.21      1.15   
    63. D(H  10,C   1,C   0,C   5)   -178.95  0.000093    0.25   -178.71   
    64. D(O  16,C   2,C   1,H  10)     -5.84 -0.000157    0.33     -5.51   
    65. D(H  11,C   2,C   1,C   0)    179.66 -0.000136    0.54    180.20   
    66. D(C   3,C   2,C   1,C   0)      0.08 -0.000200    0.61      0.69   
    67. D(O  16,C   2,C   1,C   0)    173.84 -0.000354    0.78    174.63   
    68. D(H  11,C   2,C   1,H  10)     -0.03  0.000061    0.09      0.06   
    69. D(C   3,C   2,C   1,H  10)   -179.60 -0.000003    0.15   -179.45   
    70. D(C   4,C   3,C   2,C   1)     -1.64 -0.000007   -0.74     -2.38   
    71. D(C   4,C   3,C   2,O  16)   -178.49  0.000026   -0.50   -179.00   
    72. D(H  12,C   3,C   2,C   1)    176.94 -0.000261    0.00    176.95   
    73. D(C   4,C   3,C   2,H  11)    178.79 -0.000068   -0.71    178.07   
    74. D(H  12,C   3,C   2,H  11)     -2.63 -0.000322    0.03     -2.60   
    75. D(O  16,C   3,C   2,H  11)     -2.72 -0.000094   -0.21     -2.93   
    76. D(O  16,C   3,C   2,C   1)    176.85 -0.000034   -0.24    176.61   
    77. D(H  12,C   3,C   2,O  16)      0.09 -0.000227    0.24      0.33   
    78. D(H  13,C   4,C   3,H  12)      2.28  0.000234   -0.41      1.87   
    79. D(H  13,C   4,C   3,O  16)      4.58 -0.000037    0.18      4.76   
    80. D(H  13,C   4,C   3,C   2)   -179.12 -0.000008    0.27   -178.85   
    81. D(C   5,C   4,C   3,O  16)   -174.58  0.000133    0.33   -174.26   
    82. D(C   5,C   4,C   3,H  12)   -176.88  0.000403   -0.27   -177.15   
    83. D(C   5,C   4,C   3,C   2)      1.72  0.000161    0.42      2.14   
    84. D(C   0,C   5,C   4,H  13)   -179.39  0.000109    0.14   -179.25   
    85. D(C   0,C   5,C   4,C   3)     -0.23 -0.000055   -0.01     -0.24   
    86. D(H  14,C   5,C   0,C   6)     -0.87 -0.000180    0.23     -0.64   
    87. D(H  14,C   5,C   0,C   1)    179.28 -0.000022   -0.08    179.19   
    88. D(C   4,C   5,C   0,C   6)    178.57 -0.000299    0.21    178.78   
    89. D(H  14,C   5,C   4,C   3)    179.20 -0.000180   -0.02    179.18   
    90. D(C   4,C   5,C   0,C   1)     -1.28 -0.000142   -0.10     -1.38   
    91. D(H  14,C   5,C   4,H  13)      0.04 -0.000017    0.13      0.17   
    92. D(H   9,C   6,C   0,C   5)   -176.96 -0.000184    1.19   -175.77   
    93. D(H   9,C   6,C   0,C   1)      2.89 -0.000347    1.52      4.41   
    94. D(H   8,C   6,C   0,C   5)    -53.42  0.000222    1.18    -52.25   
    95. D(H   8,C   6,C   0,C   1)    126.43  0.000060    1.51    127.94   
    96. D(H   7,C   6,C   0,C   5)     61.35  0.000206    1.21     62.56   
    97. D(H   7,C   6,C   0,C   1)   -118.79  0.000043    1.54   -117.26   
    98. D(O  17,N  15,C   3,H  12)    -56.75 -0.000800   -0.03    -56.78   
    99. D(O  17,N  15,C   3,C   4)    -60.78 -0.000181    4.75    -56.03   
   100. D(O  17,N  15,C   3,C   2)    122.87 -0.000395    2.09    124.96   
   101. D(C   2,O  16,C   3,H  12)   -179.88 -0.000323   -0.85   -180.72   
   102. D(C   2,O  16,C   3,C   4)    176.80  0.000042    0.03    176.83   
   103. D(O  17,O  16,C   3,H  12)    -60.03  0.000246   -2.63    -62.66   
   104. D(O  17,O  16,C   3,C   4)    -63.36  0.000612   -1.75    -65.10   
   105. D(O  17,O  16,C   3,C   2)    119.84  0.000569   -1.78    118.06   
   106. D(C   3,O  16,C   2,H  11)    175.26 -0.000045   -0.64    174.62   
   107. D(C   3,O  16,C   2,C   1)   -174.57  0.000164   -0.18   -174.76   
   108. D(O  17,O  16,C   2,H  11)    106.94 -0.000284    0.46    107.40   
   109. D(O  17,O  16,C   2,C   3)    -68.33 -0.000239    1.10    -67.22   
   110. D(O  17,O  16,C   2,C   1)    117.10 -0.000074    0.92    118.02   
   111. D(N  15,O  16,C   2,H  11)    -15.55  0.000303   -0.82    -16.37   
   112. D(N  15,O  16,C   2,C   3)    169.19  0.000348   -0.18    169.00   
   113. D(C   2,O  16,N  15,O  17)    134.05 -0.000401    3.38    137.43   
   114. D(N  15,O  16,C   2,C   1)     -5.39  0.000512   -0.37     -5.75   
   115. D(N  15,O  17,O  16,C   3)   -175.51 -0.001095    5.94   -169.58   
   116. D(N  15,O  17,O  16,C   2)   -165.54 -0.000570    3.45   -162.08   
    ----------------------------------------------------------------------------




    ----------------------------------------------------------------------------
                                   ERROR !!!
       The optimization did not converge but reached the maximum 
       number of optimization cycles.
       As a subsequent Frequencies calculation has been requested
       ORCA will abort at this point of the run.
       Please restart the calculation with the lowest energy geometry and/or
       a larger maxiter for the geometry optimization.
    ----------------------------------------------------------------------------


[file orca_main/run.cpp, line 12331]: ORCA finished with error return - aborting the run
