
                                 *****************
                                 * O   R   C   A *
                                 *****************

                                            #,                                       
                                            ###                                      
                                            ####                                     
                                            #####                                    
                                            ######                                   
                                           ########,                                 
                                     ,,################,,,,,                         
                               ,,#################################,,                 
                          ,,##########################################,,             
                       ,#########################################, ''#####,          
                    ,#############################################,,   '####,        
                  ,##################################################,,,,####,       
                ,###########''''           ''''###############################       
              ,#####''   ,,,,##########,,,,          '''####'''          '####       
            ,##' ,,,,###########################,,,                        '##       
           ' ,,###''''                  '''############,,,                           
         ,,##''                                '''############,,,,        ,,,,,,###''
      ,#''                                            '''#######################'''  
     '                                                          ''''####''''         
             ,#######,   #######,   ,#######,      ##                                
            ,#'     '#,  ##    ##  ,#'     '#,    #''#        ######   ,####,        
            ##       ##  ##   ,#'  ##            #'  '#       #        #'  '#        
            ##       ##  #######   ##           ,######,      #####,   #    #        
            '#,     ,#'  ##    ##  '#,     ,#' ,#      #,         ##   #,  ,#        
             '#######'   ##     ##  '#######'  #'      '#     #####' # '####'        



                  #######################################################
                  #                        -***-                        #
                  #          Department of theory and spectroscopy      #
                  #    Directorship and core code : Frank Neese         #
                  #        Max Planck Institute fuer Kohlenforschung    #
                  #                Kaiser Wilhelm Platz 1               #
                  #                 D-45470 Muelheim/Ruhr               #
                  #                      Germany                        #
                  #                                                     #
                  #                  All rights reserved                #
                  #                        -***-                        #
                  #######################################################



                         Program Version 5.0.4 -  RELEASE  -

 With contributions from (in alphabetic order):
   Daniel Aravena         : Magnetic Suceptibility
   Michael Atanasov       : Ab Initio Ligand Field Theory (pilot matlab implementation)
   Alexander A. Auer      : GIAO ZORA, VPT2 properties, NMR spectrum
   Ute Becker             : Parallelization
   Giovanni Bistoni       : ED, misc. LED, open-shell LED, HFLD
   Martin Brehm           : Molecular dynamics
   Dmytro Bykov           : SCF Hessian
   Vijay G. Chilkuri      : MRCI spin determinant printing, contributions to CSF-ICE
   Dipayan Datta          : RHF DLPNO-CCSD density
   Achintya Kumar Dutta   : EOM-CC, STEOM-CC
   Dmitry Ganyushin       : Spin-Orbit,Spin-Spin,Magnetic field MRCI
   Miquel Garcia          : C-PCM and meta-GGA Hessian, CC/C-PCM, Gaussian charge scheme
   Yang Guo               : DLPNO-NEVPT2, F12-NEVPT2, CIM, IAO-localization
   Andreas Hansen         : Spin unrestricted coupled pair/coupled cluster methods
   Benjamin Helmich-Paris : MC-RPA, TRAH-SCF, COSX integrals
   Lee Huntington         : MR-EOM, pCC
   Robert Izsak           : Overlap fitted RIJCOSX, COSX-SCS-MP3, EOM
   Marcus Kettner         : VPT2
   Christian Kollmar      : KDIIS, OOCD, Brueckner-CCSD(T), CCSD density, CASPT2, CASPT2-K
   Simone Kossmann        : Meta GGA functionals, TD-DFT gradient, OOMP2, MP2 Hessian
   Martin Krupicka        : Initial AUTO-CI
   Lucas Lang             : DCDCAS
   Marvin Lechner         : AUTO-CI (C++ implementation), FIC-MRCC
   Dagmar Lenk            : GEPOL surface, SMD
   Dimitrios Liakos       : Extrapolation schemes; Compound Job, initial MDCI parallelization
   Dimitrios Manganas     : Further ROCIS development; embedding schemes
   Dimitrios Pantazis     : SARC Basis sets
   Anastasios Papadopoulos: AUTO-CI, single reference methods and gradients
   Taras Petrenko         : DFT Hessian,TD-DFT gradient, ASA, ECA, R-Raman, ABS, FL, XAS/XES, NRVS
   Peter Pinski           : DLPNO-MP2, DLPNO-MP2 Gradient
   Christoph Reimann      : Effective Core Potentials
   Marius Retegan         : Local ZFS, SOC
   Christoph Riplinger    : Optimizer, TS searches, QM/MM, DLPNO-CCSD(T), (RO)-DLPNO pert. Triples
   Tobias Risthaus        : Range-separated hybrids, TD-DFT gradient, RPA, STAB
   Michael Roemelt        : Original ROCIS implementation
   Masaaki Saitow         : Open-shell DLPNO-CCSD energy and density
   Barbara Sandhoefer     : DKH picture change effects
   Avijit Sen             : IP-ROCIS
   Kantharuban Sivalingam : CASSCF convergence, NEVPT2, FIC-MRCI
   Bernardo de Souza      : ESD, SOC TD-DFT
   Georgi Stoychev        : AutoAux, RI-MP2 NMR, DLPNO-MP2 response
   Willem Van den Heuvel  : Paramagnetic NMR
   Boris Wezisla          : Elementary symmetry handling
   Frank Wennmohs         : Technical directorship


 We gratefully acknowledge several colleagues who have allowed us to
 interface, adapt or use parts of their codes:
   Stefan Grimme, W. Hujo, H. Kruse, P. Pracht,  : VdW corrections, initial TS optimization,
                  C. Bannwarth, S. Ehlert          DFT functionals, gCP, sTDA/sTD-DF
   Ed Valeev, F. Pavosevic, A. Kumar             : LibInt (2-el integral package), F12 methods
   Garnet Chan, S. Sharma, J. Yang, R. Olivares  : DMRG
   Ulf Ekstrom                                   : XCFun DFT Library
   Mihaly Kallay                                 : mrcc  (arbitrary order and MRCC methods)
   Jiri Pittner, Ondrej Demel                    : Mk-CCSD
   Frank Weinhold                                : gennbo (NPA and NBO analysis)
   Christopher J. Cramer and Donald G. Truhlar   : smd solvation model
   Lars Goerigk                                  : TD-DFT with DH, B97 family of functionals
   V. Asgeirsson, H. Jonsson                     : NEB implementation
   FAccTs GmbH                                   : IRC, NEB, NEB-TS, DLPNO-Multilevel, CI-OPT
                                                   MM, QMMM, 2- and 3-layer-ONIOM, Crystal-QMMM,
                                                   LR-CPCM, SF, NACMEs, symmetry and pop. for TD-DFT,
                                                   nearIR, NL-DFT gradient (VV10), updates on ESD,
                                                   ML-optimized integration grids
   S Lehtola, MJT Oliveira, MAL Marques          : LibXC Library
   Liviu Ungur et al                             : ANISO software


 Your calculation uses the libint2 library for the computation of 2-el integrals
 For citations please refer to: http://libint.valeyev.net

 Your ORCA version has been built with support for libXC version: 5.1.0
 For citations please refer to: https://tddft.org/programs/libxc/

 This ORCA versions uses:
   CBLAS   interface :  Fast vector & matrix operations
   LAPACKE interface :  Fast linear algebra routines
   Shared memory     :  Shared parallel matrices


================================================================================

----- Orbital basis set information -----
Your calculation utilizes the basis: def2-TZVP
   F. Weigend and R. Ahlrichs, Phys. Chem. Chem. Phys. 7, 3297 (2005).

----- AuxJ basis set information -----
Your calculation utilizes the auxiliary basis: def2/J
   F. Weigend, Phys. Chem. Chem. Phys. 8, 1057 (2006).

================================================================================
                                        WARNINGS
                       Please study these warnings very carefully!
================================================================================


INFO   : the flag for use of the SHARK integral package has been found!


WARNING: TRAH does not support fractional occupations!
  ===> : Turning TRAH off
================================================================================
                                       INPUT FILE
================================================================================
NAME = benzen1_FOD.inp
|  1> ! FOD
|  2> 
|  3> *xyz 0 1
|  4> C 0.0000000  1.2077612  0.7161013
|  5> C 0.0000000  0.0000000  1.3596219
|  6> C 0.0000000 -1.2077612  0.7161013
|  7> C 0.0000000 -1.2077612 -0.7161013
|  8> C 0.0000000  0.0000000 -1.3596219
|  9> C 0.0000000  1.2077612 -0.7161013
| 10> H 0.0000000  2.1606260  1.2276695
| 11> H 0.0000000 -2.1606260  1.2276695
| 12> H 0.0000000 -2.1606260 -1.2276695
| 13> H 0.0000000  2.1606260 -1.2276695
| 14> **                         ****END OF INPUT****
================================================================================

                       ****************************
                       * Single Point Calculation *
                       ****************************

---------------------------------
CARTESIAN COORDINATES (ANGSTROEM)
---------------------------------
  C      0.000000    1.207761    0.716101
  C      0.000000    0.000000    1.359622
  C      0.000000   -1.207761    0.716101
  C      0.000000   -1.207761   -0.716101
  C      0.000000    0.000000   -1.359622
  C      0.000000    1.207761   -0.716101
  H      0.000000    2.160626    1.227669
  H      0.000000   -2.160626    1.227669
  H      0.000000   -2.160626   -1.227669
  H      0.000000    2.160626   -1.227669

----------------------------
CARTESIAN COORDINATES (A.U.)
----------------------------
  NO LB      ZA    FRAG     MASS         X           Y           Z
   0 C     6.0000    0    12.011    0.000000    2.282338    1.353235
   1 C     6.0000    0    12.011    0.000000    0.000000    2.569313
   2 C     6.0000    0    12.011    0.000000   -2.282338    1.353235
   3 C     6.0000    0    12.011    0.000000   -2.282338   -1.353235
   4 C     6.0000    0    12.011    0.000000    0.000000   -2.569313
   5 C     6.0000    0    12.011    0.000000    2.282338   -1.353235
   6 H     1.0000    0     1.008    0.000000    4.082991    2.319959
   7 H     1.0000    0     1.008    0.000000   -4.082991    2.319959
   8 H     1.0000    0     1.008    0.000000   -4.082991   -2.319959
   9 H     1.0000    0     1.008    0.000000    4.082991   -2.319959

--------------------------------
INTERNAL COORDINATES (ANGSTROEM)
--------------------------------
 C      0   0   0     0.000000000000     0.00000000     0.00000000
 C      1   0   0     1.368504979476     0.00000000     0.00000000
 C      2   1   0     1.368504979476   123.90073846     0.00000000
 C      3   2   1     1.432202600000   118.04963077     0.00000000
 C      4   3   2     1.368504979476   118.04963077     0.00000000
 C      5   4   3     1.368504979476   123.90073846     0.00000000
 H      1   2   3     1.081505131902   123.72018085   180.00000000
 H      3   2   1     1.081505131902   123.72018085   180.00000000
 H      4   3   2     1.081505131902   118.23018838   180.00000000
 H      6   5   4     1.081505131902   123.72018085   180.00000000

---------------------------
INTERNAL COORDINATES (A.U.)
---------------------------
 C      0   0   0     0.000000000000     0.00000000     0.00000000
 C      1   0   0     2.586099624117     0.00000000     0.00000000
 C      2   1   0     2.586099624117   123.90073846     0.00000000
 C      3   2   1     2.706470682290   118.04963077     0.00000000
 C      4   3   2     2.586099624117   118.04963077     0.00000000
 C      5   4   3     2.586099624117   123.90073846     0.00000000
 H      1   2   3     2.043748511725   123.72018085   180.00000000
 H      3   2   1     2.043748511725   123.72018085   180.00000000
 H      4   3   2     2.043748511725   118.23018838   180.00000000
 H      6   5   4     2.043748511725   123.72018085   180.00000000

---------------------
BASIS SET INFORMATION
---------------------
There are 2 groups of distinct atoms

 Group   1 Type C   : 11s6p2d1f contracted to 5s3p2d1f pattern {62111/411/11/1}
 Group   2 Type H   : 5s1p contracted to 3s1p pattern {311/1}

Atom   0C    basis set group =>   1
Atom   1C    basis set group =>   1
Atom   2C    basis set group =>   1
Atom   3C    basis set group =>   1
Atom   4C    basis set group =>   1
Atom   5C    basis set group =>   1
Atom   6H    basis set group =>   2
Atom   7H    basis set group =>   2
Atom   8H    basis set group =>   2
Atom   9H    basis set group =>   2
---------------------------------
AUXILIARY/J BASIS SET INFORMATION
---------------------------------
There are 2 groups of distinct atoms

 Group   1 Type C   : 12s5p4d2f1g contracted to 6s4p3d1f1g pattern {711111/2111/211/2/1}
 Group   2 Type H   : 5s2p1d contracted to 3s1p1d pattern {311/2/1}

Atom   0C    basis set group =>   1
Atom   1C    basis set group =>   1
Atom   2C    basis set group =>   1
Atom   3C    basis set group =>   1
Atom   4C    basis set group =>   1
Atom   5C    basis set group =>   1
Atom   6H    basis set group =>   2
Atom   7H    basis set group =>   2
Atom   8H    basis set group =>   2
Atom   9H    basis set group =>   2
------------------------------------------------------------------------------
                           ORCA GTO INTEGRAL CALCULATION
                           -- RI-GTO INTEGRALS CHOSEN --
------------------------------------------------------------------------------
------------------------------------------------------------------------------
                   ___                                                        
                  /   \      - P O W E R E D   B Y -                         
                 /     \                                                     
                 |  |  |   _    _      __       _____    __    __             
                 |  |  |  | |  | |    /  \     |  _  \  |  |  /  |          
                  \  \/   | |  | |   /    \    | | | |  |  | /  /          
                 / \  \   | |__| |  /  /\  \   | |_| |  |  |/  /          
                |  |  |   |  __  | /  /__\  \  |    /   |      \           
                |  |  |   | |  | | |   __   |  |    \   |  |\   \          
                \     /   | |  | | |  |  |  |  | |\  \  |  | \   \       
                 \___/    |_|  |_| |__|  |__|  |_| \__\ |__|  \__/        
                                                                              
                      - O R C A' S   B I G   F R I E N D -                    
                                      &                                       
                       - I N T E G R A L  F E E D E R -                       
                                                                              
 v1 FN, 2020, v2 2021                                                         
------------------------------------------------------------------------------


Reading SHARK input file benzen1_FOD.SHARKINP.tmp ... ok
----------------------
SHARK INTEGRAL PACKAGE
----------------------

Number of atoms                             ...     10
Number of basis functions                   ...    210
Number of shells                            ...     82
Maximum angular momentum                    ...      3
Integral batch strategy                     ... SHARK/LIBINT Hybrid
RI-J (if used) integral strategy            ... SPLIT-RIJ (Revised 2003 algorithm where possible)
Printlevel                                  ...      1
Contraction scheme used                     ... SEGMENTED contraction
Coulomb Range Separation                    ... NOT USED
Exchange Range Separation                   ... NOT USED
Finite Nucleus Model                        ... NOT USED
Auxiliary Coulomb fitting basis             ... AVAILABLE
   # of basis functions in Aux-J            ...    338
   # of shells in Aux-J                     ...    110
   Maximum angular momentum in Aux-J        ...      4
Auxiliary J/K fitting basis                 ... NOT available
Auxiliary Correlation fitting basis         ... NOT available
Auxiliary 'external' fitting basis          ... NOT available
Integral threshold                          ...     2.500000e-11
Primitive cut-off                           ...     2.500000e-12
Primitive pair pre-selection threshold      ...     2.500000e-12

Calculating pre-screening integrals         ... done (  0.1 sec) Dimension = 82
Organizing shell pair data                  ... done (  0.1 sec)
Shell pair information
Total number of shell pairs                 ...      3403
Shell pairs after pre-screening             ...      3303
Total number of primitive shell pairs       ...     10584
Primitive shell pairs kept                  ...      8205
          la=0 lb=0:    833 shell pairs
          la=1 lb=0:    900 shell pairs
          la=1 lb=1:    251 shell pairs
          la=2 lb=0:    500 shell pairs
          la=2 lb=1:    264 shell pairs
          la=2 lb=2:     78 shell pairs
          la=3 lb=0:    252 shell pairs
          la=3 lb=1:    132 shell pairs
          la=3 lb=2:     72 shell pairs
          la=3 lb=3:     21 shell pairs

Calculating one electron integrals          ... done (  0.0 sec)
Calculating RI/J V-Matrix + Cholesky decomp.... done (  0.0 sec)
Calculating Nuclear repulsion               ... done (  0.0 sec) ENN=    185.489526872870 Eh

SHARK setup successfully completed in   0.6 seconds

Maximum memory used throughout the entire GTOINT-calculation: 57.2 MB
-------------------------------------------------------------------------------
                                 ORCA SCF
-------------------------------------------------------------------------------

------------
SCF SETTINGS
------------
Hamiltonian:
 Density Functional     Method          .... DFT(GTOs)
 Exchange Functional    Exchange        .... TPSS
 Correlation Functional Correlation     .... TPSS
 LDA part of GGA corr.  LDAOpt          .... PW91-LDA
 Gradients option       PostSCFGGA      .... off
   Density functional embedding theory  .... OFF
   NL short-range parameter             ....  5.000000
 RI-approximation to the Coulomb term is turned on
   Number of AuxJ basis functions       .... 338


General Settings:
 Integral files         IntName         .... benzen1_FOD
 Hartree-Fock type      HFTyp           .... RHF
 Total Charge           Charge          ....    0
 Multiplicity           Mult            ....    1
 Number of Electrons    NEL             ....   40
 Basis Dimension        Dim             ....  210
 Nuclear Repulsion      ENuc            ....    185.4895268729 Eh

Convergence Acceleration:
 DIIS                   CNVDIIS         .... on
   Start iteration      DIISMaxIt       ....    12
   Startup error        DIISStart       ....  0.200000
   # of expansion vecs  DIISMaxEq       ....     5
   Bias factor          DIISBfac        ....   1.050
   Max. coefficient     DIISMaxC        ....  10.000
 Trust-Rad. Augm. Hess. CNVTRAH         .... off
 SOSCF                  CNVSOSCF        .... on
   Start iteration      SOSCFMaxIt      ....   150
   Startup grad/error   SOSCFStart      ....  0.003300
 Level Shifting         CNVShift        .... on
   Level shift para.    LevelShift      ....    0.2500
   Turn off err/grad.   ShiftErr        ....    0.0010
 Zerner damping         CNVZerner       .... off
 Static damping         CNVDamp         .... on
   Fraction old density DampFac         ....    0.7000
   Max. Damping (<1)    DampMax         ....    0.9800
   Min. Damping (>=0)   DampMin         ....    0.0000
   Turn off err/grad.   DampErr         ....    0.1000
 Fernandez-Rico         CNVRico         .... off

SCF Procedure:
 Maximum # iterations   MaxIter         ....   125
 SCF integral mode      SCFMode         .... Direct
   Integral package                     .... SHARK and LIBINT hybrid scheme
 Reset frequency        DirectResetFreq ....    20
 Integral Threshold     Thresh          ....  2.500e-11 Eh
 Primitive CutOff       TCut            ....  2.500e-12 Eh

Convergence Tolerance:
 Convergence Check Mode ConvCheckMode   .... Total+1el-Energy
 Convergence forced     ConvForced      .... 0
 Energy Change          TolE            ....  1.000e-08 Eh
 1-El. energy change                    ....  1.000e-05 Eh
 Orbital Gradient       TolG            ....  1.000e-05
 Orbital Rotation angle TolX            ....  1.000e-05
 DIIS Error             TolErr          ....  5.000e-07


Diagonalization of the overlap matrix:
Smallest eigenvalue                        ... 3.086e-05
Time for diagonalization                   ...    0.012 sec
Threshold for overlap eigenvalues          ... 1.000e-08
Number of eigenvalues below threshold      ... 0
Time for construction of square roots      ...    0.009 sec
Total time needed                          ...    0.021 sec

Time for model grid setup =    0.378 sec

------------------------------
INITIAL GUESS: MODEL POTENTIAL
------------------------------
Loading Hartree-Fock densities                     ... done
Calculating cut-offs                               ... done
Initializing the effective Hamiltonian             ... done
Setting up the integral package (SHARK)            ... done
Starting the Coulomb interaction                   ... done (   1.1 sec)
Reading the grid                                   ... done
Mapping shells                                     ... done
Starting the XC term evaluation                    ... done (   2.5 sec)
  promolecular density results
     # of electrons  =     39.997085344
     EX              =    -31.760904528
     EC              =     -1.297466439
     EX+EC           =    -33.058370967
Transforming the Hamiltonian                       ... done (   0.0 sec)
Diagonalizing the Hamiltonian                      ... done (   0.0 sec)
Back transforming the eigenvectors                 ... done (   0.0 sec)
Now organizing SCF variables                       ... done
                      ------------------
                      INITIAL GUESS DONE (   4.0 sec)
                      ------------------
-------------------
DFT GRID GENERATION
-------------------

General Integration Accuracy     IntAcc      ... 4.388
Radial Grid Type                 RadialGrid  ... OptM3 with GC (2021)
Angular Grid (max. ang.)         AngularGrid ... 4 (Lebedev-302)
Angular grid pruning method      GridPruning ... 4 (adaptive)
Weight generation scheme         WeightScheme... Becke
Basis function cutoff            BFCut       ... 1.0000e-11
Integration weight cutoff        WCut        ... 1.0000e-14
Angular grids for H and He will be reduced by one unit
Partially contracted basis set               ... off
Rotationally invariant grid construction     ... off

Total number of grid points                  ...    49190
Total number of batches                      ...      770
Average number of points per batch           ...       63
Average number of grid points per atom       ...     4919
Time for grid setup =    2.700 sec


Warning: Fractional occupation numbers cannot be used with CNVRico or SOSCF

--------------
SCF ITERATIONS
--------------
ITER       Energy         Delta-E        Max-DP      RMS-DP      [F,P]     Damp
               ***  Starting incremental Fock matrix formation  ***
  0   -230.8804896599   0.000000000000 0.02462035  0.00097927  0.1124180 0.7000
  1   -230.9308987577  -0.050409097826 0.03094129  0.00099867  0.0563089 0.7000
                               ***Turning on DIIS***
  2   -230.9836239477  -0.052725190048 0.06011434  0.00206388  0.0202204 0.0000
  3   -230.9939343770  -0.010310429252 0.02520670  0.00072054  0.0316159 0.0000
  4   -231.0029270393  -0.008992662339 0.01288877  0.00040252  0.0060964 0.0000
  5   -231.0033327256  -0.000405686246 0.00682814  0.00019853  0.0016279 0.0000
  6   -231.0033606916  -0.000027966072 0.00274466  0.00007837  0.0012578 0.0000
  7   -231.0033771998  -0.000016508130 0.00206707  0.00005703  0.0002066 0.0000
  8   -231.0033984467  -0.000021246922 0.00010586  0.00000298  0.0000728 0.0000
  9   -231.0033984957  -0.000000048984 0.00007350  0.00000147  0.0000174 0.0000
 10   -231.0033984231   0.000000072617 0.00006815  0.00000127  0.0001096 0.0000
 11   -231.0033984975  -0.000000074415 0.00000941  0.00000041  0.0000060 0.0000
 12   -231.0033984941   0.000000003348 0.00000713  0.00000028  0.0000046 0.0000
 13   -231.0033984902   0.000000003897 0.00000979  0.00000029  0.0000012 0.0000
                 **** Energy Check signals convergence ****
Fermi smearing:E(HOMO(Eh)) = -0.201255 MUE = -0.179318 gap=   1.119 eV

N_FOD =  0.920362

               *****************************************************
               *                     SUCCESS                       *
               *           SCF CONVERGED AFTER  14 CYCLES          *
               *****************************************************


----------------
TOTAL SCF ENERGY
----------------

Total Energy       :         -231.00339849 Eh           -6285.92204 eV

Components:
Nuclear Repulsion  :          185.48952687 Eh            5047.42663 eV
Electronic Energy  :         -416.49292536 Eh          -11333.34868 eV
One Electron Energy:         -676.55510716 Eh          -18410.00041 eV
Two Electron Energy:          260.06218180 Eh            7076.65174 eV

Virial components:
Potential Energy   :         -460.93772997 Eh          -12542.75329 eV
Kinetic Energy     :          229.93433149 Eh            6256.83125 eV
Virial Ratio       :            2.00464944


DFT components:
N(Alpha)           :       20.000023757852 electrons
N(Beta)            :       20.000023757852 electrons
N(Total)           :       40.000047515703 electrons
E(X)               :      -32.671327785238 Eh       
E(C)               :       -1.307733248961 Eh       
E(XC)              :      -33.979061034200 Eh       
DFET-embed. en.    :        0.000000000000 Eh       

---------------
SCF CONVERGENCE
---------------

  Last Energy change         ...    2.9557e-09  Tolerance :   1.0000e-08
  Last MAX-Density change    ...    1.0788e-05  Tolerance :   1.0000e-07
  Last RMS-Density change    ...    4.2202e-07  Tolerance :   5.0000e-09
  Last DIIS Error            ...    2.7815e-07  Tolerance :   5.0000e-07

             **** THE GBW FILE WAS UPDATED (benzen1_FOD.gbw) ****
             **** DENSITY benzen1_FOD.scfp WAS UPDATED ****
             **** ENERGY FILE WAS UPDATED (benzen1_FOD.en.tmp) ****
             **** THE GBW FILE WAS UPDATED (benzen1_FOD.gbw) ****
             **** DENSITY benzen1_FOD.scfp WAS UPDATED ****
----------------
ORBITAL ENERGIES
----------------

  NO   OCC          E(Eh)            E(eV) 
   0   2.0000     -10.018735      -272.6236 
   1   2.0000     -10.018733      -272.6236 
   2   2.0000     -10.018477      -272.6166 
   3   2.0000     -10.018459      -272.6161 
   4   2.0000     -10.010658      -272.4039 
   5   2.0000     -10.010650      -272.4036 
   6   2.0000      -0.812333       -22.1047 
   7   2.0000      -0.711164       -19.3518 
   8   2.0000      -0.690925       -18.8010 
   9   2.0000      -0.576884       -15.6978 
  10   2.0000      -0.550673       -14.9846 
  11   2.0000      -0.448430       -12.2024 
  12   2.0000      -0.433736       -11.8026 
  13   2.0000      -0.424892       -11.5619 
  14   2.0000      -0.398539       -10.8448 
  15   2.0000      -0.350828        -9.5465 
  16   1.9999      -0.340865        -9.2754 
  17   1.9720      -0.246659        -6.7119 
  18   1.9683      -0.244677        -6.6580 
  19   1.5997      -0.201255        -5.4764 
  20   0.4589      -0.160136        -4.3575 
  21   0.0011      -0.060835        -1.6554 
  22   0.0002      -0.030825        -0.8388 
  23   0.0000       0.045356         1.2342 
  24   0.0000       0.060108         1.6356 
  25   0.0000       0.086478         2.3532 
  26   0.0000       0.094815         2.5801 
  27   0.0000       0.105999         2.8844 
  28   0.0000       0.136740         3.7209 
  29   0.0000       0.148094         4.0298 
  30   0.0000       0.191410         5.2085 
  31   0.0000       0.201597         5.4857 
  32   0.0000       0.201947         5.4952 
  33   0.0000       0.208329         5.6689 
  34   0.0000       0.214951         5.8491 
  35   0.0000       0.230062         6.2603 
  36   0.0000       0.237990         6.4760 
  37   0.0000       0.239349         6.5130 
  38   0.0000       0.277795         7.5592 
  39   0.0000       0.280951         7.6451 
  40   0.0000       0.288580         7.8526 
  41   0.0000       0.305496         8.3130 
  42   0.0000       0.311927         8.4880 
  43   0.0000       0.318970         8.6796 
  44   0.0000       0.323505         8.8030 
  45   0.0000       0.366626         9.9764 
  46   0.0000       0.389749        10.6056 
  47   0.0000       0.391194        10.6449 
  48   0.0000       0.408065        11.1040 
  49   0.0000       0.412317        11.2197 
  50   0.0000       0.432113        11.7584 
  51   0.0000       0.437007        11.8916 
  52   0.0000       0.446099        12.1390 
  53   0.0000       0.453462        12.3393 
  54   0.0000       0.471312        12.8251 
  55   0.0000       0.475786        12.9468 
  56   0.0000       0.498220        13.5573 
  57   0.0000       0.502446        13.6723 
  58   0.0000       0.610071        16.6009 
  59   0.0000       0.617008        16.7896 
  60   0.0000       0.622958        16.9515 
  61   0.0000       0.654969        17.8226 
  62   0.0000       0.698447        19.0057 
  63   0.0000       0.705706        19.2032 
  64   0.0000       0.722149        19.6507 
  65   0.0000       0.731689        19.9103 
  66   0.0000       0.748727        20.3739 
  67   0.0000       0.804799        21.8997 
  68   0.0000       0.821222        22.3466 
  69   0.0000       0.832850        22.6630 
  70   0.0000       0.855846        23.2888 
  71   0.0000       0.966377        26.2965 
  72   0.0000       0.980171        26.6718 
  73   0.0000       0.983253        26.7557 
  74   0.0000       0.987371        26.8677 
  75   0.0000       1.014998        27.6195 
  76   0.0000       1.048081        28.5197 
  77   0.0000       1.066039        29.0084 
  78   0.0000       1.104937        30.0669 
  79   0.0000       1.143605        31.1191 
  80   0.0000       1.148575        31.2543 
  81   0.0000       1.156485        31.4696 
  82   0.0000       1.202532        32.7226 
  83   0.0000       1.202813        32.7302 
  84   0.0000       1.213990        33.0343 
  85   0.0000       1.249192        33.9922 
  86   0.0000       1.259642        34.2766 
  87   0.0000       1.279466        34.8160 
  88   0.0000       1.348517        36.6950 
  89   0.0000       1.372604        37.3505 
  90   0.0000       1.386935        37.7404 
  91   0.0000       1.418914        38.6106 
  92   0.0000       1.419597        38.6292 
  93   0.0000       1.437926        39.1279 
  94   0.0000       1.453251        39.5450 
  95   0.0000       1.490197        40.5503 
  96   0.0000       1.506687        40.9990 
  97   0.0000       1.538775        41.8722 
  98   0.0000       1.571297        42.7572 
  99   0.0000       1.622895        44.1612 
 100   0.0000       1.627658        44.2908 
 101   0.0000       1.651032        44.9269 
 102   0.0000       1.699895        46.2565 
 103   0.0000       1.725276        46.9472 
 104   0.0000       1.763322        47.9824 
 105   0.0000       1.764199        48.0063 
 106   0.0000       1.782774        48.5117 
 107   0.0000       1.804131        49.0929 
 108   0.0000       1.869506        50.8718 
 109   0.0000       1.955211        53.2040 
 110   0.0000       1.994944        54.2852 
 111   0.0000       2.072871        56.4057 
 112   0.0000       2.086048        56.7643 
 113   0.0000       2.138948        58.2037 
 114   0.0000       2.139986        58.2320 
 115   0.0000       2.143803        58.3358 
 116   0.0000       2.211122        60.1677 
 117   0.0000       2.224962        60.5443 
 118   0.0000       2.267746        61.7085 
 119   0.0000       2.279548        62.0297 
 120   0.0000       2.349487        63.9328 
 121   0.0000       2.460905        66.9646 
 122   0.0000       2.465542        67.0908 
 123   0.0000       2.496936        67.9451 
 124   0.0000       2.532947        68.9250 
 125   0.0000       2.534729        68.9735 
 126   0.0000       2.549269        69.3691 
 127   0.0000       2.557472        69.5924 
 128   0.0000       2.592462        70.5445 
 129   0.0000       2.617331        71.2212 
 130   0.0000       2.631594        71.6093 
 131   0.0000       2.636345        71.7386 
 132   0.0000       2.637405        71.7674 
 133   0.0000       2.690886        73.2227 
 134   0.0000       2.693039        73.2813 
 135   0.0000       2.743854        74.6641 
 136   0.0000       2.745223        74.7013 
 137   0.0000       2.754471        74.9530 
 138   0.0000       2.769854        75.3716 
 139   0.0000       2.782648        75.7197 
 140   0.0000       2.785132        75.7873 
 141   0.0000       2.786810        75.8330 
 142   0.0000       2.825072        76.8741 
 143   0.0000       2.876137        78.2637 
 144   0.0000       2.940024        80.0021 
 145   0.0000       2.975142        80.9577 
 146   0.0000       3.036012        82.6141 
 147   0.0000       3.039784        82.7167 
 148   0.0000       3.040660        82.7406 
 149   0.0000       3.067952        83.4832 
 150   0.0000       3.092262        84.1447 
 151   0.0000       3.103338        84.4461 
 152   0.0000       3.107585        84.5617 
 153   0.0000       3.171316        86.2959 
 154   0.0000       3.179545        86.5198 
 155   0.0000       3.199162        87.0536 
 156   0.0000       3.213149        87.4342 
 157   0.0000       3.251482        88.4773 
 158   0.0000       3.260103        88.7119 
 159   0.0000       3.308141        90.0191 
 160   0.0000       3.330359        90.6237 
 161   0.0000       3.351852        91.2085 
 162   0.0000       3.363589        91.5279 
 163   0.0000       3.381154        92.0059 
 164   0.0000       3.385120        92.1138 
 165   0.0000       3.444951        93.7419 
 166   0.0000       3.464201        94.2657 
 167   0.0000       3.468880        94.3930 
 168   0.0000       3.484912        94.8293 
 169   0.0000       3.504541        95.3634 
 170   0.0000       3.509463        95.4974 
 171   0.0000       3.615416        98.3805 
 172   0.0000       3.684874       100.2705 
 173   0.0000       3.721873       101.2773 
 174   0.0000       3.755854       102.2020 
 175   0.0000       3.766559       102.4933 
 176   0.0000       3.921999       106.7230 
 177   0.0000       3.960291       107.7650 
 178   0.0000       4.024849       109.5217 
 179   0.0000       4.032966       109.7426 
 180   0.0000       4.051563       110.2486 
 181   0.0000       4.129315       112.3644 
 182   0.0000       4.146718       112.8379 
 183   0.0000       4.150209       112.9329 
 184   0.0000       4.235243       115.2468 
 185   0.0000       4.255004       115.7845 
 186   0.0000       4.275472       116.3415 
 187   0.0000       4.276322       116.3646 
 188   0.0000       4.300590       117.0250 
 189   0.0000       4.312437       117.3474 
 190   0.0000       4.543503       123.6350 
 191   0.0000       4.578561       124.5890 
 192   0.0000       4.593166       124.9864 
 193   0.0000       4.635677       126.1432 
 194   0.0000       4.648015       126.4789 
 195   0.0000       4.787714       130.2803 
 196   0.0000       4.836843       131.6172 
 197   0.0000       4.849063       131.9497 
 198   0.0000       4.896675       133.2453 
 199   0.0000       5.126882       139.5095 
 200   0.0000       5.148625       140.1012 
 201   0.0000       5.280997       143.7032 
 202   0.0000       5.351274       145.6156 
 203   0.0000       5.492500       149.4585 
 204   0.0000      21.703934       590.5941 
 205   0.0000      22.329793       607.6246 
 206   0.0000      22.412286       609.8693 
 207   0.0000      22.465478       611.3167 
 208   0.0000      22.491538       612.0259 
 209   0.0000      22.839465       621.4934 

                    ********************************
                    * MULLIKEN POPULATION ANALYSIS *
                    ********************************

------------------------------------------
FOD BASED MULLIKEN REDUCED ORBITAL CHARGES
------------------------------------------
  0 C s       :     0.007440  s :     0.007440
      pz      :     0.016573  p :     0.031763
      px      :     0.009931
      py      :     0.005260
      dz2     :     0.004049  d :     0.010125
      dxz     :     0.000256
      dyz     :     0.004956
      dx2y2   :     0.000774
      dxy     :     0.000090
      f0      :     0.000005  f :     0.000376
      f+1     :     0.000014
      f-1     :     0.000309
      f+2     :     0.000002
      f-2     :     0.000006
      f+3     :     0.000010
      f-3     :     0.000029
  1 C s       :     0.033251  s :     0.033251
      pz      :     0.292253  p :     0.301690
      px      :     0.009428
      py      :     0.000009
      dz2     :     0.000656  d :     0.002876
      dxz     :     0.000019
      dyz     :     0.000000
      dx2y2   :     0.001855
      dxy     :     0.000346
      f0      :     0.000030  f :     0.000137
      f+1     :    -0.000000
      f-1     :     0.000000
      f+2     :     0.000073
      f-2     :     0.000019
      f+3     :     0.000016
      f-3     :     0.000000
  2 C s       :     0.007440  s :     0.007440
      pz      :     0.016573  p :     0.031763
      px      :     0.009931
      py      :     0.005260
      dz2     :     0.004049  d :     0.010125
      dxz     :     0.000256
      dyz     :     0.004956
      dx2y2   :     0.000774
      dxy     :     0.000090
      f0      :     0.000005  f :     0.000376
      f+1     :     0.000014
      f-1     :     0.000309
      f+2     :     0.000002
      f-2     :     0.000006
      f+3     :     0.000010
      f-3     :     0.000029
  3 C s       :     0.007441  s :     0.007441
      pz      :     0.016572  p :     0.031764
      px      :     0.009931
      py      :     0.005261
      dz2     :     0.004049  d :     0.010125
      dxz     :     0.000256
      dyz     :     0.004956
      dx2y2   :     0.000774
      dxy     :     0.000090
      f0      :     0.000005  f :     0.000376
      f+1     :     0.000014
      f-1     :     0.000309
      f+2     :     0.000002
      f-2     :     0.000006
      f+3     :     0.000010
      f-3     :     0.000029
  4 C s       :     0.033244  s :     0.033244
      pz      :     0.292257  p :     0.301693
      px      :     0.009428
      py      :     0.000009
      dz2     :     0.000656  d :     0.002876
      dxz     :     0.000019
      dyz     :     0.000000
      dx2y2   :     0.001855
      dxy     :     0.000346
      f0      :     0.000030  f :     0.000137
      f+1     :    -0.000000
      f-1     :     0.000000
      f+2     :     0.000073
      f-2     :     0.000019
      f+3     :     0.000016
      f-3     :     0.000000
  5 C s       :     0.007441  s :     0.007441
      pz      :     0.016572  p :     0.031764
      px      :     0.009931
      py      :     0.005261
      dz2     :     0.004049  d :     0.010125
      dxz     :     0.000256
      dyz     :     0.004956
      dx2y2   :     0.000774
      dxy     :     0.000090
      f0      :     0.000005  f :     0.000376
      f+1     :     0.000014
      f-1     :     0.000309
      f+2     :     0.000002
      f-2     :     0.000006
      f+3     :     0.000010
      f-3     :     0.000029
  6 H s       :     0.011236  s :     0.011236
      pz      :     0.000113  p :     0.000174
      px      :     0.000057
      py      :     0.000003
  7 H s       :     0.011236  s :     0.011236
      pz      :     0.000113  p :     0.000174
      px      :     0.000057
      py      :     0.000003
  8 H s       :     0.011236  s :     0.011236
      pz      :     0.000113  p :     0.000174
      px      :     0.000057
      py      :     0.000003
  9 H s       :     0.011236  s :     0.011236
      pz      :     0.000113  p :     0.000174
      px      :     0.000057
      py      :     0.000003


                     *******************************
                     * LOEWDIN POPULATION ANALYSIS *
                     *******************************

----------------------
LOEWDIN ATOMIC CHARGES
----------------------
   0 C :   -0.137701
   1 C :   -0.028771
   2 C :   -0.137701
   3 C :   -0.137701
   4 C :   -0.028773
   5 C :   -0.137701
   6 H :    0.152087
   7 H :    0.152087
   8 H :    0.152087
   9 H :    0.152087

-------------------------------
LOEWDIN REDUCED ORBITAL CHARGES
-------------------------------
  0 C s       :     2.786087  s :     2.786087
      pz      :     0.996566  p :     2.923594
      px      :     0.896816
      py      :     1.030211
      dz2     :     0.108273  d :     0.384015
      dxz     :     0.057662
      dyz     :     0.143815
      dx2y2   :     0.045811
      dxy     :     0.028453
      f0      :     0.007093  f :     0.044006
      f+1     :     0.005628
      f-1     :     0.015312
      f+2     :     0.005056
      f-2     :     0.002706
      f+3     :     0.003617
      f-3     :     0.004593
  1 C s       :     2.856828  s :     2.856828
      pz      :     0.880669  p :     2.799814
      px      :     0.843191
      py      :     1.075954
      dz2     :     0.054943  d :     0.325985
      dxz     :     0.013392
      dyz     :     0.107562
      dx2y2   :     0.067022
      dxy     :     0.083066
      f0      :     0.003085  f :     0.046144
      f+1     :     0.000087
      f-1     :     0.015536
      f+2     :     0.007359
      f-2     :     0.007910
      f+3     :     0.005623
      f-3     :     0.006545
  2 C s       :     2.786087  s :     2.786087
      pz      :     0.996566  p :     2.923594
      px      :     0.896816
      py      :     1.030211
      dz2     :     0.108273  d :     0.384015
      dxz     :     0.057662
      dyz     :     0.143815
      dx2y2   :     0.045811
      dxy     :     0.028453
      f0      :     0.007093  f :     0.044006
      f+1     :     0.005628
      f-1     :     0.015312
      f+2     :     0.005056
      f-2     :     0.002706
      f+3     :     0.003617
      f-3     :     0.004593
  3 C s       :     2.786087  s :     2.786087
      pz      :     0.996566  p :     2.923594
      px      :     0.896816
      py      :     1.030211
      dz2     :     0.108273  d :     0.384015
      dxz     :     0.057662
      dyz     :     0.143815
      dx2y2   :     0.045811
      dxy     :     0.028453
      f0      :     0.007093  f :     0.044006
      f+1     :     0.005628
      f-1     :     0.015312
      f+2     :     0.005056
      f-2     :     0.002706
      f+3     :     0.003617
      f-3     :     0.004593
  4 C s       :     2.856828  s :     2.856828
      pz      :     0.880670  p :     2.799815
      px      :     0.843191
      py      :     1.075954
      dz2     :     0.054943  d :     0.325985
      dxz     :     0.013392
      dyz     :     0.107562
      dx2y2   :     0.067022
      dxy     :     0.083066
      f0      :     0.003085  f :     0.046144
      f+1     :     0.000087
      f-1     :     0.015536
      f+2     :     0.007359
      f-2     :     0.007910
      f+3     :     0.005623
      f-3     :     0.006545
  5 C s       :     2.786087  s :     2.786087
      pz      :     0.996566  p :     2.923594
      px      :     0.896816
      py      :     1.030211
      dz2     :     0.108273  d :     0.384015
      dxz     :     0.057662
      dyz     :     0.143815
      dx2y2   :     0.045811
      dxy     :     0.028453
      f0      :     0.007093  f :     0.044006
      f+1     :     0.005628
      f-1     :     0.015312
      f+2     :     0.005056
      f-2     :     0.002706
      f+3     :     0.003617
      f-3     :     0.004593
  6 H s       :     0.788032  s :     0.788032
      pz      :     0.016595  p :     0.059881
      px      :     0.013853
      py      :     0.029434
  7 H s       :     0.788032  s :     0.788032
      pz      :     0.016595  p :     0.059881
      px      :     0.013853
      py      :     0.029434
  8 H s       :     0.788032  s :     0.788032
      pz      :     0.016595  p :     0.059881
      px      :     0.013853
      py      :     0.029434
  9 H s       :     0.788032  s :     0.788032
      pz      :     0.016595  p :     0.059881
      px      :     0.013853
      py      :     0.029434


                      *****************************
                      * MAYER POPULATION ANALYSIS *
                      *****************************

  NA   - Mulliken gross atomic population
  ZA   - Total nuclear charge
  QA   - Mulliken gross atomic charge
  VA   - Mayer's total valence
  BVA  - Mayer's bonded valence
  FA   - Mayer's free valence

  ATOM       NA         ZA         QA         VA         BVA        FA
  0 C      6.1350     6.0000    -0.1350     4.0231     3.9411     0.0820
  1 C      5.9964     6.0000     0.0036     3.9544     3.4196     0.5348
  2 C      6.1350     6.0000    -0.1350     4.0230     3.9411     0.0820
  3 C      6.1350     6.0000    -0.1350     4.0231     3.9411     0.0820
  4 C      5.9964     6.0000     0.0036     3.9544     3.4196     0.5348
  5 C      6.1350     6.0000    -0.1350     4.0231     3.9411     0.0820
  6 H      0.8668     1.0000     0.1332     0.9656     0.9479     0.0176
  7 H      0.8668     1.0000     0.1332     0.9656     0.9479     0.0176
  8 H      0.8668     1.0000     0.1332     0.9656     0.9479     0.0176
  9 H      0.8668     1.0000     0.1332     0.9656     0.9479     0.0176

  Mayer bond orders larger than 0.100000
B(  0-C ,  1-C ) :   1.5757 B(  0-C ,  5-C ) :   1.2813 B(  0-C ,  6-H ) :   0.9319 
B(  1-C ,  2-C ) :   1.5757 B(  1-C ,  4-C ) :   0.1579 B(  2-C ,  3-C ) :   1.2813 
B(  2-C ,  7-H ) :   0.9319 B(  3-C ,  4-C ) :   1.5757 B(  3-C ,  8-H ) :   0.9319 
B(  4-C ,  5-C ) :   1.5757 B(  5-C ,  9-H ) :   0.9319 

-------
TIMINGS
-------

Total SCF time: 0 days 0 hours 1 min 53 sec 

Total time                  ....     113.196 sec
Sum of individual times     ....     112.398 sec  ( 99.3%)

Fock matrix formation       ....     104.534 sec  ( 92.3%)
  Split-RI-J                ....      12.554 sec  ( 12.0% of F)
  XC integration            ....      91.724 sec  ( 87.7% of F)
    Basis function eval.    ....      15.705 sec  ( 17.1% of XC)
    Density eval.           ....      32.960 sec  ( 35.9% of XC)
    XC-Functional eval.     ....       4.406 sec  (  4.8% of XC)
    XC-Potential eval.      ....      34.422 sec  ( 37.5% of XC)
Diagonalization             ....       0.427 sec  (  0.4%)
Density matrix formation    ....       0.196 sec  (  0.2%)
Population analysis         ....       0.068 sec  (  0.1%)
Initial guess               ....       3.667 sec  (  3.2%)
Orbital Transformation      ....       0.000 sec  (  0.0%)
Orbital Orthonormalization  ....       0.000 sec  (  0.0%)
DIIS solution               ....       0.428 sec  (  0.4%)
Grid generation             ....       3.078 sec  (  2.7%)

Maximum memory used throughout the entire SCF-calculation: 73.0 MB

-------------------------   --------------------
FINAL SINGLE POINT ENERGY      -231.003398487279
-------------------------   --------------------


                            ***************************************
                            *     ORCA property calculations      *
                            ***************************************

                                    ---------------------
                                    Active property flags
                                    ---------------------
   (+) Dipole Moment


------------------------------------------------------------------------------
                       ORCA ELECTRIC PROPERTIES CALCULATION
------------------------------------------------------------------------------

Dipole Moment Calculation                       ... on
Quadrupole Moment Calculation                   ... off
Polarizability Calculation                      ... off
GBWName                                         ... benzen1_FOD.gbw
Electron density                                ... benzen1_FOD.scfp
The origin for moment calculation is the CENTER OF MASS  = ( 0.000000,  0.000000  0.000000)

-------------
DIPOLE MOMENT
-------------
                                X             Y             Z
Electronic contribution:      0.00000       0.00000       0.00001
Nuclear contribution   :      0.00000       0.00000       0.00000
                        -----------------------------------------
Total Dipole Moment    :      0.00000       0.00000       0.00001
                        -----------------------------------------
Magnitude (a.u.)       :      0.00001
Magnitude (Debye)      :      0.00002



--------------------
Rotational spectrum 
--------------------
 
Rotational constants in cm-1:     0.224409     0.189617     0.102775 
Rotational constants in MHz :  6727.599888  5684.567580  3081.129570 

 Dipole components along the rotational axes: 
x,y,z [a.u.] :     0.000000     0.000006     0.000000 
x,y,z [Debye]:     0.000000     0.000015     0.000000 

 

Timings for individual modules:

Sum of individual times         ...      113.977 sec (=   1.900 min)
GTO integral calculation        ...        0.695 sec (=   0.012 min)   0.6 %
SCF iterations                  ...      113.282 sec (=   1.888 min)  99.4 %
                             ****ORCA TERMINATED NORMALLY****
TOTAL RUN TIME: 0 days 0 hours 1 minutes 54 seconds 546 msec
