
                                 *****************
                                 * O   R   C   A *
                                 *****************

                                            #,                                       
                                            ###                                      
                                            ####                                     
                                            #####                                    
                                            ######                                   
                                           ########,                                 
                                     ,,################,,,,,                         
                               ,,#################################,,                 
                          ,,##########################################,,             
                       ,#########################################, ''#####,          
                    ,#############################################,,   '####,        
                  ,##################################################,,,,####,       
                ,###########''''           ''''###############################       
              ,#####''   ,,,,##########,,,,          '''####'''          '####       
            ,##' ,,,,###########################,,,                        '##       
           ' ,,###''''                  '''############,,,                           
         ,,##''                                '''############,,,,        ,,,,,,###''
      ,#''                                            '''#######################'''  
     '                                                          ''''####''''         
             ,#######,   #######,   ,#######,      ##                                
            ,#'     '#,  ##    ##  ,#'     '#,    #''#        ######   ,####,        
            ##       ##  ##   ,#'  ##            #'  '#       #        #'  '#        
            ##       ##  #######   ##           ,######,      #####,   #    #        
            '#,     ,#'  ##    ##  '#,     ,#' ,#      #,         ##   #,  ,#        
             '#######'   ##     ##  '#######'  #'      '#     #####' # '####'        



                  #######################################################
                  #                        -***-                        #
                  #          Department of theory and spectroscopy      #
                  #    Directorship and core code : Frank Neese         #
                  #        Max Planck Institute fuer Kohlenforschung    #
                  #                Kaiser Wilhelm Platz 1               #
                  #                 D-45470 Muelheim/Ruhr               #
                  #                      Germany                        #
                  #                                                     #
                  #                  All rights reserved                #
                  #                        -***-                        #
                  #######################################################



                         Program Version 5.0.4 -  RELEASE  -

 With contributions from (in alphabetic order):
   Daniel Aravena         : Magnetic Suceptibility
   Michael Atanasov       : Ab Initio Ligand Field Theory (pilot matlab implementation)
   Alexander A. Auer      : GIAO ZORA, VPT2 properties, NMR spectrum
   Ute Becker             : Parallelization
   Giovanni Bistoni       : ED, misc. LED, open-shell LED, HFLD
   Martin Brehm           : Molecular dynamics
   Dmytro Bykov           : SCF Hessian
   Vijay G. Chilkuri      : MRCI spin determinant printing, contributions to CSF-ICE
   Dipayan Datta          : RHF DLPNO-CCSD density
   Achintya Kumar Dutta   : EOM-CC, STEOM-CC
   Dmitry Ganyushin       : Spin-Orbit,Spin-Spin,Magnetic field MRCI
   Miquel Garcia          : C-PCM and meta-GGA Hessian, CC/C-PCM, Gaussian charge scheme
   Yang Guo               : DLPNO-NEVPT2, F12-NEVPT2, CIM, IAO-localization
   Andreas Hansen         : Spin unrestricted coupled pair/coupled cluster methods
   Benjamin Helmich-Paris : MC-RPA, TRAH-SCF, COSX integrals
   Lee Huntington         : MR-EOM, pCC
   Robert Izsak           : Overlap fitted RIJCOSX, COSX-SCS-MP3, EOM
   Marcus Kettner         : VPT2
   Christian Kollmar      : KDIIS, OOCD, Brueckner-CCSD(T), CCSD density, CASPT2, CASPT2-K
   Simone Kossmann        : Meta GGA functionals, TD-DFT gradient, OOMP2, MP2 Hessian
   Martin Krupicka        : Initial AUTO-CI
   Lucas Lang             : DCDCAS
   Marvin Lechner         : AUTO-CI (C++ implementation), FIC-MRCC
   Dagmar Lenk            : GEPOL surface, SMD
   Dimitrios Liakos       : Extrapolation schemes; Compound Job, initial MDCI parallelization
   Dimitrios Manganas     : Further ROCIS development; embedding schemes
   Dimitrios Pantazis     : SARC Basis sets
   Anastasios Papadopoulos: AUTO-CI, single reference methods and gradients
   Taras Petrenko         : DFT Hessian,TD-DFT gradient, ASA, ECA, R-Raman, ABS, FL, XAS/XES, NRVS
   Peter Pinski           : DLPNO-MP2, DLPNO-MP2 Gradient
   Christoph Reimann      : Effective Core Potentials
   Marius Retegan         : Local ZFS, SOC
   Christoph Riplinger    : Optimizer, TS searches, QM/MM, DLPNO-CCSD(T), (RO)-DLPNO pert. Triples
   Tobias Risthaus        : Range-separated hybrids, TD-DFT gradient, RPA, STAB
   Michael Roemelt        : Original ROCIS implementation
   Masaaki Saitow         : Open-shell DLPNO-CCSD energy and density
   Barbara Sandhoefer     : DKH picture change effects
   Avijit Sen             : IP-ROCIS
   Kantharuban Sivalingam : CASSCF convergence, NEVPT2, FIC-MRCI
   Bernardo de Souza      : ESD, SOC TD-DFT
   Georgi Stoychev        : AutoAux, RI-MP2 NMR, DLPNO-MP2 response
   Willem Van den Heuvel  : Paramagnetic NMR
   Boris Wezisla          : Elementary symmetry handling
   Frank Wennmohs         : Technical directorship


 We gratefully acknowledge several colleagues who have allowed us to
 interface, adapt or use parts of their codes:
   Stefan Grimme, W. Hujo, H. Kruse, P. Pracht,  : VdW corrections, initial TS optimization,
                  C. Bannwarth, S. Ehlert          DFT functionals, gCP, sTDA/sTD-DF
   Ed Valeev, F. Pavosevic, A. Kumar             : LibInt (2-el integral package), F12 methods
   Garnet Chan, S. Sharma, J. Yang, R. Olivares  : DMRG
   Ulf Ekstrom                                   : XCFun DFT Library
   Mihaly Kallay                                 : mrcc  (arbitrary order and MRCC methods)
   Jiri Pittner, Ondrej Demel                    : Mk-CCSD
   Frank Weinhold                                : gennbo (NPA and NBO analysis)
   Christopher J. Cramer and Donald G. Truhlar   : smd solvation model
   Lars Goerigk                                  : TD-DFT with DH, B97 family of functionals
   V. Asgeirsson, H. Jonsson                     : NEB implementation
   FAccTs GmbH                                   : IRC, NEB, NEB-TS, DLPNO-Multilevel, CI-OPT
                                                   MM, QMMM, 2- and 3-layer-ONIOM, Crystal-QMMM,
                                                   LR-CPCM, SF, NACMEs, symmetry and pop. for TD-DFT,
                                                   nearIR, NL-DFT gradient (VV10), updates on ESD,
                                                   ML-optimized integration grids
   S Lehtola, MJT Oliveira, MAL Marques          : LibXC Library
   Liviu Ungur et al                             : ANISO software


 Your calculation uses the libint2 library for the computation of 2-el integrals
 For citations please refer to: http://libint.valeyev.net

 Your ORCA version has been built with support for libXC version: 5.1.0
 For citations please refer to: https://tddft.org/programs/libxc/

 This ORCA versions uses:
   CBLAS   interface :  Fast vector & matrix operations
   LAPACKE interface :  Fast linear algebra routines
   Shared memory     :  Shared parallel matrices


Your calculation utilizes the atom-pairwise dispersion correction
based on tight binding partial charges (D4)
Cite in your paper:
E.Caldeweyher, C.Bannwarth, S.Grimme, J.Chem.Phys., (2017), 147, 034112.
E.Caldeweyher, S.Ehlert, A.Hansen, H.Neugebauer, S.Grimme, J.Chem.Phys., (2018), in progress.
   

================================================================================

----- Orbital basis set information -----
Your calculation utilizes the basis: def2-TZVPD
   F. Weigend and R. Ahlrichs, Phys. Chem. Chem. Phys. 7, 3297 (2005).
   D. Rappoport and F. Furche, J. Chem. Phys. 133 134105 (2010).

----- AuxJ basis set information -----
Your calculation utilizes the auxiliary basis: def2/J
   F. Weigend, Phys. Chem. Chem. Phys. 8, 1057 (2006).

================================================================================
                                        WARNINGS
                       Please study these warnings very carefully!
================================================================================


WARNING: Geometry Optimization
  ===> : Switching off AutoStart
         For restart on a previous wavefunction, please use MOREAD

INFO   : the flag for use of the SHARK integral package has been found!

================================================================================
                                       INPUT FILE
================================================================================
NAME = opt2_1.inp
|  1> !B3LYP DEF2-TZVPD OPT FREQ D4 SOSCF
|  2> 
|  3> %geom maxIter 200 end
|  4> 
|  5> * xyz 1 1
|  6>    C       -3.72465        0.78901        0.04183
|  7>    C       -4.68012       -0.25011        0.26418
|  8>    C       -4.29013       -1.57484        0.17564
|  9>    C       -2.95495       -1.91003       -0.13358
| 10>    C       -2.00606       -0.89203       -0.35528
| 11>    C       -2.37347        0.43978       -0.27168
| 12>    H       -5.71442        0.01410        0.50355
| 13>    H       -5.02287       -2.36664        0.34698
| 14>    H       -2.65602       -2.95936       -0.20143
| 15>    H       -0.97273       -1.15657       -0.59544
| 16>    H       -1.64121        1.23288       -0.44412
| 17>    N       -4.09362        2.08407        0.12686
| 18>    H       -5.04890        2.34803        0.34860
| 19>    H       -3.42626        2.83228       -0.02771
| 20>    N        6.99949        3.51936       -1.36174
| 21>    O        7.19775        4.73474       -1.82264
| 22>    O        6.26241        2.87504       -0.45200
| 23> **                         ****END OF INPUT****
================================================================================

                       *****************************
                       * Geometry Optimization Run *
                       *****************************

Geometry optimization settings:
Update method            Update   .... BFGS
Choice of coordinates    CoordSys .... Z-matrix Internals
Initial Hessian          InHess   .... Almoef's Model

Convergence Tolerances:
Energy Change            TolE     ....  5.0000e-06 Eh
Max. Gradient            TolMAXG  ....  3.0000e-04 Eh/bohr
RMS Gradient             TolRMSG  ....  1.0000e-04 Eh/bohr
Max. Displacement        TolMAXD  ....  4.0000e-03 bohr
RMS Displacement         TolRMSD  ....  2.0000e-03 bohr
Strict Convergence                ....  False
------------------------------------------------------------------------------
                        ORCA OPTIMIZATION COORDINATE SETUP
------------------------------------------------------------------------------

The optimization will be done in new redundant internal coordinates
Making redundant internal coordinates   ...  (new redundants) done
Evaluating the initial hessian          ...  (Almloef) done
Evaluating the coordinates              ...  done
Calculating the B-matrix                .... done
Calculating the G-matrix                .... done
Diagonalizing the G-matrix              .... done
The first mode is                       ....   55
The number of degrees of freedom        ....   45

    -----------------------------------------------------------------
                    Redundant Internal Coordinates


    -----------------------------------------------------------------
         Definition                    Initial Value    Approx d2E/dq
    -----------------------------------------------------------------
      1. B(C   1,C   0)                  1.4290         0.541334   
      2. B(C   2,C   1)                  1.3838         0.639242   
      3. B(C   3,C   2)                  1.4109         0.578593   
      4. B(C   4,C   3)                  1.4092         0.582228   
      5. B(C   5,C   4)                  1.3841         0.638517   
      6. B(C   5,C   0)                  1.4304         0.538694   
      7. B(H   6,C   1)                  1.0940         0.354820   
      8. B(H   7,C   2)                  1.0923         0.357014   
      9. B(H   8,C   3)                  1.0932         0.355910   
     10. B(H   9,C   4)                  1.0934         0.355687   
     11. B(H  10,C   5)                  1.0931         0.355974   
     12. B(N  11,C   0)                  1.3493         0.649899   
     13. B(H  12,N  11)                  1.0156         0.423928   
     14. B(H  13,N  11)                  1.0144         0.425714   
     15. B(N  14,H  10)                  8.9851         0.000000   
     16. B(O  15,N  14)                  1.3149         0.660506   
     17. B(O  16,H  10)                  8.0724         0.000000   
     18. B(O  16,H   9)                  8.2838         0.000000   
     19. B(O  16,C   5)                  8.9745         0.000000   
     20. B(O  16,C   4)                  9.0867         0.000000   
     21. B(O  16,N  14)                  1.3364         0.610197   
     22. A(C   1,C   0,C   5)          119.2201         0.413151   
     23. A(C   1,C   0,N  11)          120.3505         0.424433   
     24. A(C   5,C   0,N  11)          120.4294         0.424062   
     25. A(C   2,C   1,H   6)          120.7734         0.353854   
     26. A(C   0,C   1,H   6)          119.3767         0.344073   
     27. A(C   0,C   1,C   2)          119.8499         0.425953   
     28. A(C   1,C   2,C   3)          120.5412         0.431068   
     29. A(C   1,C   2,H   7)          119.6596         0.354224   
     30. A(C   3,C   2,H   7)          119.7992         0.348307   
     31. A(C   2,C   3,H   8)          120.0273         0.348125   
     32. A(C   4,C   3,H   8)          119.9682         0.348493   
     33. A(C   2,C   3,C   4)          120.0045         0.423911   
     34. A(C   3,C   4,O  16)          156.0464         0.089548   
     35. A(C   3,C   4,H   9)          119.7459         0.348456   
     36. A(C   5,C   4,O  16)           80.9835         0.089560   
     37. A(C   3,C   4,C   5)          120.4550         0.431465   
     38. A(C   5,C   4,H   9)          119.7991         0.353932   
     39. A(H   9,C   4,O  16)           40.3566         0.089424   
     40. A(C   0,C   5,H  10)          119.3552         0.343979   
     41. A(H  10,C   5,O  16)           32.3666         0.089465   
     42. A(C   4,C   5,O  16)           90.2552         0.089614   
     43. A(C   0,C   5,O  16)          147.9032         0.089591   
     44. A(C   0,C   5,C   4)          119.9292         0.425494   
     45. A(C   4,C   5,H  10)          120.7156         0.353981   
     46. A(H  12,N  11,H  13)          117.4110         0.301480   
     47. A(C   0,N  11,H  13)          121.2267         0.360555   
     48. A(C   0,N  11,H  12)          121.3622         0.360297   
     49. A(O  15,N  14,O  16)          140.1220         0.426333   
     50. A(C   4,O  16,C   5)            8.7613         0.089001   
     51. A(C   5,O  16,N  14)          132.4712         0.089598   
     52. A(C   4,O  16,N  14)          135.1521         0.089545   
     53. D(H   6,C   1,C   0,C   5)   -179.9639         0.020026   
     54. D(C   2,C   1,C   0,C   5)      0.0616         0.020026   
     55. D(H   6,C   1,C   0,N  11)      0.0376         0.020026   
     56. D(C   2,C   1,C   0,N  11)   -179.9370         0.020026   
     57. D(C   3,C   2,C   1,C   0)     -0.0354         0.028387   
     58. D(H   7,C   2,C   1,C   0)    179.9513         0.028387   
     59. D(C   3,C   2,C   1,H   6)    179.9904         0.028387   
     60. D(H   7,C   2,C   1,H   6)     -0.0229         0.028387   
     61. D(H   8,C   3,C   2,C   1)   -179.9981         0.022995   
     62. D(H   8,C   3,C   2,H   7)      0.0153         0.022995   
     63. D(C   4,C   3,C   2,H   7)   -179.9922         0.022995   
     64. D(C   4,C   3,C   2,C   1)     -0.0055         0.022995   
     65. D(H   9,C   4,C   3,C   2)   -179.9498         0.025300   
     66. D(C   5,C   4,C   3,H   8)   -179.9875         0.025300   
     67. D(O  16,C   4,C   3,H   8)    -28.8555         0.025300   
     68. D(O  16,C   4,C   3,C   2)    151.1519         0.025300   
     69. D(H   9,C   4,C   3,H   8)      0.0428         0.025300   
     70. D(C   5,C   4,C   3,C   2)      0.0200         0.025300   
     71. D(H  10,C   5,C   4,O  16)     11.5270         0.033097   
     72. D(H  10,C   5,C   4,H   9)      0.0495         0.033097   
     73. D(H  10,C   5,C   4,C   3)   -179.9202         0.033097   
     74. D(C   0,C   5,C   4,H   9)    179.9767         0.033097   
     75. D(C   0,C   5,C   4,C   3)      0.0070         0.033097   
     76. D(O  16,C   5,C   0,N  11)     21.8970         0.021509   
     77. D(O  16,C   5,C   0,C   1)   -158.1015         0.021509   
     78. D(C   0,C   5,C   4,O  16)   -168.5458         0.033097   
     79. D(H  10,C   5,C   0,C   1)    179.8808         0.021509   
     80. D(C   4,C   5,C   0,N  11)    179.9511         0.021509   
     81. D(H  10,C   5,C   0,N  11)     -0.1207         0.021509   
     82. D(O  16,C   5,C   4,C   3)    168.5528         0.033097   
     83. D(C   4,C   5,C   0,C   1)     -0.0474         0.021509   
     84. D(O  16,C   5,C   4,H   9)    -11.4775         0.033097   
     85. D(H  13,N  11,C   0,C   5)     -0.0464         0.034468   
     86. D(H  13,N  11,C   0,C   1)    179.9521         0.034468   
     87. D(H  12,N  11,C   0,C   5)   -179.9937         0.034468   
     88. D(H  12,N  11,C   0,C   1)      0.0048         0.034468   
     89. D(C   5,O  16,N  14,O  15)     75.9000         0.041371   
     90. D(C   4,O  16,C   5,H  10)   -161.2818         0.001500   
     91. D(C   4,O  16,C   5,C   0)    161.1014         0.001500   
     92. D(N  14,O  16,C   5,H  10)    -49.5273         0.001500   
     93. D(N  14,O  16,C   5,C   4)    111.7545         0.001500   
     94. D(N  14,O  16,C   5,C   0)    -87.1441         0.001500   
     95. D(C   5,O  16,C   4,H   9)    164.5345         0.001500   
     96. D(C   5,O  16,C   4,C   3)   -155.0777         0.001500   
     97. D(N  14,O  16,C   4,H   9)     88.2613         0.001500   
     98. D(C   4,O  16,N  14,O  15)     87.4722         0.041371   
     99. D(N  14,O  16,C   4,C   5)    -76.2732         0.001500   
    100. D(N  14,O  16,C   4,C   3)    128.6491         0.001500   
    -----------------------------------------------------------------

Number of atoms                         .... 17
Number of degrees of freedom            .... 100

         *************************************************************
         *                GEOMETRY OPTIMIZATION CYCLE   1            *
         *************************************************************
---------------------------------
CARTESIAN COORDINATES (ANGSTROEM)
---------------------------------
  C     -3.724650    0.789010    0.041830
  C     -4.680120   -0.250110    0.264180
  C     -4.290130   -1.574840    0.175640
  C     -2.954950   -1.910030   -0.133580
  C     -2.006060   -0.892030   -0.355280
  C     -2.373470    0.439780   -0.271680
  H     -5.714420    0.014100    0.503550
  H     -5.022870   -2.366640    0.346980
  H     -2.656020   -2.959360   -0.201430
  H     -0.972730   -1.156570   -0.595440
  H     -1.641210    1.232880   -0.444120
  N     -4.093620    2.084070    0.126860
  H     -5.048900    2.348030    0.348600
  H     -3.426260    2.832280   -0.027710
  N      6.999490    3.519360   -1.361740
  O      7.197750    4.734740   -1.822640
  O      6.262410    2.875040   -0.452000

----------------------------
CARTESIAN COORDINATES (A.U.)
----------------------------
  NO LB      ZA    FRAG     MASS         X           Y           Z
   0 C     6.0000    0    12.011   -7.038568    1.491013    0.079047
   1 C     6.0000    0    12.011   -8.844145   -0.472639    0.499228
   2 C     6.0000    0    12.011   -8.107171   -2.976016    0.331911
   3 C     6.0000    0    12.011   -5.584046   -3.609434   -0.252430
   4 C     6.0000    0    12.011   -3.790904   -1.685692   -0.671382
   5 C     6.0000    0    12.011   -4.485208    0.831064   -0.513401
   6 H     1.0000    0     1.008  -10.798689    0.026645    0.951572
   7 H     1.0000    0     1.008   -9.491849   -4.472301    0.655697
   8 H     1.0000    0     1.008   -5.019150   -5.592380   -0.380648
   9 H     1.0000    0     1.008   -1.838193   -2.185601   -1.125219
  10 H     1.0000    0     1.008   -3.101437    2.329806   -0.839265
  11 N     7.0000    0    14.007   -7.735821    3.938322    0.239731
  12 H     1.0000    0     1.008   -9.541038    4.437134    0.658759
  13 H     1.0000    0     1.008   -6.474693    5.352234   -0.052364
  14 N     7.0000    0    14.007   13.227119    6.650627   -2.573316
  15 O     8.0000    0    15.999   13.601776    8.947362   -3.444290
  16 O     8.0000    0    15.999   11.834240    5.433038   -0.854156

--------------------------------
INTERNAL COORDINATES (ANGSTROEM)
--------------------------------
 C      0   0   0     0.000000000000     0.00000000     0.00000000
 C      1   0   0     1.429032126231     0.00000000     0.00000000
 C      2   1   0     1.383777837877   119.84993703     0.00000000
 C      3   2   1     1.410912816903   120.54117512   359.96458534
 C      4   3   2     1.409207976879   120.00448576     0.00000000
 C      5   4   3     1.384087043578   120.45501493     0.00000000
 H      2   1   3     1.094020754374   119.37670786   179.97452623
 H      3   2   1     1.092342685790   119.65960796   179.95127516
 H      4   3   2     1.093186267889   120.02726719   180.00192700
 H      5   4   3     1.093356815546   119.74589549   180.05024929
 H      6   5   4     1.093136712036   120.71556125   180.07981439
 N      1   2   3     1.349277349324   120.35047601   180.06304689
 H     12   1   2     1.015580320605   121.36223895     0.00000000
 H     12   1   2     1.014435536937   121.22672061   179.95212148
 N     11   6   5     8.985082845739   147.66490009   347.05918183
 O     15  11   6     1.314870481074   114.58370804   167.80906315
 O     15  11   6     1.336436327103    43.73090060   305.76094065

---------------------------
INTERNAL COORDINATES (A.U.)
---------------------------
 C      0   0   0     0.000000000000     0.00000000     0.00000000
 C      1   0   0     2.700479355152     0.00000000     0.00000000
 C      2   1   0     2.614961143778   119.84993703     0.00000000
 C      3   2   1     2.666238822785   120.54117512   359.96458534
 C      4   3   2     2.663017142039   120.00448576     0.00000000
 C      5   4   3     2.615545457871   120.45501493     0.00000000
 H      2   1   3     2.067399610592   119.37670786   179.97452623
 H      3   2   1     2.064228520536   119.65960796   179.95127516
 H      4   3   2     2.065822659673   120.02726719   180.00192700
 H      5   4   3     2.066144948037   119.74589549   180.05024929
 H      6   5   4     2.065729012682   120.71556125   180.07981439
 N      1   2   3     2.549764668926   120.35047601   180.06304689
 H     12   1   2     1.919168672943   121.36223895     0.00000000
 H     12   1   2     1.917005345328   121.22672061   179.95212148
 N     11   6   5    16.979345869041   147.66490009   347.05918183
 O     15  11   6     2.484745110807   114.58370804   167.80906315
 O     15  11   6     2.525498653648    43.73090060   305.76094065

---------------------
BASIS SET INFORMATION
---------------------
There are 4 groups of distinct atoms

 Group   1 Type C   : 12s6p3d1f contracted to 6s3p3d1f pattern {621111/411/111/1}
 Group   2 Type H   : 5s2p contracted to 3s2p pattern {311/11}
 Group   3 Type N   : 12s6p3d1f contracted to 6s3p3d1f pattern {621111/411/111/1}
 Group   4 Type O   : 12s7p3d1f contracted to 6s4p3d1f pattern {621111/4111/111/1}

Atom   0C    basis set group =>   1
Atom   1C    basis set group =>   1
Atom   2C    basis set group =>   1
Atom   3C    basis set group =>   1
Atom   4C    basis set group =>   1
Atom   5C    basis set group =>   1
Atom   6H    basis set group =>   2
Atom   7H    basis set group =>   2
Atom   8H    basis set group =>   2
Atom   9H    basis set group =>   2
Atom  10H    basis set group =>   2
Atom  11N    basis set group =>   3
Atom  12H    basis set group =>   2
Atom  13H    basis set group =>   2
Atom  14N    basis set group =>   3
Atom  15O    basis set group =>   4
Atom  16O    basis set group =>   4
---------------------------------
AUXILIARY/J BASIS SET INFORMATION
---------------------------------
There are 4 groups of distinct atoms

 Group   1 Type C   : 12s5p4d2f1g contracted to 6s4p3d1f1g pattern {711111/2111/211/2/1}
 Group   2 Type H   : 5s2p1d contracted to 3s1p1d pattern {311/2/1}
 Group   3 Type N   : 12s5p4d2f1g contracted to 6s4p3d1f1g pattern {711111/2111/211/2/1}
 Group   4 Type O   : 12s5p4d2f1g contracted to 6s4p3d1f1g pattern {711111/2111/211/2/1}

Atom   0C    basis set group =>   1
Atom   1C    basis set group =>   1
Atom   2C    basis set group =>   1
Atom   3C    basis set group =>   1
Atom   4C    basis set group =>   1
Atom   5C    basis set group =>   1
Atom   6H    basis set group =>   2
Atom   7H    basis set group =>   2
Atom   8H    basis set group =>   2
Atom   9H    basis set group =>   2
Atom  10H    basis set group =>   2
Atom  11N    basis set group =>   3
Atom  12H    basis set group =>   2
Atom  13H    basis set group =>   2
Atom  14N    basis set group =>   3
Atom  15O    basis set group =>   4
Atom  16O    basis set group =>   4
------------------------------------------------------------------------------
                           ORCA GTO INTEGRAL CALCULATION
                           -- RI-GTO INTEGRALS CHOSEN --
------------------------------------------------------------------------------
------------------------------------------------------------------------------
                   ___                                                        
                  /   \      - P O W E R E D   B Y -                         
                 /     \                                                     
                 |  |  |   _    _      __       _____    __    __             
                 |  |  |  | |  | |    /  \     |  _  \  |  |  /  |          
                  \  \/   | |  | |   /    \    | | | |  |  | /  /          
                 / \  \   | |__| |  /  /\  \   | |_| |  |  |/  /          
                |  |  |   |  __  | /  /__\  \  |    /   |      \           
                |  |  |   | |  | | |   __   |  |    \   |  |\   \          
                \     /   | |  | | |  |  |  |  | |\  \  |  | \   \       
                 \___/    |_|  |_| |__|  |__|  |_| \__\ |__|  \__/        
                                                                              
                      - O R C A' S   B I G   F R I E N D -                    
                                      &                                       
                       - I N T E G R A L  F E E D E R -                       
                                                                              
 v1 FN, 2020, v2 2021                                                         
------------------------------------------------------------------------------


Reading SHARK input file opt2_1.SHARKINP.tmp ... ok
----------------------
SHARK INTEGRAL PACKAGE
----------------------

Number of atoms                             ...     17
Number of basis functions                   ...    439
Number of shells                            ...    167
Maximum angular momentum                    ...      3
Integral batch strategy                     ... SHARK/LIBINT Hybrid
RI-J (if used) integral strategy            ... SPLIT-RIJ (Revised 2003 algorithm where possible)
Printlevel                                  ...      1
Contraction scheme used                     ... SEGMENTED contraction
Coulomb Range Separation                    ... NOT USED
Exchange Range Separation                   ... NOT USED
Finite Nucleus Model                        ... NOT USED
Auxiliary Coulomb fitting basis             ... AVAILABLE
   # of basis functions in Aux-J            ...    567
   # of shells in Aux-J                     ...    185
   Maximum angular momentum in Aux-J        ...      4
Auxiliary J/K fitting basis                 ... NOT available
Auxiliary Correlation fitting basis         ... NOT available
Auxiliary 'external' fitting basis          ... NOT available
Integral threshold                          ...     2.500000e-11
Primitive cut-off                           ...     2.500000e-12
Primitive pair pre-selection threshold      ...     2.500000e-12

Calculating pre-screening integrals         ... done (  0.6 sec) Dimension = 167
Organizing shell pair data                  ... done (  0.7 sec)
Shell pair information
Total number of shell pairs                 ...     14028
Shell pairs after pre-screening             ...      9521
Total number of primitive shell pairs       ...     37097
Primitive shell pairs kept                  ...     19563
          la=0 lb=0:   2233 shell pairs
          la=1 lb=0:   2622 shell pairs
          la=1 lb=1:    790 shell pairs
          la=2 lb=0:   1616 shell pairs
          la=2 lb=1:    941 shell pairs
          la=2 lb=2:    304 shell pairs
          la=3 lb=0:    509 shell pairs
          la=3 lb=1:    294 shell pairs
          la=3 lb=2:    178 shell pairs
          la=3 lb=3:     34 shell pairs

Calculating one electron integrals          ... done (  0.3 sec)
Calculating RI/J V-Matrix + Cholesky decomp.... done (  0.1 sec)
Calculating Nuclear repulsion               ... done (  0.0 sec) ENN=    384.077893398684 Eh

SHARK setup successfully completed in   2.5 seconds

Maximum memory used throughout the entire GTOINT-calculation: 131.9 MB
-------------------------------------------------------------------------------
                                 ORCA SCF
-------------------------------------------------------------------------------

------------
SCF SETTINGS
------------
Hamiltonian:
 Density Functional     Method          .... DFT(GTOs)
 Exchange Functional    Exchange        .... B88
   X-Alpha parameter    XAlpha          ....  0.666667
   Becke's b parameter  XBeta           ....  0.004200
 Correlation Functional Correlation     .... LYP
 LDA part of GGA corr.  LDAOpt          .... VWN-5
 Gradients option       PostSCFGGA      .... off
 Hybrid DFT is turned on
   Fraction HF Exchange ScalHFX         ....  0.200000
   Scaling of DF-GGA-X  ScalDFX         ....  0.720000
   Scaling of DF-GGA-C  ScalDFC         ....  0.810000
   Scaling of DF-LDA-C  ScalLDAC        ....  1.000000
   Perturbative correction              ....  0.000000
   Density functional embedding theory  .... OFF
   NL short-range parameter             ....  4.800000
 RI-approximation to the Coulomb term is turned on
   Number of AuxJ basis functions       .... 567
   RIJ-COSX (HFX calculated with COS-X)).... on


General Settings:
 Integral files         IntName         .... opt2_1
 Hartree-Fock type      HFTyp           .... RHF
 Total Charge           Charge          ....    1
 Multiplicity           Mult            ....    1
 Number of Electrons    NEL             ....   72
 Basis Dimension        Dim             ....  439
 Nuclear Repulsion      ENuc            ....    384.0778933987 Eh

Convergence Acceleration:
 DIIS                   CNVDIIS         .... on
   Start iteration      DIISMaxIt       ....    12
   Startup error        DIISStart       ....  0.200000
   # of expansion vecs  DIISMaxEq       ....     5
   Bias factor          DIISBfac        ....   1.050
   Max. coefficient     DIISMaxC        ....  10.000
 Trust-Rad. Augm. Hess. CNVTRAH         .... auto
   Auto Start mean grad. ratio tolernc. ....  1.125000
   Auto Start start iteration           ....    20
   Auto Start num. interpolation iter.  ....    10
   Max. Number of Micro iterations      ....    16
   Max. Number of Macro iterations      .... Maxiter - #DIIS iter
   Number of Davidson start vectors     ....     2
   Converg. threshold I  (grad. norm)   ....   1.000e-05
   Converg. threshold II (energy diff.) ....   1.000e-08
   Grad. Scal. Fac. for Micro threshold ....   0.100
   Minimum threshold for Micro iter.    ....   0.010
   NR start threshold (gradient norm)   ....   0.001
   Initial trust radius                 ....   0.400
   Minimum AH scaling param. (alpha)    ....   1.000
   Maximum AH scaling param. (alpha)    .... 1000.000
   Orbital update algorithm             .... Taylor
   White noise on init. David. guess    .... on
   Maximum white noise                  ....   0.010
   Quad. conv. algorithm                .... NR
 SOSCF                  CNVSOSCF        .... on
   Start iteration      SOSCFMaxIt      ....   150
   Startup grad/error   SOSCFStart      ....  0.003300
 Level Shifting         CNVShift        .... on
   Level shift para.    LevelShift      ....    0.2500
   Turn off err/grad.   ShiftErr        ....    0.0010
 Zerner damping         CNVZerner       .... off
 Static damping         CNVDamp         .... on
   Fraction old density DampFac         ....    0.7000
   Max. Damping (<1)    DampMax         ....    0.9800
   Min. Damping (>=0)   DampMin         ....    0.0000
   Turn off err/grad.   DampErr         ....    0.1000
 Fernandez-Rico         CNVRico         .... off

SCF Procedure:
 Maximum # iterations   MaxIter         ....   125
 SCF integral mode      SCFMode         .... Direct
   Integral package                     .... SHARK and LIBINT hybrid scheme
 Reset frequency        DirectResetFreq ....    20
 Integral Threshold     Thresh          ....  2.500e-11 Eh
 Primitive CutOff       TCut            ....  2.500e-12 Eh

Convergence Tolerance:
 Convergence Check Mode ConvCheckMode   .... Total+1el-Energy
 Convergence forced     ConvForced      .... 0
 Energy Change          TolE            ....  1.000e-08 Eh
 1-El. energy change                    ....  1.000e-05 Eh
 Orbital Gradient       TolG            ....  1.000e-05
 Orbital Rotation angle TolX            ....  1.000e-05
 DIIS Error             TolErr          ....  5.000e-07


Diagonalization of the overlap matrix:
Smallest eigenvalue                        ... 7.354e-07
Time for diagonalization                   ...    0.092 sec
Threshold for overlap eigenvalues          ... 1.000e-08
Number of eigenvalues below threshold      ... 0
Time for construction of square roots      ...    0.051 sec
Total time needed                          ...    0.144 sec

Time for model grid setup =    0.987 sec

------------------------------
INITIAL GUESS: MODEL POTENTIAL
------------------------------
Loading Hartree-Fock densities                     ... done
Calculating cut-offs                               ... done
Initializing the effective Hamiltonian             ... done
Setting up the integral package (SHARK)            ... done
Starting the Coulomb interaction                   ... done (   1.8 sec)
Reading the grid                                   ... done
Mapping shells                                     ... done
Starting the XC term evaluation                    ... done (   2.2 sec)
  promolecular density results
     # of electrons  =     72.997291387
     EX              =    -62.288547526
     EC              =     -2.482341190
     EX+EC           =    -64.770888716
Transforming the Hamiltonian                       ... done (   0.0 sec)
Diagonalizing the Hamiltonian                      ... done (   0.1 sec)
Back transforming the eigenvectors                 ... done (   0.0 sec)
Now organizing SCF variables                       ... done
                      ------------------
                      INITIAL GUESS DONE (   5.1 sec)
                      ------------------
-------------------
DFT GRID GENERATION
-------------------

General Integration Accuracy     IntAcc      ... 4.388
Radial Grid Type                 RadialGrid  ... OptM3 with GC (2021)
Angular Grid (max. ang.)         AngularGrid ... 4 (Lebedev-302)
Angular grid pruning method      GridPruning ... 4 (adaptive)
Weight generation scheme         WeightScheme... Becke
Basis function cutoff            BFCut       ... 1.0000e-11
Integration weight cutoff        WCut        ... 1.0000e-14
Angular grids for H and He will be reduced by one unit
Partially contracted basis set               ... off
Rotationally invariant grid construction     ... off

Total number of grid points                  ...    87374
Total number of batches                      ...     1371
Average number of points per batch           ...       63
Average number of grid points per atom       ...     5140
Time for grid setup =    4.454 sec

--------------------
COSX GRID GENERATION
--------------------

GRIDX 1
-------
General Integration Accuracy     IntAcc      ... 3.816
Radial Grid Type                 RadialGrid  ... OptM3 with GC (2021)
Angular Grid (max. ang.)         AngularGrid ... 1 (Lebedev-50)
Angular grid pruning method      GridPruning ... 4 (adaptive)
Weight generation scheme         WeightScheme... Becke
Basis function cutoff            BFCut       ... 1.0000e-11
Integration weight cutoff        WCut        ... 1.0000e-14
Angular grids for H and He will be reduced by one unit
Partially contracted basis set               ... on
Rotationally invariant grid construction     ... off

Total number of grid points                  ...    11010
Total number of batches                      ...      181
Average number of points per batch           ...       60
Average number of grid points per atom       ...      648
UseSFitting                                  ... on

GRIDX 2
-------
General Integration Accuracy     IntAcc      ... 4.020
Radial Grid Type                 RadialGrid  ... OptM3 with GC (2021)
Angular Grid (max. ang.)         AngularGrid ... 2 (Lebedev-110)
Angular grid pruning method      GridPruning ... 4 (adaptive)
Weight generation scheme         WeightScheme... Becke
Basis function cutoff            BFCut       ... 1.0000e-11
Integration weight cutoff        WCut        ... 1.0000e-14
Angular grids for H and He will be reduced by one unit
Partially contracted basis set               ... on
Rotationally invariant grid construction     ... off

Total number of grid points                  ...    27682
Total number of batches                      ...      443
Average number of points per batch           ...       62
Average number of grid points per atom       ...     1628
UseSFitting                                  ... on

GRIDX 3
-------
General Integration Accuracy     IntAcc      ... 4.338
Radial Grid Type                 RadialGrid  ... OptM3 with GC (2021)
Angular Grid (max. ang.)         AngularGrid ... 3 (Lebedev-194)
Angular grid pruning method      GridPruning ... 4 (adaptive)
Weight generation scheme         WeightScheme... Becke
Basis function cutoff            BFCut       ... 1.0000e-11
Integration weight cutoff        WCut        ... 1.0000e-14
Angular grids for H and He will be reduced by one unit
Partially contracted basis set               ... on
Rotationally invariant grid construction     ... off

Total number of grid points                  ...    61260
Total number of batches                      ...      964
Average number of points per batch           ...       63
Average number of grid points per atom       ...     3604
UseSFitting                                  ... on

Time for X-Grid setup             =    7.232 sec

--------------
SCF ITERATIONS
--------------
ITER       Energy         Delta-E        Max-DP      RMS-DP      [F,P]     Damp
               ***  Starting incremental Fock matrix formation  ***
  0   -491.7114829465   0.000000000000 0.15228480  0.00217522  0.2546927 0.7000
  1   -491.9544085523  -0.242925605795 0.06634608  0.00113013  0.1022454 0.7000
                               ***Turning on DIIS***
  2   -491.9567555975  -0.002347045201 0.18787781  0.00270591  0.0798431 0.0000
  3   -491.8892984019   0.067457195592 0.00889014  0.00013049  0.1995034 0.7000
  4   -491.9245565002  -0.035258098287 0.00758598  0.00013041  0.1812660 0.7000
  5   -491.9568504924  -0.032293992166 0.00638298  0.00012861  0.1629166 0.7000
  6   -491.9847367418  -0.027886249446 0.00518065  0.00012438  0.1462447 0.7000
  7   -492.0079097460  -0.023173004163 0.08545971  0.00132513  0.1321247 0.7000
  8   -492.0905824167  -0.082672670718 0.16941668  0.00303724  0.0392643 0.0000
  9   -488.8230150938   3.267567322896 0.00642838  0.00010897  0.3939935 0.7000
 10   -488.8498376832  -0.026822589425 0.00687223  0.00012074  0.3894895 0.7000
 11   -488.8772292419  -0.027391558727 0.00656019  0.00014452  0.3849820 0.7000
 12   -488.9213316693  -0.044102427372 0.01543505  0.00039250  0.3800248 0.7000
 13   -489.2492582620  -0.327926592702 6.56070050  0.03605914  0.3565501 0.7000
 14   -485.4364911499   3.812767112143 1.96614517  0.01089776  0.3075658 0.7000
 15   -486.5403831141  -1.103891964188 1.36516351  0.00760916  0.2722091 0.7000
 16   -488.4314273197  -1.891044205654 0.95237268  0.00531331  0.2131424 0.7000
 17   -489.6309365819  -1.199509262203 0.66686826  0.00372265  0.2115231 0.7000
 18   -490.4375527432  -0.806616161288 0.47823511  0.00284918  0.1874951 0.7000
 19   -491.3981737528  -0.960621009558 1.11166630  0.00661235  0.0470133 0.0000
               *** Restarting incremental Fock matrix formation ***
                                   *** Resetting DIIS ***

 WARNING: the maximum gradient error descreased on average only by a factor   1.1
          during the last 20 iterations

                      *** Initiating the TRAH-SCF procedure ***


TRAH GRIDX
----------

General Integration Accuracy     IntAcc      ... 3.067
Radial Grid Type                 RadialGrid  ... OptM3 with GC (2021)
Angular Grid (max. ang.)         AngularGrid ... 1 (Lebedev-50)
Angular grid pruning method      GridPruning ... 4 (adaptive)
Weight generation scheme         WeightScheme... Becke
Basis function cutoff            BFCut       ... 1.0000e-11
Integration weight cutoff        WCut        ... 1.0000e-14
Angular grids for H and He will be reduced by one unit
Partially contracted basis set               ... on
Rotationally invariant grid construction     ... off

Total number of grid points                  ...     5830
Total number of batches                      ...      101
Average number of points per batch           ...       57
Average number of grid points per atom       ...      343


TRAH GRID
---------

General Integration Accuracy     IntAcc      ... 3.467
Radial Grid Type                 RadialGrid  ... OptM3 with GC (2021)
Angular Grid (max. ang.)         AngularGrid ... 1 (Lebedev-50)
Angular grid pruning method      GridPruning ... 4 (adaptive)
Weight generation scheme         WeightScheme... Becke
Basis function cutoff            BFCut       ... 1.0000e-11
Integration weight cutoff        WCut        ... 1.0000e-14
Angular grids for H and He will be reduced by one unit
Partially contracted basis set               ... off
Rotationally invariant grid construction     ... off

Total number of grid points                  ...    12929
Total number of batches                      ...      210
Average number of points per batch           ...       61
Average number of grid points per atom       ...      761

 --------------------------------------------------------------------------------------------
   Iter.        energy            ||Error||_2        Shift      TRadius  Mac/Mic        Rej.
 --------------------------------------------------------------------------------------------
WARNING: 1403 diagonal Hessian elements are negative!
    0       -488.667427953057     3.941286e+00                     0.400 (TRAH MAcro)   No
WARNING : negative HOMO - LUMO gap : -2.230299
    0     dE    -7.667534e-01     5.598139e+00    -1.3506e+00      0.368 (TRAH MIcro)
    0     dE    -1.268334e+00     1.270704e+00    -9.6817e+00      0.400 (TRAH MIcro)
    0     dE    -1.289502e+00     9.602681e-01    -1.0152e+01      0.400 (TRAH MIcro)
    0     dE    -1.293183e+00     4.825701e-01    -1.0151e+01      0.400 (TRAH MIcro)
    0     dE    -1.295547e+00     6.585525e-02    -1.0126e+01      0.400 (TRAH MIcro)
    0     dE    -1.295697e+00     3.211548e-02    -1.0123e+01      0.400 (TRAH MIcro)
    0     dE    -1.295729e+00     2.016920e-02    -1.0124e+01      0.400 (TRAH MIcro)
    0     dE    -1.295741e+00     1.124720e-02    -1.0125e+01      0.400 (TRAH MIcro)
    0     dE    -1.295743e+00     5.612703e-03    -1.0126e+01      0.400 (TRAH MIcro)
WARNING: 1062 diagonal Hessian elements are negative!
    1       -489.839427399846     3.083190e+00                     0.480 (TRAH MAcro)   No
WARNING : negative HOMO - LUMO gap : -1.571540
    1     dE    -1.261947e+00     3.128248e+00    -4.5311e+00      0.480 (TRAH MIcro)
    1     dE    -1.326771e+00     4.239813e-01    -9.6178e+00      0.401 (TRAH MIcro)
    1     dE    -1.330181e+00     3.085538e-01    -9.6397e+00      0.401 (TRAH MIcro)
    1     dE    -1.330475e+00     8.526605e-02    -9.6561e+00      0.401 (TRAH MIcro)
    1     dE    -1.330167e+00     4.054123e-02    -9.6582e+00      0.401 (TRAH MIcro)
    1     dE    -1.329952e+00     2.923224e-02    -9.6585e+00      0.401 (TRAH MIcro)
    1     dE    -1.329730e+00     1.128212e-02    -9.6586e+00      0.401 (TRAH MIcro)
    1     dE    -1.329645e+00     3.388754e-03    -9.6586e+00      0.401 (TRAH MIcro)
WARNING: 488 diagonal Hessian elements are negative!
    2       -490.979988988525     2.513000e+00                     0.576 (TRAH MAcro)   No
WARNING : negative HOMO - LUMO gap : -1.048902
    2     dE    -8.455141e-01     1.593294e+00    -1.3237e+00      0.527 (TRAH MIcro)
    2     dE    -1.056334e+00     3.536259e-01    -2.3854e+00      0.576 (TRAH MIcro)
    2     dE    -1.059998e+00     1.202294e-01    -2.4105e+00      0.576 (TRAH MIcro)
    2     dE    -1.061943e+00     2.933225e-01    -2.4955e+00      0.576 (TRAH MIcro)
    2     dE    -6.111067e-01     2.178274e-01    -6.1445e+00      0.290 (TRAH MIcro)
    2     dE    -6.121336e-01     1.180504e-01    -6.1555e+00      0.290 (TRAH MIcro)
    2     dE    -6.124292e-01     4.125594e-02    -6.1599e+00      0.290 (TRAH MIcro)
    2     dE    -6.124398e-01     2.005077e-02    -6.1602e+00      0.290 (TRAH MIcro)
    2     dE    -6.123976e-01     5.044766e-03    -6.1604e+00      0.290 (TRAH MIcro)
WARNING: 187 diagonal Hessian elements are negative!
    3       -491.565219389654     1.540617e+00                     0.691 (TRAH MAcro)   No
WARNING : negative HOMO - LUMO gap : -0.721863
    3     dE    -3.252989e-01     6.443449e-01    -5.7182e-01      0.371 (TRAH MIcro)
    3     dE    -3.793353e-01     3.292782e-01    -6.3704e-01      0.437 (TRAH MIcro)
    3     dE    -3.879240e-01     1.423504e-01    -6.4566e-01      0.449 (TRAH MIcro)
    3     dE    -3.921376e-01     1.312439e-01    -6.4799e-01      0.459 (TRAH MIcro)
    3     dE    -2.796128e-01     8.508295e-02    -3.2028e+00      0.245 (TRAH MIcro)
    3     dE    -2.799694e-01     1.132293e-02    -3.2072e+00      0.244 (TRAH MIcro)
    3     dE    -2.799868e-01     3.841590e-03    -3.2073e+00      0.244 (TRAH MIcro)
WARNING: 83 diagonal Hessian elements are negative!
    4       -491.844749880390     7.923797e-01                     0.829 (TRAH MAcro)   No
WARNING : negative HOMO - LUMO gap : -0.552299
    4     dE    -1.031619e-01     4.196331e-01    -1.9459e-01      0.246 (TRAH MIcro)
    4     dE    -1.106894e-01     2.138046e-01    -2.0660e-01      0.267 (TRAH MIcro)
    4     dE    -1.159753e-01     4.072344e-01    -2.1335e-01      0.295 (TRAH MIcro)
    4     dE    -8.385119e-02     1.040632e-01    -2.6966e+00      0.143 (TRAH MIcro)
    4     dE    -8.407912e-02     9.638311e-03    -2.7000e+00      0.144 (TRAH MIcro)
WARNING: 61 diagonal Hessian elements are negative!
    5       -491.929361596776     4.012036e-01                     0.995 (TRAH MAcro)   No
WARNING : negative HOMO - LUMO gap : -0.497683
    5     dE    -2.996886e-02     2.447616e-01    -5.8680e-02      0.146 (TRAH MIcro)
    5     dE    -2.456105e-01     3.435488e+00    -4.7833e-01      0.878 (TRAH MIcro)
    5     dE    -9.758575e-01     1.102047e+00    -1.8933e+00      0.995 (TRAH MIcro)
    5     dE    -1.049761e+00     2.718155e-01    -2.0492e+00      0.995 (TRAH MIcro)
    5     dE    -1.054382e+00     7.569397e-02    -2.0589e+00      0.995 (TRAH MIcro)
    5     dE    -1.055161e+00     6.182751e-02    -2.0607e+00      0.995 (TRAH MIcro)
    5     dE    -1.055451e+00     2.434808e-02    -2.0615e+00      0.995 (TRAH MIcro)
    5     dE    -1.055491e+00     7.725947e-03    -2.0616e+00      0.995 (TRAH MIcro)
WARNING: 12 diagonal Hessian elements are negative!
    6       -492.088247278963     1.576167e+00                     0.697 (TRAH MAcro)   No
WARNING : negative HOMO - LUMO gap : -0.156649
    6     dE    -1.144673e-01     1.834383e+00    -2.2439e-01      0.142 (TRAH MIcro)
    6     dE    -1.716232e-01     2.717944e-01    -3.2241e-01      0.254 (TRAH MIcro)
    6     dE    -1.773219e-01     1.323401e-01    -3.3058e-01      0.270 (TRAH MIcro)
    6     dE    -1.885635e-01     2.967923e-01    -3.4003e-01      0.330 (TRAH MIcro)
    6     dE    -2.977421e-01     5.665840e-01    -5.0088e-01      0.697 (TRAH MIcro)
    6     dE    -2.247375e-01     2.053255e-01    -7.0633e-01      0.430 (TRAH MIcro)
    6     dE    -2.449730e-01     5.959540e-02    -7.1179e-01      0.486 (TRAH MIcro)
    6     dE    -2.473326e-01     2.719755e-02    -7.1260e-01      0.492 (TRAH MIcro)
    6     dE    -2.487770e-01     2.601116e-02    -7.1307e-01      0.496 (TRAH MIcro)
    6     dE    -2.503578e-01     1.345038e-02    -7.1320e-01      0.500 (TRAH MIcro)
    6     dE    -2.516730e-01     9.452586e-03    -7.1324e-01      0.504 (TRAH MIcro)
    7       -492.170227018267     8.010046e-01                     0.697 (TRAH MAcro)   No
WARNING : small    HOMO - LUMO gap : 0.010600
    7     dE    -3.936338e-02     9.802712e-01    -7.7979e-02      0.098 (TRAH MIcro)
    7     dE    -5.244721e-02     4.274041e-01    -1.0211e-01      0.165 (TRAH MIcro)
    7     dE    -6.440571e-02     1.688317e-01    -1.2403e-01      0.196 (TRAH MIcro)
    7     dE    -6.671539e-02     8.022691e-02    -1.2813e-01      0.203 (TRAH MIcro)
    7     dE    -6.699325e-02     4.789055e-02    -1.2854e-01      0.206 (TRAH MIcro)
    7     dE    -6.704808e-02     2.686442e-02    -1.2863e-01      0.206 (TRAH MIcro)
    7     dE    -6.707465e-02     6.482268e-03    -1.2867e-01      0.206 (TRAH MIcro)
    8       -492.244034828329     1.670330e-01                     0.836 (TRAH MAcro)   No
WARNING : small    HOMO - LUMO gap : 0.016179
    8     dE    -3.372907e-03     3.910982e-01    -6.7348e-03      0.040 (TRAH MIcro)
    8     dE    -5.642843e-03     5.666275e-01    -1.1184e-02      0.096 (TRAH MIcro)
    8     dE    -1.082283e-02     1.956532e-01    -2.1050e-02      0.168 (TRAH MIcro)
    8     dE    -1.141194e-02     6.744908e-02    -2.2130e-02      0.177 (TRAH MIcro)
    8     dE    -1.148086e-02     3.800201e-02    -2.2251e-02      0.179 (TRAH MIcro)
    8     dE    -1.152482e-02     6.046875e-03    -2.2321e-02      0.181 (TRAH MIcro)
    9       -492.255673575927     9.528803e-02                     1.003 (TRAH MAcro)   No
WARNING : small    HOMO - LUMO gap : 0.014231
    9     dE    -5.438086e-04     1.831771e-01    -1.0875e-03      0.012 (TRAH MIcro)
    9     dE    -9.805863e-04     5.366234e-02    -1.9597e-03      0.028 (TRAH MIcro)
    9     dE    -1.149476e-03     1.876558e-02    -2.2966e-03      0.032 (TRAH MIcro)
    9     dE    -1.188636e-03     1.116926e-02    -2.3744e-03      0.035 (TRAH MIcro)
    9     dE    -1.196549e-03     5.205942e-03    -2.3901e-03      0.035 (TRAH MIcro)
   10       -492.256905299629     6.677509e-03                     1.204 (TRAH MAcro)   No
WARNING : small    HOMO - LUMO gap : 0.009679
   10     dE    -2.114969e-06     1.386263e-02    -4.2299e-06      0.001 (TRAH MIcro)
   10     dE    -2.888669e-06     1.133837e-02    -5.7773e-06      0.001 (TRAH MIcro)
   10     dE    -1.147760e-05     3.969790e-03    -2.2955e-05      0.005 (TRAH MIcro)
   10     dE    -1.183858e-05     1.302575e-03    -2.3676e-05      0.006 (TRAH MIcro)
   10     dE    -1.188634e-05     4.701481e-04    -2.3772e-05      0.006 (TRAH MIcro)
   11       -492.256917237924     5.014133e-04                           (NR   MAcro)
WARNING : small    HOMO - LUMO gap : 0.009504
   11     dE    -2.147853e-09     4.679724e-04                           (NR   MIcro)
   11     dE    -1.034323e-08     2.832819e-04                           (NR   MIcro)
   11     dE    -1.284678e-08     1.431112e-04                           (NR   MIcro)
   11     dE    -1.430081e-08     6.181320e-05                           (NR   MIcro)
   11     dE    -1.464362e-08     4.303661e-05                           (NR   MIcro)
   11     dE    -1.470123e-08     1.334673e-05                           (NR   MIcro)
   11     dE    -1.470374e-08     3.435099e-06                           (NR   MIcro)
   11     dE    -1.470411e-08     9.153777e-07                           (NR   MIcro)
   12       -492.256917252540     1.154997e-06                           (NR   MAcro)
WARNING : small    HOMO - LUMO gap : 0.009497
   12     dE    -1.084046e-14     1.043923e-06                           (NR   MIcro)
   12     dE    -7.095326e-14     5.534641e-07                           (NR   MIcro)
   13       -492.256917252540     5.533393e-07                           (NR   MAcro)
WARNING : small    HOMO - LUMO gap : 0.009497

               *****************************************************
               *                     SUCCESS                       *
               *           SCF CONVERGED AFTER 124 CYCLES          *
               *****************************************************

Old exchange energy                            =    -12.457335079 Eh
New exchange energy                            =    -12.457332637 Eh
Exchange energy change after final integration =      0.000002442 Eh
Total energy after final integration           =   -492.256914810 Eh
Final COS-X integration done in                =   132.433 sec

----------------
TOTAL SCF ENERGY
----------------

Total Energy       :         -492.25691481 Eh          -13394.99164 eV

Components:
Nuclear Repulsion  :          384.07789340 Eh           10451.29081 eV
Electronic Energy  :         -876.33480821 Eh          -23846.28245 eV
One Electron Energy:        -1417.74128842 Eh          -38578.70176 eV
Two Electron Energy:          541.40648022 Eh           14732.41931 eV
Max COSX asymmetry :            0.00000086 Eh               0.00002 eV

Virial components:
Potential Energy   :         -981.49221129 Eh          -26707.76087 eV
Kinetic Energy     :          489.23529648 Eh           13312.76923 eV
Virial Ratio       :            2.00617621


DFT components:
N(Alpha)           :       35.999958759702 electrons
N(Beta)            :       35.999958759702 electrons
N(Total)           :       71.999917519405 electrons
E(X)               :      -49.822640399873 Eh       
E(C)               :       -2.898357667841 Eh       
E(XC)              :      -52.720998067714 Eh       
DFET-embed. en.    :        0.000000000000 Eh       

---------------
SCF CONVERGENCE
---------------

  Last Energy change         ...    6.2528e-13  Tolerance :   1.0000e-08
  Last Orbital Gradient      ...    5.5334e-07  Tolerance :   1.0000e-05
  Last Orbital Rotation      ...    2.1151e-07

             **** THE GBW FILE WAS UPDATED (opt2_1.gbw) ****
             **** DENSITY opt2_1.scfp WAS UPDATED ****
             **** ENERGY FILE WAS UPDATED (opt2_1.en.tmp) ****
             **** THE GBW FILE WAS UPDATED (opt2_1.gbw) ****
             **** DENSITY opt2_1.scfp WAS UPDATED ****
----------------
ORBITAL ENERGIES
----------------

  NO   OCC          E(Eh)            E(eV) 
   0   2.0000     -19.388357      -527.5840 
   1   2.0000     -19.383387      -527.4488 
   2   2.0000     -14.694808      -399.8661 
   3   2.0000     -14.532326      -395.4447 
   4   2.0000     -10.410709      -283.2898 
   5   2.0000     -10.350568      -281.6533 
   6   2.0000     -10.348771      -281.6044 
   7   2.0000     -10.347870      -281.5799 
   8   2.0000     -10.340762      -281.3864 
   9   2.0000     -10.340267      -281.3730 
  10   2.0000      -1.300292       -35.3827 
  11   2.0000      -1.189140       -32.3581 
  12   2.0000      -1.118379       -30.4326 
  13   2.0000      -1.007237       -27.4083 
  14   2.0000      -0.914070       -24.8731 
  15   2.0000      -0.896231       -24.3877 
  16   2.0000      -0.812656       -22.1135 
  17   2.0000      -0.783899       -21.3310 
  18   2.0000      -0.778442       -21.1825 
  19   2.0000      -0.701031       -19.0760 
  20   2.0000      -0.698314       -19.0021 
  21   2.0000      -0.669663       -18.2225 
  22   2.0000      -0.650566       -17.7028 
  23   2.0000      -0.627814       -17.0837 
  24   2.0000      -0.627670       -17.0798 
  25   2.0000      -0.603113       -16.4116 
  26   2.0000      -0.594517       -16.1776 
  27   2.0000      -0.585005       -15.9188 
  28   2.0000      -0.566480       -15.4147 
  29   2.0000      -0.525801       -14.3078 
  30   2.0000      -0.506337       -13.7781 
  31   2.0000      -0.491404       -13.3718 
  32   2.0000      -0.487613       -13.2686 
  33   2.0000      -0.486828       -13.2473 
  34   2.0000      -0.421253       -11.4629 
  35   2.0000      -0.361839        -9.8461 
  36   0.0000      -0.352342        -9.5877 
  37   0.0000      -0.258418        -7.0319 
  38   0.0000      -0.171731        -4.6730 
  39   0.0000      -0.163344        -4.4448 
  40   0.0000      -0.128206        -3.4887 
  41   0.0000      -0.100137        -2.7249 
  42   0.0000      -0.095305        -2.5934 
  43   0.0000      -0.091588        -2.4922 
  44   0.0000      -0.070114        -1.9079 
  45   0.0000      -0.066485        -1.8091 
  46   0.0000      -0.063637        -1.7316 
  47   0.0000      -0.038872        -1.0578 
  48   0.0000      -0.035233        -0.9587 
  49   0.0000      -0.033638        -0.9153 
  50   0.0000      -0.028304        -0.7702 
  51   0.0000      -0.020926        -0.5694 
  52   0.0000      -0.013034        -0.3547 
  53   0.0000      -0.010893        -0.2964 
  54   0.0000      -0.003703        -0.1008 
  55   0.0000       0.000919         0.0250 
  56   0.0000       0.002992         0.0814 
  57   0.0000       0.003427         0.0933 
  58   0.0000       0.015503         0.4218 
  59   0.0000       0.017351         0.4721 
  60   0.0000       0.025657         0.6982 
  61   0.0000       0.035761         0.9731 
  62   0.0000       0.036205         0.9852 
  63   0.0000       0.038094         1.0366 
  64   0.0000       0.048873         1.3299 
  65   0.0000       0.054384         1.4799 
  66   0.0000       0.060853         1.6559 
  67   0.0000       0.069455         1.8900 
  68   0.0000       0.070200         1.9102 
  69   0.0000       0.078301         2.1307 
  70   0.0000       0.085912         2.3378 
  71   0.0000       0.095216         2.5910 
  72   0.0000       0.099254         2.7009 
  73   0.0000       0.102808         2.7976 
  74   0.0000       0.109545         2.9809 
  75   0.0000       0.110405         3.0043 
  76   0.0000       0.113471         3.0877 
  77   0.0000       0.118127         3.2144 
  78   0.0000       0.133142         3.6230 
  79   0.0000       0.135496         3.6870 
  80   0.0000       0.135679         3.6920 
  81   0.0000       0.143280         3.8988 
  82   0.0000       0.145944         3.9714 
  83   0.0000       0.146360         3.9827 
  84   0.0000       0.157618         4.2890 
  85   0.0000       0.160567         4.3693 
  86   0.0000       0.165125         4.4933 
  87   0.0000       0.168382         4.5819 
  88   0.0000       0.170961         4.6521 
  89   0.0000       0.176548         4.8041 
  90   0.0000       0.177039         4.8175 
  91   0.0000       0.185072         5.0361 
  92   0.0000       0.193947         5.2776 
  93   0.0000       0.201291         5.4774 
  94   0.0000       0.207536         5.6473 
  95   0.0000       0.211234         5.7480 
  96   0.0000       0.224806         6.1173 
  97   0.0000       0.225590         6.1386 
  98   0.0000       0.232959         6.3391 
  99   0.0000       0.237999         6.4763 
 100   0.0000       0.243296         6.6204 
 101   0.0000       0.244504         6.6533 
 102   0.0000       0.244557         6.6547 
 103   0.0000       0.252803         6.8791 
 104   0.0000       0.259146         7.0517 
 105   0.0000       0.260601         7.0913 
 106   0.0000       0.267843         7.2884 
 107   0.0000       0.274094         7.4585 
 108   0.0000       0.287910         7.8344 
 109   0.0000       0.296811         8.0766 
 110   0.0000       0.298932         8.1344 
 111   0.0000       0.299897         8.1606 
 112   0.0000       0.306808         8.3487 
 113   0.0000       0.310912         8.4603 
 114   0.0000       0.312267         8.4972 
 115   0.0000       0.318044         8.6544 
 116   0.0000       0.319560         8.6957 
 117   0.0000       0.326829         8.8935 
 118   0.0000       0.332056         9.0357 
 119   0.0000       0.334486         9.1018 
 120   0.0000       0.345834         9.4106 
 121   0.0000       0.346194         9.4204 
 122   0.0000       0.354885         9.6569 
 123   0.0000       0.358819         9.7640 
 124   0.0000       0.361575         9.8390 
 125   0.0000       0.366942         9.9850 
 126   0.0000       0.369325        10.0498 
 127   0.0000       0.369885        10.0651 
 128   0.0000       0.375711        10.2236 
 129   0.0000       0.393628        10.7112 
 130   0.0000       0.394353        10.7309 
 131   0.0000       0.395981        10.7752 
 132   0.0000       0.396531        10.7901 
 133   0.0000       0.402923        10.9641 
 134   0.0000       0.415693        11.3116 
 135   0.0000       0.421320        11.4647 
 136   0.0000       0.424940        11.5632 
 137   0.0000       0.427503        11.6330 
 138   0.0000       0.440289        11.9809 
 139   0.0000       0.441508        12.0141 
 140   0.0000       0.448614        12.2074 
 141   0.0000       0.450583        12.2610 
 142   0.0000       0.454449        12.3662 
 143   0.0000       0.455411        12.3924 
 144   0.0000       0.472195        12.8491 
 145   0.0000       0.482306        13.1242 
 146   0.0000       0.492564        13.4033 
 147   0.0000       0.493913        13.4401 
 148   0.0000       0.497873        13.5478 
 149   0.0000       0.507700        13.8152 
 150   0.0000       0.512271        13.9396 
 151   0.0000       0.517222        14.0743 
 152   0.0000       0.523120        14.2348 
 153   0.0000       0.524921        14.2838 
 154   0.0000       0.529176        14.3996 
 155   0.0000       0.542758        14.7692 
 156   0.0000       0.547339        14.8939 
 157   0.0000       0.548079        14.9140 
 158   0.0000       0.554953        15.1010 
 159   0.0000       0.561818        15.2878 
 160   0.0000       0.572550        15.5799 
 161   0.0000       0.573102        15.5949 
 162   0.0000       0.592341        16.1184 
 163   0.0000       0.597468        16.2579 
 164   0.0000       0.600163        16.3313 
 165   0.0000       0.602962        16.4074 
 166   0.0000       0.606638        16.5075 
 167   0.0000       0.612615        16.6701 
 168   0.0000       0.620463        16.8837 
 169   0.0000       0.633928        17.2501 
 170   0.0000       0.639202        17.3936 
 171   0.0000       0.646900        17.6030 
 172   0.0000       0.648713        17.6524 
 173   0.0000       0.663941        18.0667 
 174   0.0000       0.674720        18.3601 
 175   0.0000       0.688212        18.7272 
 176   0.0000       0.690511        18.7898 
 177   0.0000       0.699382        19.0312 
 178   0.0000       0.758846        20.6493 
 179   0.0000       0.766202        20.8494 
 180   0.0000       0.772867        21.0308 
 181   0.0000       0.777887        21.1674 
 182   0.0000       0.782545        21.2941 
 183   0.0000       0.798789        21.7362 
 184   0.0000       0.800764        21.7899 
 185   0.0000       0.801334        21.8054 
 186   0.0000       0.818003        22.2590 
 187   0.0000       0.825460        22.4619 
 188   0.0000       0.830666        22.6036 
 189   0.0000       0.838131        22.8067 
 190   0.0000       0.843570        22.9547 
 191   0.0000       0.848559        23.0905 
 192   0.0000       0.852274        23.1916 
 193   0.0000       0.889758        24.2116 
 194   0.0000       0.910853        24.7856 
 195   0.0000       0.932027        25.3618 
 196   0.0000       0.944969        25.7139 
 197   0.0000       0.992482        27.0068 
 198   0.0000       0.993959        27.0470 
 199   0.0000       1.038780        28.2666 
 200   0.0000       1.047198        28.4957 
 201   0.0000       1.058932        28.8150 
 202   0.0000       1.069263        29.0961 
 203   0.0000       1.080915        29.4132 
 204   0.0000       1.084436        29.5090 
 205   0.0000       1.090954        29.6864 
 206   0.0000       1.097363        29.8608 
 207   0.0000       1.098041        29.8792 
 208   0.0000       1.098755        29.8986 
 209   0.0000       1.132544        30.8181 
 210   0.0000       1.173036        31.9199 
 211   0.0000       1.175050        31.9747 
 212   0.0000       1.189072        32.3563 
 213   0.0000       1.209513        32.9125 
 214   0.0000       1.213463        33.0200 
 215   0.0000       1.239129        33.7184 
 216   0.0000       1.240612        33.7588 
 217   0.0000       1.307148        35.5693 
 218   0.0000       1.323389        36.0112 
 219   0.0000       1.350645        36.7529 
 220   0.0000       1.351741        36.7827 
 221   0.0000       1.356701        36.9177 
 222   0.0000       1.383877        37.6572 
 223   0.0000       1.412135        38.4262 
 224   0.0000       1.434583        39.0370 
 225   0.0000       1.501455        40.8567 
 226   0.0000       1.514320        41.2067 
 227   0.0000       1.515646        41.2428 
 228   0.0000       1.535807        41.7914 
 229   0.0000       1.538069        41.8530 
 230   0.0000       1.547950        42.1219 
 231   0.0000       1.549989        42.1773 
 232   0.0000       1.558524        42.4096 
 233   0.0000       1.560441        42.4618 
 234   0.0000       1.576424        42.8967 
 235   0.0000       1.589802        43.2607 
 236   0.0000       1.609769        43.8040 
 237   0.0000       1.641346        44.6633 
 238   0.0000       1.651608        44.9425 
 239   0.0000       1.666493        45.3476 
 240   0.0000       1.671141        45.4740 
 241   0.0000       1.680063        45.7168 
 242   0.0000       1.705604        46.4118 
 243   0.0000       1.714608        46.6569 
 244   0.0000       1.717532        46.7364 
 245   0.0000       1.753059        47.7032 
 246   0.0000       1.759931        47.8902 
 247   0.0000       1.771886        48.2155 
 248   0.0000       1.772085        48.2209 
 249   0.0000       1.782345        48.5001 
 250   0.0000       1.792935        48.7882 
 251   0.0000       1.868177        50.8357 
 252   0.0000       1.891476        51.4697 
 253   0.0000       1.899854        51.6977 
 254   0.0000       1.913284        52.0631 
 255   0.0000       1.913484        52.0685 
 256   0.0000       1.928983        52.4903 
 257   0.0000       1.961842        53.3844 
 258   0.0000       1.990890        54.1749 
 259   0.0000       1.996311        54.3224 
 260   0.0000       2.006527        54.6004 
 261   0.0000       2.026950        55.1561 
 262   0.0000       2.030567        55.2545 
 263   0.0000       2.031832        55.2890 
 264   0.0000       2.047955        55.7277 
 265   0.0000       2.056037        55.9476 
 266   0.0000       2.085045        56.7370 
 267   0.0000       2.091746        56.9193 
 268   0.0000       2.104033        57.2537 
 269   0.0000       2.144270        58.3485 
 270   0.0000       2.167765        58.9879 
 271   0.0000       2.209099        60.1126 
 272   0.0000       2.218766        60.3757 
 273   0.0000       2.228161        60.6313 
 274   0.0000       2.266612        61.6777 
 275   0.0000       2.282025        62.0971 
 276   0.0000       2.334746        63.5317 
 277   0.0000       2.349715        63.9390 
 278   0.0000       2.358282        64.1721 
 279   0.0000       2.379882        64.7599 
 280   0.0000       2.437293        66.3221 
 281   0.0000       2.446601        66.5754 
 282   0.0000       2.471394        67.2501 
 283   0.0000       2.473298        67.3019 
 284   0.0000       2.475868        67.3718 
 285   0.0000       2.521710        68.6192 
 286   0.0000       2.523646        68.6719 
 287   0.0000       2.567595        69.8678 
 288   0.0000       2.599896        70.7468 
 289   0.0000       2.604709        70.8777 
 290   0.0000       2.617206        71.2178 
 291   0.0000       2.624118        71.4059 
 292   0.0000       2.630254        71.5728 
 293   0.0000       2.633642        71.6650 
 294   0.0000       2.667781        72.5940 
 295   0.0000       2.682982        73.0077 
 296   0.0000       2.687418        73.1284 
 297   0.0000       2.706517        73.6481 
 298   0.0000       2.711795        73.7917 
 299   0.0000       2.734382        74.4063 
 300   0.0000       2.741847        74.6094 
 301   0.0000       2.754429        74.9518 
 302   0.0000       2.775756        75.5322 
 303   0.0000       2.797859        76.1336 
 304   0.0000       2.799607        76.1812 
 305   0.0000       2.813917        76.5706 
 306   0.0000       2.814206        76.5784 
 307   0.0000       2.848620        77.5149 
 308   0.0000       2.900572        78.9286 
 309   0.0000       2.916322        79.3572 
 310   0.0000       2.947812        80.2141 
 311   0.0000       2.953258        80.3622 
 312   0.0000       2.970747        80.8381 
 313   0.0000       2.975139        80.9576 
 314   0.0000       2.975766        80.9747 
 315   0.0000       3.004142        81.7468 
 316   0.0000       3.012832        81.9833 
 317   0.0000       3.081982        83.8650 
 318   0.0000       3.096330        84.2554 
 319   0.0000       3.097687        84.2924 
 320   0.0000       3.105193        84.4966 
 321   0.0000       3.144940        85.5782 
 322   0.0000       3.147532        85.6487 
 323   0.0000       3.153649        85.8151 
 324   0.0000       3.179861        86.5284 
 325   0.0000       3.186449        86.7077 
 326   0.0000       3.193101        86.8887 
 327   0.0000       3.202830        87.1534 
 328   0.0000       3.219690        87.6122 
 329   0.0000       3.235792        88.0504 
 330   0.0000       3.239276        88.1452 
 331   0.0000       3.257783        88.6488 
 332   0.0000       3.262431        88.7753 
 333   0.0000       3.308557        90.0304 
 334   0.0000       3.325050        90.4792 
 335   0.0000       3.344910        91.0196 
 336   0.0000       3.349928        91.1562 
 337   0.0000       3.357905        91.3732 
 338   0.0000       3.364384        91.5495 
 339   0.0000       3.390123        92.2499 
 340   0.0000       3.475630        94.5767 
 341   0.0000       3.494567        95.0920 
 342   0.0000       3.512339        95.5756 
 343   0.0000       3.533195        96.1431 
 344   0.0000       3.542800        96.4045 
 345   0.0000       3.561366        96.9097 
 346   0.0000       3.567008        97.0632 
 347   0.0000       3.588399        97.6453 
 348   0.0000       3.621084        98.5347 
 349   0.0000       3.639326        99.0311 
 350   0.0000       3.660089        99.5961 
 351   0.0000       3.665133        99.7333 
 352   0.0000       3.711407       100.9925 
 353   0.0000       3.722474       101.2937 
 354   0.0000       3.806597       103.5828 
 355   0.0000       3.819143       103.9242 
 356   0.0000       3.903318       106.2147 
 357   0.0000       3.917435       106.5988 
 358   0.0000       3.927306       106.8674 
 359   0.0000       3.931257       106.9749 
 360   0.0000       3.942469       107.2800 
 361   0.0000       3.945252       107.3558 
 362   0.0000       3.976789       108.2139 
 363   0.0000       4.009326       109.0993 
 364   0.0000       4.023487       109.4846 
 365   0.0000       4.052858       110.2839 
 366   0.0000       4.069060       110.7248 
 367   0.0000       4.090445       111.3067 
 368   0.0000       4.094202       111.4089 
 369   0.0000       4.117401       112.0402 
 370   0.0000       4.143728       112.7566 
 371   0.0000       4.160060       113.2010 
 372   0.0000       4.168662       113.4351 
 373   0.0000       4.277232       116.3894 
 374   0.0000       4.295389       116.8835 
 375   0.0000       4.378264       119.1386 
 376   0.0000       4.381033       119.2140 
 377   0.0000       4.443399       120.9110 
 378   0.0000       4.461083       121.3922 
 379   0.0000       4.488298       122.1328 
 380   0.0000       4.535306       123.4119 
 381   0.0000       4.543229       123.6275 
 382   0.0000       4.593965       125.0082 
 383   0.0000       4.608717       125.4096 
 384   0.0000       4.632304       126.0514 
 385   0.0000       4.662555       126.8746 
 386   0.0000       4.692617       127.6926 
 387   0.0000       4.696560       127.7999 
 388   0.0000       4.726181       128.6059 
 389   0.0000       4.767315       129.7252 
 390   0.0000       4.845000       131.8392 
 391   0.0000       4.857851       132.1888 
 392   0.0000       4.890976       133.0902 
 393   0.0000       4.941637       134.4688 
 394   0.0000       4.948536       134.6565 
 395   0.0000       4.951316       134.7321 
 396   0.0000       4.953460       134.7905 
 397   0.0000       4.991982       135.8387 
 398   0.0000       5.000914       136.0818 
 399   0.0000       5.038546       137.1058 
 400   0.0000       5.098211       138.7294 
 401   0.0000       5.122939       139.4022 
 402   0.0000       5.126046       139.4868 
 403   0.0000       5.137639       139.8023 
 404   0.0000       5.146446       140.0419 
 405   0.0000       5.173160       140.7689 
 406   0.0000       5.187518       141.1595 
 407   0.0000       5.222507       142.1116 
 408   0.0000       5.413243       147.3018 
 409   0.0000       5.439474       148.0156 
 410   0.0000       5.482558       149.1880 
 411   0.0000       5.642124       153.5300 
 412   0.0000       5.730618       155.9380 
 413   0.0000       5.756697       156.6477 
 414   0.0000       5.909010       160.7923 
 415   0.0000       5.976085       162.6176 
 416   0.0000       6.039768       164.3504 
 417   0.0000       6.180580       168.1821 
 418   0.0000       6.181481       168.2066 
 419   0.0000       6.199551       168.6984 
 420   0.0000       6.215608       169.1353 
 421   0.0000       6.531351       177.7271 
 422   0.0000       6.576823       178.9644 
 423   0.0000       6.604660       179.7219 
 424   0.0000       6.614448       179.9883 
 425   0.0000       6.801835       185.0873 
 426   0.0000       6.925225       188.4450 
 427   0.0000       7.444631       202.5787 
 428   0.0000       7.508890       204.3273 
 429   0.0000      22.333648       607.7294 
 430   0.0000      22.528268       613.0253 
 431   0.0000      22.561928       613.9413 
 432   0.0000      22.680305       617.1625 
 433   0.0000      22.786916       620.0635 
 434   0.0000      23.133494       629.4944 
 435   0.0000      31.722795       863.2211 
 436   0.0000      32.209667       876.4696 
 437   0.0000      43.715800      1189.5674 
 438   0.0000      43.884026      1194.1450 

                    ********************************
                    * MULLIKEN POPULATION ANALYSIS *
                    ********************************

-----------------------
MULLIKEN ATOMIC CHARGES
-----------------------
   0 C :    1.245999
   1 C :   -0.445558
   2 C :   -0.444192
   3 C :   -0.326977
   4 C :   -0.439096
   5 C :   -0.436409
   6 H :    0.278763
   7 H :    0.321123
   8 H :    0.345385
   9 H :    0.315287
  10 H :    0.272379
  11 N :   -0.313241
  12 H :    0.212782
  13 H :    0.210680
  14 N :    0.504004
  15 O :   -0.142968
  16 O :   -0.157960
Sum of atomic charges:    1.0000000

--------------------------------
MULLIKEN REDUCED ORBITAL CHARGES
--------------------------------
  0 C s       :     3.038114  s :     3.038114
      pz      :     0.726945  p :     1.678522
      px      :     0.343272
      py      :     0.608305
      dz2     :    -0.009066  d :     0.023790
      dxz     :    -0.033354
      dyz     :     0.030265
      dx2y2   :    -0.018569
      dxy     :     0.054515
      f0      :     0.001947  f :     0.013575
      f+1     :     0.000991
      f-1     :     0.001198
      f+2     :     0.001754
      f-2     :     0.001367
      f+3     :     0.003048
      f-3     :     0.003269
  1 C s       :     3.495782  s :     3.495782
      pz      :     0.989509  p :     2.941317
      px      :     0.963650
      py      :     0.988157
      dz2     :     0.009563  d :     0.001334
      dxz     :     0.010775
      dyz     :     0.007081
      dx2y2   :     0.019084
      dxy     :    -0.045168
      f0      :     0.001296  f :     0.007126
      f+1     :     0.000618
      f-1     :     0.000568
      f+2     :     0.000569
      f-2     :     0.000761
      f+3     :     0.001505
[...]
    27. A(C   0,C   1,C   2)          119.80 -0.000003    0.01    119.81   
    28. A(C   1,C   2,C   3)          120.42  0.000006   -0.01    120.42   
    29. A(C   1,C   2,H   7)          119.73 -0.000047    0.01    119.74   
    30. A(C   3,C   2,H   7)          119.84  0.000040   -0.01    119.84   
    31. A(C   2,C   3,H   8)          119.96  0.000028   -0.00    119.96   
    32. A(C   4,C   3,H   8)          119.95 -0.000022    0.00    119.95   
    33. A(C   2,C   3,C   4)          120.09 -0.000006   -0.00    120.08   
    34. A(C   3,C   4,O  16)          147.73 -0.000037   -0.37    147.36   
    35. A(C   3,C   4,H   9)          119.74 -0.000040    0.01    119.75   
    36. A(C   5,C   4,O  16)           91.40 -0.000002    0.43     91.82   
    37. A(C   3,C   4,C   5)          120.49  0.000040    0.01    120.50   
    38. A(C   5,C   4,H   9)          119.77 -0.000000   -0.01    119.75   
    39. A(H   9,C   4,O  16)           28.80  0.000002   -0.50     28.30   
    40. A(C   0,C   5,H  10)          119.47  0.000056    0.01    119.48   
    41. A(H  10,C   5,O  16)           38.97 -0.000019    0.33     39.30   
    42. A(C   4,C   5,O  16)           82.15  0.000004   -0.39     81.77   
    43. A(C   0,C   5,O  16)          157.57  0.000036    0.47    158.05   
    44. A(C   0,C   5,C   4)          119.73 -0.000041   -0.01    119.72   
    45. A(C   4,C   5,H  10)          120.81 -0.000015   -0.00    120.80   
    46. A(H  12,N  11,H  13)          117.34  0.000060   -0.01    117.33   
    47. A(C   0,N  11,H  13)          121.34 -0.000021    0.01    121.35   
    48. A(C   0,N  11,H  12)          121.31 -0.000040    0.01    121.32   
    49. A(O  15,N  14,O  16)          145.08  0.000172   -0.01    145.07   
    50. A(C   4,O  16,C   5)            6.45 -0.000002   -0.04      6.41   
    51. A(C   5,O  16,N  14)          169.79  0.000000    0.36    170.15   
    52. A(C   4,O  16,N  14)          172.29  0.000001    0.34    172.63   
    53. D(H   6,C   1,C   0,C   5)   -179.97 -0.000001    0.01   -179.97   
    54. D(C   2,C   1,C   0,C   5)     -0.02 -0.000005    0.02      0.00   
    55. D(H   6,C   1,C   0,N  11)      0.07  0.000005   -0.01      0.06   
    56. D(C   2,C   1,C   0,N  11)   -179.98  0.000000    0.00   -179.97   
    57. D(C   3,C   2,C   1,C   0)      0.04  0.000004   -0.01      0.03   
    58. D(H   7,C   2,C   1,C   0)   -179.97  0.000000    0.00   -179.97   
    59. D(C   3,C   2,C   1,H   6)    180.00 -0.000001    0.00    180.00   
    60. D(H   7,C   2,C   1,H   6)     -0.02 -0.000004    0.02      0.00   
    61. D(H   8,C   3,C   2,C   1)    180.00  0.000002   -0.01    179.98   
    62. D(H   8,C   3,C   2,H   7)      0.01  0.000005   -0.03     -0.02   
    63. D(C   4,C   3,C   2,H   7)    179.98  0.000003   -0.01    179.97   
    64. D(C   4,C   3,C   2,C   1)     -0.03 -0.000000    0.00     -0.03   
    65. D(H   9,C   4,C   3,C   2)   -179.99  0.000001    0.00   -179.99   
    66. D(C   5,C   4,C   3,H   8)    179.97 -0.000004    0.02    179.98   
    67. D(O  16,C   4,C   3,H   8)     -9.80  0.000010    0.88     -8.92   
    68. D(O  16,C   4,C   3,C   2)    170.23  0.000012    0.86    171.09   
    69. D(H   9,C   4,C   3,H   8)     -0.02 -0.000001    0.02      0.00   
    70. D(C   5,C   4,C   3,C   2)     -0.01 -0.000002   -0.00     -0.01   
    71. D(H  10,C   5,C   4,O  16)      5.20 -0.000003   -0.40      4.80   
    72. D(H  10,C   5,C   4,H   9)     -0.02 -0.000004   -0.02     -0.04   
    73. D(H  10,C   5,C   4,C   3)   -180.00 -0.000001   -0.01   -180.01   
    74. D(C   0,C   5,C   4,H   9)   -179.99 -0.000002    0.01   -179.98   
    75. D(C   0,C   5,C   4,C   3)      0.03  0.000001    0.01      0.04   
    76. D(O  16,C   5,C   0,N  11)     13.63  0.000016   -0.71     12.92   
    77. D(O  16,C   5,C   0,C   1)   -166.33  0.000021   -0.73   -167.06   
    78. D(C   0,C   5,C   4,O  16)   -174.77 -0.000001   -0.38   -175.15   
    79. D(H  10,C   5,C   0,C   1)   -179.99  0.000004    0.00   -179.98   
    80. D(C   4,C   5,C   0,N  11)    179.94 -0.000003   -0.00    179.94   
    81. D(H  10,C   5,C   0,N  11)     -0.03 -0.000001    0.02     -0.01   
    82. D(O  16,C   5,C   4,C   3)    174.80  0.000002    0.39    175.19   
    83. D(C   4,C   5,C   0,C   1)     -0.02  0.000003   -0.02     -0.04   
    84. D(O  16,C   5,C   4,H   9)     -5.21 -0.000001    0.38     -4.83   
    85. D(H  13,N  11,C   0,C   5)      0.47  0.000050   -0.10      0.37   
    86. D(H  13,N  11,C   0,C   1)   -179.57  0.000045   -0.08   -179.65   
    87. D(H  12,N  11,C   0,C   5)    179.65 -0.000033    0.06    179.70   
    88. D(H  12,N  11,C   0,C   1)     -0.40 -0.000038    0.07     -0.32   
    89. D(C   5,O  16,N  14,O  15)     71.56 -0.000003   -0.18     71.38   
    90. D(C   4,O  16,C   5,H  10)   -172.89  0.000000   -0.62   -173.51   
    91. D(C   4,O  16,C   5,C   0)    168.03 -0.000021    0.60    168.63   
    92. D(N  14,O  16,C   5,H  10)    -42.01  0.000006   -0.14    -42.15   
    93. D(N  14,O  16,C   5,C   4)    130.89  0.000005    0.47    131.36   
    94. D(N  14,O  16,C   5,C   0)    -61.08 -0.000015    1.08    -60.01   
    95. D(C   5,O  16,C   4,H   9)    170.57 -0.000002    0.52    171.10   
    96. D(C   5,O  16,C   4,C   3)   -171.59 -0.000016   -0.74   -172.33   
    97. D(N  14,O  16,C   4,H   9)     82.60  0.000014   -0.24     82.36   
    98. D(C   4,O  16,N  14,O  15)    110.85 -0.000014    1.03    111.89   
    99. D(N  14,O  16,C   4,C   5)    -87.97  0.000016   -0.77    -88.74   
   100. D(N  14,O  16,C   4,C   3)    100.44 -0.000000   -1.51     98.93   
    ----------------------------------------------------------------------------

         *************************************************************
         *                GEOMETRY OPTIMIZATION CYCLE  53            *
         *************************************************************
---------------------------------
CARTESIAN COORDINATES (ANGSTROEM)
---------------------------------
  C     -4.450539    0.588279    0.114236
  C     -5.249551   -0.570485    0.300337
  C     -4.673987   -1.815977    0.226826
  C     -3.302626   -1.949923   -0.029962
  C     -2.507816   -0.810377   -0.214497
  C     -3.062125    0.445180   -0.146391
  H     -6.308229   -0.459597    0.498429
  H     -5.283699   -2.698076    0.368227
  H     -2.857203   -2.933699   -0.085814
  H     -1.450111   -0.920031   -0.412628
  H     -2.452544    1.328795   -0.288015
  N     -5.005322    1.812484    0.184801
  H     -5.989266    1.931918    0.364404
  H     -4.455405    2.645454    0.050354
  N      9.754385    4.222212   -1.706654
  O     10.440238    5.160944   -1.640579
  O      8.708041    3.782611   -1.441056

----------------------------
CARTESIAN COORDINATES (A.U.)
----------------------------
  NO LB      ZA    FRAG     MASS         X           Y           Z
   0 C     6.0000    0    12.011   -8.410301    1.111686    0.215875
   1 C     6.0000    0    12.011   -9.920214   -1.078061    0.567555
   2 C     6.0000    0    12.011   -8.832555   -3.431700    0.428639
   3 C     6.0000    0    12.011   -6.241059   -3.684821   -0.056620
   4 C     6.0000    0    12.011   -4.739085   -1.531390   -0.405340
   5 C     6.0000    0    12.011   -5.786578    0.841268   -0.276638
   6 H     1.0000    0     1.008  -11.920825   -0.868513    0.941895
   7 H     1.0000    0     1.008   -9.984744   -5.098625    0.695849
   8 H     1.0000    0     1.008   -5.399332   -5.543888   -0.162165
   9 H     1.0000    0     1.008   -2.740312   -1.738606   -0.779754
  10 H     1.0000    0     1.008   -4.634636    2.511058   -0.544269
  11 N     7.0000    0    14.007   -9.458688    3.425098    0.349223
  12 H     1.0000    0     1.008  -11.318072    3.650796    0.688624
  13 H     1.0000    0     1.008   -8.419496    4.999183    0.095154
  14 N     7.0000    0    14.007   18.433115    7.978825   -3.225108
  15 O     8.0000    0    15.999   19.729190    9.752772   -3.100245
  16 O     8.0000    0    15.999   16.455812    7.148098   -2.723201

--------------------------------
INTERNAL COORDINATES (ANGSTROEM)
--------------------------------
 C      0   0   0     0.000000000000     0.00000000     0.00000000
 C      1   0   0     1.419784428639     0.00000000     0.00000000
 C      2   1   0     1.374019201993   119.80563157     0.00000000
 C      3   2   1     1.401610738006   120.41627308     0.03896283
 C      4   3   2     1.401549949775   120.08444757   359.97035169
 C      5   4   3     1.374161374036   120.50449392     0.00000000
 H      2   1   3     1.082744377840   119.38373536   180.03425313
 H      3   2   1     1.081592098980   119.74480699   180.03276991
 H      4   3   2     1.081358453792   119.96196869   179.97213054
 H      5   4   3     1.081674879236   119.75028674   180.01568486
 H      6   5   4     1.082784206278   120.80034469   179.98851055
 N      1   2   3     1.345897570348   120.23266550   180.01920159
 H     12   1   2     1.007306724624   121.32136309   359.68195204
 H     12   1   2     1.007136282398   121.34675253   180.34919368
 N     10   5   4    12.395881348341   149.42078926   188.85649094
 O     15  10   5     1.164464906685   149.41469491     6.21502048
 O     15  10   5     1.165601535608     7.41032549    65.16080471

---------------------------
INTERNAL COORDINATES (A.U.)
---------------------------
 C      0   0   0     0.000000000000     0.00000000     0.00000000
 C      1   0   0     2.683003739334     0.00000000     0.00000000
 C      2   1   0     2.596519994515   119.80563157     0.00000000
 C      3   2   1     2.648660441195   120.41627308     0.03896283
 C      4   3   2     2.648545568085   120.08444757   359.97035169
 C      5   4   3     2.596788660741   120.50449392     0.00000000
 H      2   1   3     2.046090347161   119.38373536   180.03425313
 H      3   2   1     2.043912855686   119.74480699   180.03276991
 H      4   3   2     2.043471330268   119.96196869   179.97213054
 H      5   4   3     2.044069287699   119.75028674   180.01568486
 H      6   5   4     2.046165612000   120.80034469   179.98851055
 N      1   2   3     2.543377812268   120.23266550   180.01920159
 H     12   1   2     1.903533842397   121.32136309   359.68195204
 H     12   1   2     1.903211753268   121.34675253   180.34919368
 N     10   5   4    23.424820936946   149.42078926   188.85649094
 O     15  10   5     2.200519766197   149.41469491     6.21502048
 O     15  10   5     2.202667683577     7.41032549    65.16080471

------------------------------------------------------------------------------
                   ___                                                        
                  /   \      - P O W E R E D   B Y -                         
                 /     \                                                     
                 |  |  |   _    _      __       _____    __    __             
                 |  |  |  | |  | |    /  \     |  _  \  |  |  /  |          
                  \  \/   | |  | |   /    \    | | | |  |  | /  /          
                 / \  \   | |__| |  /  /\  \   | |_| |  |  |/  /          
                |  |  |   |  __  | /  /__\  \  |    /   |      \           
                |  |  |   | |  | | |   __   |  |    \   |  |\   \          
                \     /   | |  | | |  |  |  |  | |\  \  |  | \   \       
                 \___/    |_|  |_| |__|  |__|  |_| \__\ |__|  \__/        
                                                                              
                      - O R C A' S   B I G   F R I E N D -                    
                                      &                                       
                       - I N T E G R A L  F E E D E R -                       
                                                                              
 v1 FN, 2020, v2 2021                                                         
------------------------------------------------------------------------------


Reading SHARK input file opt2_1.SHARKINP.tmp ... ok
----------------------
SHARK INTEGRAL PACKAGE
----------------------

Number of atoms                             ...     17
Number of basis functions                   ...    439
Number of shells                            ...    167
Maximum angular momentum                    ...      3
Integral batch strategy                     ... SHARK/LIBINT Hybrid
RI-J (if used) integral strategy            ... SPLIT-RIJ (Revised 2003 algorithm where possible)
Printlevel                                  ...      1
Contraction scheme used                     ... SEGMENTED contraction
Coulomb Range Separation                    ... NOT USED
Exchange Range Separation                   ... NOT USED
Finite Nucleus Model                        ... NOT USED
Auxiliary Coulomb fitting basis             ... AVAILABLE
   # of basis functions in Aux-J            ...    567
   # of shells in Aux-J                     ...    185
   Maximum angular momentum in Aux-J        ...      4
Auxiliary J/K fitting basis                 ... NOT available
Auxiliary Correlation fitting basis         ... NOT available
Auxiliary 'external' fitting basis          ... NOT available
Integral threshold                          ...     2.500000e-11
Primitive cut-off                           ...     2.500000e-12
Primitive pair pre-selection threshold      ...     2.500000e-12

Calculating pre-screening integrals         ... done (  0.1 sec) Dimension = 167
Organizing shell pair data                  ... done (  0.2 sec)
Shell pair information
Total number of shell pairs                 ...     14028
Shell pairs after pre-screening             ...      8718
Total number of primitive shell pairs       ...     37097
Primitive shell pairs kept                  ...     18571
          la=0 lb=0:   2055 shell pairs
          la=1 lb=0:   2383 shell pairs
          la=1 lb=1:    715 shell pairs
          la=2 lb=0:   1477 shell pairs
          la=2 lb=1:    846 shell pairs
          la=2 lb=2:    277 shell pairs
          la=3 lb=0:    480 shell pairs
          la=3 lb=1:    277 shell pairs
          la=3 lb=2:    174 shell pairs
          la=3 lb=3:     34 shell pairs

Calculating one electron integrals          ... done (  0.1 sec)
Calculating RI/J V-Matrix + Cholesky decomp.... done (  0.0 sec)
Calculating Nuclear repulsion               ... done (  0.0 sec) ENN=    380.407204528461 Eh

SHARK setup successfully completed in   0.8 seconds

Maximum memory used throughout the entire GTOINT-calculation: 127.2 MB

Diagonalization of the overlap matrix:
Smallest eigenvalue                        ... 6.623e-07
Time for diagonalization                   ...    0.112 sec
Threshold for overlap eigenvalues          ... 1.000e-08
Number of eigenvalues below threshold      ... 0
Time for construction of square roots      ...    0.032 sec
Total time needed                          ...    0.146 sec

-------------------
DFT GRID GENERATION
-------------------

General Integration Accuracy     IntAcc      ... 4.388
Radial Grid Type                 RadialGrid  ... OptM3 with GC (2021)
Angular Grid (max. ang.)         AngularGrid ... 4 (Lebedev-302)
Angular grid pruning method      GridPruning ... 4 (adaptive)
Weight generation scheme         WeightScheme... Becke
Basis function cutoff            BFCut       ... 1.0000e-11
Integration weight cutoff        WCut        ... 1.0000e-14
Angular grids for H and He will be reduced by one unit
Partially contracted basis set               ... off
Rotationally invariant grid construction     ... off

Total number of grid points                  ...    87362
Total number of batches                      ...     1373
Average number of points per batch           ...       63
Average number of grid points per atom       ...     5139
Time for grid setup =    2.646 sec

--------------------
COSX GRID GENERATION
--------------------

GRIDX 1
-------
General Integration Accuracy     IntAcc      ... 3.816
Radial Grid Type                 RadialGrid  ... OptM3 with GC (2021)
Angular Grid (max. ang.)         AngularGrid ... 1 (Lebedev-50)
Angular grid pruning method      GridPruning ... 4 (adaptive)
Weight generation scheme         WeightScheme... Becke
Basis function cutoff            BFCut       ... 1.0000e-11
Integration weight cutoff        WCut        ... 1.0000e-14
Angular grids for H and He will be reduced by one unit
Partially contracted basis set               ... on
Rotationally invariant grid construction     ... off

Total number of grid points                  ...    11010
Total number of batches                      ...      183
Average number of points per batch           ...       60
Average number of grid points per atom       ...      648
UseSFitting                                  ... on

GRIDX 2
-------
General Integration Accuracy     IntAcc      ... 4.020
Radial Grid Type                 RadialGrid  ... OptM3 with GC (2021)
Angular Grid (max. ang.)         AngularGrid ... 2 (Lebedev-110)
Angular grid pruning method      GridPruning ... 4 (adaptive)
Weight generation scheme         WeightScheme... Becke
Basis function cutoff            BFCut       ... 1.0000e-11
Integration weight cutoff        WCut        ... 1.0000e-14
Angular grids for H and He will be reduced by one unit
Partially contracted basis set               ... on
Rotationally invariant grid construction     ... off

Total number of grid points                  ...    27696
Total number of batches                      ...      441
Average number of points per batch           ...       62
Average number of grid points per atom       ...     1629
UseSFitting                                  ... on

GRIDX 3
-------
General Integration Accuracy     IntAcc      ... 4.338
Radial Grid Type                 RadialGrid  ... OptM3 with GC (2021)
Angular Grid (max. ang.)         AngularGrid ... 3 (Lebedev-194)
Angular grid pruning method      GridPruning ... 4 (adaptive)
Weight generation scheme         WeightScheme... Becke
Basis function cutoff            BFCut       ... 1.0000e-11
Integration weight cutoff        WCut        ... 1.0000e-14
Angular grids for H and He will be reduced by one unit
Partially contracted basis set               ... on
Rotationally invariant grid construction     ... off

Total number of grid points                  ...    61210
Total number of batches                      ...      964
Average number of points per batch           ...       63
Average number of grid points per atom       ...     3601
UseSFitting                                  ... on

Time for X-Grid setup             =    2.659 sec

--------------
SCF ITERATIONS
--------------
ITER       Energy         Delta-E        Max-DP      RMS-DP      [F,P]     Damp
               ***  Starting incremental Fock matrix formation  ***
                      *** Initiating the SOSCF procedure ***
                      *** Re-Reading the Fockian *** 
                      *** Removing any level shift *** 
ITER      Energy       Delta-E        Grad      Rot      Max-DP    RMS-DP
  0   -492.31429574 -492.3142957360  0.002466  0.002466  0.003234  0.000065
               *** Restarting incremental Fock matrix formation ***
  1   -492.31458656  -0.0002908206  0.000587  0.001166  0.003388  0.000045
  2   -492.31460288  -0.0000163204  0.000555  0.008171  0.002344  0.000042
  3   -492.31453536   0.0000675147  0.004000  0.008897  0.001551  0.000035
  4   -492.31458870  -0.0000533407  0.001101  0.003841  0.004191  0.000063
  5   -492.31451199   0.0000767169  0.003968  0.003311  0.002922  0.000041
