
                                 *****************
                                 * O   R   C   A *
                                 *****************

                                            #,                                       
                                            ###                                      
                                            ####                                     
                                            #####                                    
                                            ######                                   
                                           ########,                                 
                                     ,,################,,,,,                         
                               ,,#################################,,                 
                          ,,##########################################,,             
                       ,#########################################, ''#####,          
                    ,#############################################,,   '####,        
                  ,##################################################,,,,####,       
                ,###########''''           ''''###############################       
              ,#####''   ,,,,##########,,,,          '''####'''          '####       
            ,##' ,,,,###########################,,,                        '##       
           ' ,,###''''                  '''############,,,                           
         ,,##''                                '''############,,,,        ,,,,,,###''
      ,#''                                            '''#######################'''  
     '                                                          ''''####''''         
             ,#######,   #######,   ,#######,      ##                                
            ,#'     '#,  ##    ##  ,#'     '#,    #''#        ######   ,####,        
            ##       ##  ##   ,#'  ##            #'  '#       #        #'  '#        
            ##       ##  #######   ##           ,######,      #####,   #    #        
            '#,     ,#'  ##    ##  '#,     ,#' ,#      #,         ##   #,  ,#        
             '#######'   ##     ##  '#######'  #'      '#     #####' # '####'        



                  #######################################################
                  #                        -***-                        #
                  #          Department of theory and spectroscopy      #
                  #    Directorship and core code : Frank Neese         #
                  #        Max Planck Institute fuer Kohlenforschung    #
                  #                Kaiser Wilhelm Platz 1               #
                  #                 D-45470 Muelheim/Ruhr               #
                  #                      Germany                        #
                  #                                                     #
                  #                  All rights reserved                #
                  #                        -***-                        #
                  #######################################################



                         Program Version 5.0.4 -  RELEASE  -

 With contributions from (in alphabetic order):
   Daniel Aravena         : Magnetic Suceptibility
   Michael Atanasov       : Ab Initio Ligand Field Theory (pilot matlab implementation)
   Alexander A. Auer      : GIAO ZORA, VPT2 properties, NMR spectrum
   Ute Becker             : Parallelization
   Giovanni Bistoni       : ED, misc. LED, open-shell LED, HFLD
   Martin Brehm           : Molecular dynamics
   Dmytro Bykov           : SCF Hessian
   Vijay G. Chilkuri      : MRCI spin determinant printing, contributions to CSF-ICE
   Dipayan Datta          : RHF DLPNO-CCSD density
   Achintya Kumar Dutta   : EOM-CC, STEOM-CC
   Dmitry Ganyushin       : Spin-Orbit,Spin-Spin,Magnetic field MRCI
   Miquel Garcia          : C-PCM and meta-GGA Hessian, CC/C-PCM, Gaussian charge scheme
   Yang Guo               : DLPNO-NEVPT2, F12-NEVPT2, CIM, IAO-localization
   Andreas Hansen         : Spin unrestricted coupled pair/coupled cluster methods
   Benjamin Helmich-Paris : MC-RPA, TRAH-SCF, COSX integrals
   Lee Huntington         : MR-EOM, pCC
   Robert Izsak           : Overlap fitted RIJCOSX, COSX-SCS-MP3, EOM
   Marcus Kettner         : VPT2
   Christian Kollmar      : KDIIS, OOCD, Brueckner-CCSD(T), CCSD density, CASPT2, CASPT2-K
   Simone Kossmann        : Meta GGA functionals, TD-DFT gradient, OOMP2, MP2 Hessian
   Martin Krupicka        : Initial AUTO-CI
   Lucas Lang             : DCDCAS
   Marvin Lechner         : AUTO-CI (C++ implementation), FIC-MRCC
   Dagmar Lenk            : GEPOL surface, SMD
   Dimitrios Liakos       : Extrapolation schemes; Compound Job, initial MDCI parallelization
   Dimitrios Manganas     : Further ROCIS development; embedding schemes
   Dimitrios Pantazis     : SARC Basis sets
   Anastasios Papadopoulos: AUTO-CI, single reference methods and gradients
   Taras Petrenko         : DFT Hessian,TD-DFT gradient, ASA, ECA, R-Raman, ABS, FL, XAS/XES, NRVS
   Peter Pinski           : DLPNO-MP2, DLPNO-MP2 Gradient
   Christoph Reimann      : Effective Core Potentials
   Marius Retegan         : Local ZFS, SOC
   Christoph Riplinger    : Optimizer, TS searches, QM/MM, DLPNO-CCSD(T), (RO)-DLPNO pert. Triples
   Tobias Risthaus        : Range-separated hybrids, TD-DFT gradient, RPA, STAB
   Michael Roemelt        : Original ROCIS implementation
   Masaaki Saitow         : Open-shell DLPNO-CCSD energy and density
   Barbara Sandhoefer     : DKH picture change effects
   Avijit Sen             : IP-ROCIS
   Kantharuban Sivalingam : CASSCF convergence, NEVPT2, FIC-MRCI
   Bernardo de Souza      : ESD, SOC TD-DFT
   Georgi Stoychev        : AutoAux, RI-MP2 NMR, DLPNO-MP2 response
   Willem Van den Heuvel  : Paramagnetic NMR
   Boris Wezisla          : Elementary symmetry handling
   Frank Wennmohs         : Technical directorship


 We gratefully acknowledge several colleagues who have allowed us to
 interface, adapt or use parts of their codes:
   Stefan Grimme, W. Hujo, H. Kruse, P. Pracht,  : VdW corrections, initial TS optimization,
                  C. Bannwarth, S. Ehlert          DFT functionals, gCP, sTDA/sTD-DF
   Ed Valeev, F. Pavosevic, A. Kumar             : LibInt (2-el integral package), F12 methods
   Garnet Chan, S. Sharma, J. Yang, R. Olivares  : DMRG
   Ulf Ekstrom                                   : XCFun DFT Library
   Mihaly Kallay                                 : mrcc  (arbitrary order and MRCC methods)
   Jiri Pittner, Ondrej Demel                    : Mk-CCSD
   Frank Weinhold                                : gennbo (NPA and NBO analysis)
   Christopher J. Cramer and Donald G. Truhlar   : smd solvation model
   Lars Goerigk                                  : TD-DFT with DH, B97 family of functionals
   V. Asgeirsson, H. Jonsson                     : NEB implementation
   FAccTs GmbH                                   : IRC, NEB, NEB-TS, DLPNO-Multilevel, CI-OPT
                                                   MM, QMMM, 2- and 3-layer-ONIOM, Crystal-QMMM,
                                                   LR-CPCM, SF, NACMEs, symmetry and pop. for TD-DFT,
                                                   nearIR, NL-DFT gradient (VV10), updates on ESD,
                                                   ML-optimized integration grids
   S Lehtola, MJT Oliveira, MAL Marques          : LibXC Library
   Liviu Ungur et al                             : ANISO software


 Your calculation uses the libint2 library for the computation of 2-el integrals
 For citations please refer to: http://libint.valeyev.net

 Your ORCA version has been built with support for libXC version: 5.1.0
 For citations please refer to: https://tddft.org/programs/libxc/

 This ORCA versions uses:
   CBLAS   interface :  Fast vector & matrix operations
   LAPACKE interface :  Fast linear algebra routines
   Shared memory     :  Shared parallel matrices


================================================================================

----- Orbital basis set information -----
Your calculation utilizes the basis: def2-QZVPP
   F. Weigend and R. Ahlrichs, Phys. Chem. Chem. Phys. 7, 3297 (2005).

----- AuxJ basis set information -----
Your calculation utilizes the auxiliary basis: def2/J
   F. Weigend, Phys. Chem. Chem. Phys. 8, 1057 (2006).

================================================================================
                                        WARNINGS
                       Please study these warnings very carefully!
================================================================================


INFO   : the flag for use of the SHARK integral package has been found!


WARNING: TRAH does not support fractional occupations!
  ===> : Turning TRAH off
================================================================================
                                       INPUT FILE
================================================================================
NAME = benzaldehyd_FOD.inp
|  1> !B3LYP DEF2-QZVPP
|  2> 
|  3> %scf
|  4> smearTemp 5000
|  5> convergence tight
|  6> end
|  7> 
|  8> * xyz 0 1
|  9>   C   -7.64955123257574      1.05667496322029      0.00014520838104
| 10>   C   -8.79916351080206      0.24872780425274      0.00008905118997
| 11>   C   -8.67321655981621     -1.13811711906506     -0.00000919817803
| 12>   C   -7.40029987012933     -1.72545521617015     -0.00005668085097
| 13>   C   -6.25283944731800     -0.92603412378881     -0.00000445009069
| 14>   C   -6.37843668408918      0.46455608191688      0.00009149100933
| 15>   H   -9.77661143532832      0.73646330403028      0.00013423090312
| 16>   H   -9.56538097816012     -1.76944944365123     -0.00004787808665
| 17>   H   -7.30398836209473     -2.81446583393220     -0.00013419510464
| 18>   H   -5.26279373559463     -1.38857504724656     -0.00004062474458
| 19>   H   -5.48778053780068      1.10055393291687      0.00013390758895
| 20>   C   -7.78086952931509      2.53411063434570      0.00027982611682
| 21>   O   -8.83232576750578      3.13199127167985     -0.00028240644287
| 22>   H   -6.80289234947011      3.08481879149140     -0.00029828169081
| 23> **                         ****END OF INPUT****
================================================================================

                       ****************************
                       * Single Point Calculation *
                       ****************************

---------------------------------
CARTESIAN COORDINATES (ANGSTROEM)
---------------------------------
  C     -7.649551    1.056675    0.000145
  C     -8.799164    0.248728    0.000089
  C     -8.673217   -1.138117   -0.000009
  C     -7.400300   -1.725455   -0.000057
  C     -6.252839   -0.926034   -0.000004
  C     -6.378437    0.464556    0.000091
  H     -9.776611    0.736463    0.000134
  H     -9.565381   -1.769449   -0.000048
  H     -7.303988   -2.814466   -0.000134
  H     -5.262794   -1.388575   -0.000041
  H     -5.487781    1.100554    0.000134
  C     -7.780870    2.534111    0.000280
  O     -8.832326    3.131991   -0.000282
  H     -6.802892    3.084819   -0.000298

----------------------------
CARTESIAN COORDINATES (A.U.)
----------------------------
  NO LB      ZA    FRAG     MASS         X           Y           Z
   0 C     6.0000    0    12.011  -14.455557    1.996826    0.000274
   1 C     6.0000    0    12.011  -16.628009    0.470027    0.000168
   2 C     6.0000    0    12.011  -16.390004   -2.150730   -0.000017
   3 C     6.0000    0    12.011  -13.984540   -3.260638   -0.000107
   4 C     6.0000    0    12.011  -11.816154   -1.749951   -0.000008
   5 C     6.0000    0    12.011  -12.053498    0.877884    0.000173
   6 H     1.0000    0     1.008  -18.475118    1.391714    0.000254
   7 H     1.0000    0     1.008  -18.075950   -3.343775   -0.000090
   8 H     1.0000    0     1.008  -13.802538   -5.318570   -0.000254
   9 H     1.0000    0     1.008   -9.945239   -2.624027   -0.000077
  10 H     1.0000    0     1.008  -10.370402    2.079746    0.000253
  11 C     6.0000    0    12.011  -14.703712    4.788775    0.000529
  12 O     8.0000    0    15.999  -16.690677    5.918606   -0.000534
  13 H     1.0000    0     1.008  -12.855603    5.829463   -0.000564

--------------------------------
INTERNAL COORDINATES (ANGSTROEM)
--------------------------------
 C      0   0   0     0.000000000000     0.00000000     0.00000000
 C      1   0   0     1.405128821527     0.00000000     0.00000000
 C      2   1   0     1.392552148197   119.91042912     0.00000000
 C      3   2   1     1.401885495128   119.95824004     0.00000000
 C      4   3   2     1.398477567782   120.36643130     0.00000000
 C      5   4   3     1.396250620517   119.70352069     0.00000000
 H      2   1   3     1.092378306698   118.38178369   179.99941564
 H      3   2   1     1.092949154775   120.09569114   179.99968451
 H      4   3   2     1.093261193945   119.82319040   180.00002277
 H      5   4   3     1.092764667476   120.09398267   179.99992937
 H      6   5   4     1.094422970883   120.36887618   179.99995085
 C      1   2   3     1.483260150983   120.02028762   180.00133630
 O     12   1   2     1.209554378040   124.70273360   359.96364377
 H     12   1   2     1.122372118708   114.30501524   180.03437023

---------------------------
INTERNAL COORDINATES (A.U.)
---------------------------
 C      0   0   0     0.000000000000     0.00000000     0.00000000
 C      1   0   0     2.655308655566     0.00000000     0.00000000
 C      2   1   0     2.631542187296   119.91042912     0.00000000
 C      3   2   1     2.649179656908   119.95824004     0.00000000
 C      4   3   2     2.642739607541   120.36643130     0.00000000
 C      5   4   3     2.638531287095   119.70352069     0.00000000
 H      2   1   3     2.064295834297   118.38178369   179.99941564
 H      3   2   1     2.065374580825   120.09569114   179.99968451
 H      4   3   2     2.065964249401   119.82319040   180.00002277
 H      5   4   3     2.065025950355   120.09398267   179.99992937
 H      6   5   4     2.068159689642   120.36887618   179.99995085
 C      1   2   3     2.802955470717   120.02028762   180.00133630
 O     12   1   2     2.285726518580   124.70273360   359.96364377
 H     12   1   2     2.120975924707   114.30501524   180.03437023

---------------------
BASIS SET INFORMATION
---------------------
There are 3 groups of distinct atoms

 Group   1 Type C   : 15s8p3d2f1g contracted to 7s4p3d2f1g pattern {8211111/5111/111/11/1}
 Group   2 Type H   : 7s3p2d1f contracted to 4s3p2d1f pattern {4111/111/11/1}
 Group   3 Type O   : 15s8p3d2f1g contracted to 7s4p3d2f1g pattern {8211111/5111/111/11/1}

Atom   0C    basis set group =>   1
Atom   1C    basis set group =>   1
Atom   2C    basis set group =>   1
Atom   3C    basis set group =>   1
Atom   4C    basis set group =>   1
Atom   5C    basis set group =>   1
Atom   6H    basis set group =>   2
Atom   7H    basis set group =>   2
Atom   8H    basis set group =>   2
Atom   9H    basis set group =>   2
Atom  10H    basis set group =>   2
Atom  11C    basis set group =>   1
Atom  12O    basis set group =>   3
Atom  13H    basis set group =>   2
---------------------------------
AUXILIARY/J BASIS SET INFORMATION
---------------------------------
There are 3 groups of distinct atoms

 Group   1 Type C   : 12s5p4d2f1g contracted to 6s4p3d1f1g pattern {711111/2111/211/2/1}
 Group   2 Type H   : 5s2p1d contracted to 3s1p1d pattern {311/2/1}
 Group   3 Type O   : 12s5p4d2f1g contracted to 6s4p3d1f1g pattern {711111/2111/211/2/1}

Atom   0C    basis set group =>   1
Atom   1C    basis set group =>   1
Atom   2C    basis set group =>   1
Atom   3C    basis set group =>   1
Atom   4C    basis set group =>   1
Atom   5C    basis set group =>   1
Atom   6H    basis set group =>   2
Atom   7H    basis set group =>   2
Atom   8H    basis set group =>   2
Atom   9H    basis set group =>   2
Atom  10H    basis set group =>   2
Atom  11C    basis set group =>   1
Atom  12O    basis set group =>   3
Atom  13H    basis set group =>   2
------------------------------------------------------------------------------
                           ORCA GTO INTEGRAL CALCULATION
                           -- RI-GTO INTEGRALS CHOSEN --
------------------------------------------------------------------------------
------------------------------------------------------------------------------
                   ___                                                        
                  /   \      - P O W E R E D   B Y -                         
                 /     \                                                     
                 |  |  |   _    _      __       _____    __    __             
                 |  |  |  | |  | |    /  \     |  _  \  |  |  /  |          
                  \  \/   | |  | |   /    \    | | | |  |  | /  /          
                 / \  \   | |__| |  /  /\  \   | |_| |  |  |/  /          
                |  |  |   |  __  | /  /__\  \  |    /   |      \           
                |  |  |   | |  | | |   __   |  |    \   |  |\   \          
                \     /   | |  | | |  |  |  |  | |\  \  |  | \   \       
                 \___/    |_|  |_| |__|  |__|  |_| \__\ |__|  \__/        
                                                                              
                      - O R C A' S   B I G   F R I E N D -                    
                                      &                                       
                       - I N T E G R A L  F E E D E R -                       
                                                                              
 v1 FN, 2020, v2 2021                                                         
------------------------------------------------------------------------------


Reading SHARK input file benzaldehyd_FOD.SHARKINP.tmp ... ok
----------------------
SHARK INTEGRAL PACKAGE
----------------------

Number of atoms                             ...     14
Number of basis functions                   ...    636
Number of shells                            ...    196
Maximum angular momentum                    ...      4
Integral batch strategy                     ... SHARK/LIBINT Hybrid
RI-J (if used) integral strategy            ... SPLIT-RIJ (Revised 2003 algorithm where possible)
Printlevel                                  ...      1
Contraction scheme used                     ... SEGMENTED contraction
Coulomb Range Separation                    ... NOT USED
Exchange Range Separation                   ... NOT USED
Finite Nucleus Model                        ... NOT USED
Auxiliary Coulomb fitting basis             ... AVAILABLE
   # of basis functions in Aux-J            ...    458
   # of shells in Aux-J                     ...    150
   Maximum angular momentum in Aux-J        ...      4
Auxiliary J/K fitting basis                 ... NOT available
Auxiliary Correlation fitting basis         ... NOT available
Auxiliary 'external' fitting basis          ... NOT available
Integral threshold                          ...     2.500000e-11
Primitive cut-off                           ...     2.500000e-12
Primitive pair pre-selection threshold      ...     2.500000e-12

Calculating pre-screening integrals         ... done (  2.1 sec) Dimension = 196
Organizing shell pair data                  ... done (  2.0 sec)
Shell pair information
Total number of shell pairs                 ...     19306
Shell pairs after pre-screening             ...     16460
Total number of primitive shell pairs       ...     48553
Primitive shell pairs kept                  ...     31784
          la=0 lb=0:   2548 shell pairs
          la=1 lb=0:   3484 shell pairs
          la=1 lb=1:   1179 shell pairs
          la=2 lb=0:   2379 shell pairs
          la=2 lb=1:   1616 shell pairs
          la=2 lb=2:    570 shell pairs
          la=3 lb=0:   1450 shell pairs
          la=3 lb=1:    977 shell pairs
          la=3 lb=2:    678 shell pairs
          la=3 lb=3:    216 shell pairs
          la=4 lb=0:    555 shell pairs
          la=4 lb=1:    365 shell pairs
          la=4 lb=2:    254 shell pairs
          la=4 lb=3:    156 shell pairs
          la=4 lb=4:     33 shell pairs

Calculating one electron integrals          ... done (  0.5 sec)
Calculating RI/J V-Matrix + Cholesky decomp.... done (  0.0 sec)
Calculating Nuclear repulsion               ... done (  0.0 sec) ENN=    320.254665227820 Eh

SHARK setup successfully completed in   8.7 seconds

Maximum memory used throughout the entire GTOINT-calculation: 571.1 MB
-------------------------------------------------------------------------------
                                 ORCA SCF
-------------------------------------------------------------------------------

------------
SCF SETTINGS
------------
Hamiltonian:
 Density Functional     Method          .... DFT(GTOs)
 Exchange Functional    Exchange        .... B88
   X-Alpha parameter    XAlpha          ....  0.666667
   Becke's b parameter  XBeta           ....  0.004200
 Correlation Functional Correlation     .... LYP
 LDA part of GGA corr.  LDAOpt          .... VWN-5
 Gradients option       PostSCFGGA      .... off
 Hybrid DFT is turned on
   Fraction HF Exchange ScalHFX         ....  0.200000
   Scaling of DF-GGA-X  ScalDFX         ....  0.720000
   Scaling of DF-GGA-C  ScalDFC         ....  0.810000
   Scaling of DF-LDA-C  ScalLDAC        ....  1.000000
   Perturbative correction              ....  0.000000
   Density functional embedding theory  .... OFF
   NL short-range parameter             ....  4.800000
 RI-approximation to the Coulomb term is turned on
   Number of AuxJ basis functions       .... 458
   RIJ-COSX (HFX calculated with COS-X)).... on


General Settings:
 Integral files         IntName         .... benzaldehyd_FOD
 Hartree-Fock type      HFTyp           .... RHF
 Total Charge           Charge          ....    0
 Multiplicity           Mult            ....    1
 Number of Electrons    NEL             ....   56
 Basis Dimension        Dim             ....  636
 Nuclear Repulsion      ENuc            ....    320.2546652278 Eh

Convergence Acceleration:
 DIIS                   CNVDIIS         .... on
   Start iteration      DIISMaxIt       ....    12
   Startup error        DIISStart       ....  0.200000
   # of expansion vecs  DIISMaxEq       ....     5
   Bias factor          DIISBfac        ....   1.050
   Max. coefficient     DIISMaxC        ....  10.000
 Trust-Rad. Augm. Hess. CNVTRAH         .... off
 SOSCF                  CNVSOSCF        .... on
   Start iteration      SOSCFMaxIt      ....   150
   Startup grad/error   SOSCFStart      ....  0.003300
 Level Shifting         CNVShift        .... on
   Level shift para.    LevelShift      ....    0.2500
   Turn off err/grad.   ShiftErr        ....    0.0010
 Zerner damping         CNVZerner       .... off
 Static damping         CNVDamp         .... on
   Fraction old density DampFac         ....    0.7000
   Max. Damping (<1)    DampMax         ....    0.9800
   Min. Damping (>=0)   DampMin         ....    0.0000
   Turn off err/grad.   DampErr         ....    0.1000
 Fernandez-Rico         CNVRico         .... off

SCF Procedure:
 Maximum # iterations   MaxIter         ....   125
 SCF integral mode      SCFMode         .... Direct
   Integral package                     .... SHARK and LIBINT hybrid scheme
 Reset frequency        DirectResetFreq ....    20
 Integral Threshold     Thresh          ....  2.500e-11 Eh
 Primitive CutOff       TCut            ....  2.500e-12 Eh

Convergence Tolerance:
 Convergence Check Mode ConvCheckMode   .... Total+1el-Energy
 Convergence forced     ConvForced      .... 0
 Energy Change          TolE            ....  1.000e-08 Eh
 1-El. energy change                    ....  1.000e-05 Eh
 Orbital Gradient       TolG            ....  1.000e-05
 Orbital Rotation angle TolX            ....  1.000e-05
 DIIS Error             TolErr          ....  5.000e-07


Diagonalization of the overlap matrix:
Smallest eigenvalue                        ... 6.756e-06
Time for diagonalization                   ...    0.317 sec
Threshold for overlap eigenvalues          ... 1.000e-08
Number of eigenvalues below threshold      ... 0
Time for construction of square roots      ...    0.138 sec
Total time needed                          ...    0.457 sec

Time for model grid setup =    2.027 sec

------------------------------
INITIAL GUESS: MODEL POTENTIAL
------------------------------
Loading Hartree-Fock densities                     ... done
Calculating cut-offs                               ... done
Initializing the effective Hamiltonian             ... done
Setting up the integral package (SHARK)            ... done
Starting the Coulomb interaction                   ... done (   4.9 sec)
Reading the grid                                   ... done
Mapping shells                                     ... done
Starting the XC term evaluation                    ... done (   6.9 sec)
  promolecular density results
     # of electrons  =     55.995658813
     EX              =    -45.917422734
     EC              =     -1.881935341
     EX+EC           =    -47.799358075
Transforming the Hamiltonian                       ... done (   0.1 sec)
Diagonalizing the Hamiltonian                      ... done (   0.2 sec)
Back transforming the eigenvectors                 ... done (   0.0 sec)
Now organizing SCF variables                       ... done
                      ------------------
                      INITIAL GUESS DONE (  14.3 sec)
                      ------------------
-------------------
DFT GRID GENERATION
-------------------

General Integration Accuracy     IntAcc      ... 4.388
Radial Grid Type                 RadialGrid  ... OptM3 with GC (2021)
Angular Grid (max. ang.)         AngularGrid ... 4 (Lebedev-302)
Angular grid pruning method      GridPruning ... 4 (adaptive)
Weight generation scheme         WeightScheme... Becke
Basis function cutoff            BFCut       ... 1.0000e-11
Integration weight cutoff        WCut        ... 1.0000e-14
Angular grids for H and He will be reduced by one unit
Partially contracted basis set               ... off
Rotationally invariant grid construction     ... off

Total number of grid points                  ...    69667
Total number of batches                      ...     1095
Average number of points per batch           ...       63
Average number of grid points per atom       ...     4976
Time for grid setup =    4.795 sec

--------------------
COSX GRID GENERATION
--------------------

GRIDX 1
-------
General Integration Accuracy     IntAcc      ... 3.816
Radial Grid Type                 RadialGrid  ... OptM3 with GC (2021)
Angular Grid (max. ang.)         AngularGrid ... 1 (Lebedev-50)
Angular grid pruning method      GridPruning ... 4 (adaptive)
Weight generation scheme         WeightScheme... Becke
Basis function cutoff            BFCut       ... 1.0000e-11
Integration weight cutoff        WCut        ... 1.0000e-14
Angular grids for H and He will be reduced by one unit
Partially contracted basis set               ... on
Rotationally invariant grid construction     ... off

Total number of grid points                  ...     8916
Total number of batches                      ...      146
Average number of points per batch           ...       61
Average number of grid points per atom       ...      637
UseSFitting                                  ... on

GRIDX 2
-------
General Integration Accuracy     IntAcc      ... 4.020
Radial Grid Type                 RadialGrid  ... OptM3 with GC (2021)
Angular Grid (max. ang.)         AngularGrid ... 2 (Lebedev-110)
Angular grid pruning method      GridPruning ... 4 (adaptive)
Weight generation scheme         WeightScheme... Becke
Basis function cutoff            BFCut       ... 1.0000e-11
Integration weight cutoff        WCut        ... 1.0000e-14
Angular grids for H and He will be reduced by one unit
Partially contracted basis set               ... on
Rotationally invariant grid construction     ... off

Total number of grid points                  ...    21562
Total number of batches                      ...      342
Average number of points per batch           ...       63
Average number of grid points per atom       ...     1540
UseSFitting                                  ... on

GRIDX 3
-------
General Integration Accuracy     IntAcc      ... 4.338
Radial Grid Type                 RadialGrid  ... OptM3 with GC (2021)
Angular Grid (max. ang.)         AngularGrid ... 3 (Lebedev-194)
Angular grid pruning method      GridPruning ... 4 (adaptive)
Weight generation scheme         WeightScheme... Becke
Basis function cutoff            BFCut       ... 1.0000e-11
Integration weight cutoff        WCut        ... 1.0000e-14
Angular grids for H and He will be reduced by one unit
Partially contracted basis set               ... on
Rotationally invariant grid construction     ... off

Total number of grid points                  ...    46656
Total number of batches                      ...      735
Average number of points per batch           ...       63
Average number of grid points per atom       ...     3333
UseSFitting                                  ... on

Time for X-Grid setup             =   12.483 sec


Warning: Fractional occupation numbers cannot be used with CNVRico or SOSCF

--------------
SCF ITERATIONS
--------------
ITER       Energy         Delta-E        Max-DP      RMS-DP      [F,P]     Damp
               ***  Starting incremental Fock matrix formation  ***
  0   -345.3063674933   0.000000000000 0.08512228  0.00044766  0.2978286 0.7000
  1   -345.4086443672  -0.102276873894 0.06501874  0.00035272  0.1092719 0.7000
                               ***Turning on DIIS***
  2   -345.4483393125  -0.039694945281 0.10911174  0.00061413  0.0365282 0.0000
  3   -345.5117930837  -0.063453771245 0.06477061  0.00029607  0.0397996 0.0000
  4   -345.5231623045  -0.011369220734 0.02999855  0.00016873  0.0169615 0.0000
  5   -345.5236003527  -0.000438048196 0.01039986  0.00006629  0.0148051 0.0000
  6   -345.5238664953  -0.000266142603 0.00502558  0.00003410  0.0026209 0.0000
  7   -345.5238780155  -0.000011520222 0.00272148  0.00001884  0.0008845 0.0000
               *** Restarting incremental Fock matrix formation ***
                                   *** Resetting DIIS ***
  8   -345.5238861043  -0.000008088859 0.00157411  0.00001606  0.0003299 0.0000
  9   -345.5238849120   0.000001192309 0.00042774  0.00000249  0.0005780 0.0000
 10   -345.5238866352  -0.000001723224 0.00002200  0.00000030  0.0000646 0.0000
 11   -345.5238866519  -0.000000016665 0.00005187  0.00000032  0.0000572 0.0000
 12   -345.5238866523  -0.000000000413 0.00002035  0.00000023  0.0000283 0.0000
 13   -345.5238866546  -0.000000002224 0.00006325  0.00000056  0.0000100 0.0000
 14   -345.5238866462   0.000000008335 0.00003058  0.00000029  0.0000014 0.0000
                 **** Energy Check signals convergence ****
Fermi smearing:E(HOMO(Eh)) = -0.265778 MUE = -0.165507 gap=   5.155 eV

N_FOD =  0.015258

               *****************************************************
               *                     SUCCESS                       *
               *           SCF CONVERGED AFTER  15 CYCLES          *
               *****************************************************

Fermi smearing:E(HOMO(Eh)) = -0.265778 MUE = -0.165507 gap=   5.155 eV

N_FOD =  0.015258
Old exchange energy                            =     -9.311971717 Eh
New exchange energy                            =     -9.311966205 Eh
Exchange energy change after final integration =      0.000005512 Eh
Total energy after final integration           =   -345.523881134 Eh
Final COS-X integration done in                =   343.813 sec

----------------
TOTAL SCF ENERGY
----------------

Total Energy       :         -345.52388113 Eh           -9402.18280 eV

Components:
Nuclear Repulsion  :          320.25466523 Eh            8714.57248 eV
Electronic Energy  :         -665.77854636 Eh          -18116.75528 eV
One Electron Energy:        -1101.24247146 Eh          -29966.33111 eV
Two Electron Energy:          435.46392510 Eh           11849.57582 eV
Max COSX asymmetry :            0.00000098 Eh               0.00003 eV

Virial components:
Potential Energy   :         -689.35548722 Eh          -18758.31646 eV
Kinetic Energy     :          343.83160608 Eh            9356.13366 eV
Virial Ratio       :            2.00492181


DFT components:
N(Alpha)           :       28.000009613402 electrons
N(Beta)            :       28.000009613402 electrons
N(Total)           :       56.000019226803 electrons
E(X)               :      -37.035867361372 Eh       
E(C)               :       -2.227114885778 Eh       
E(XC)              :      -39.262982247150 Eh       
DFET-embed. en.    :        0.000000000000 Eh       

---------------
SCF CONVERGENCE
---------------

  Last Energy change         ...   -2.6091e-11  Tolerance :   1.0000e-08
  Last MAX-Density change    ...    0.0000e+00  Tolerance :   1.0000e-07
  Last RMS-Density change    ...    0.0000e+00  Tolerance :   5.0000e-09
  Last DIIS Error            ...    3.0459e-07  Tolerance :   5.0000e-07

             **** THE GBW FILE WAS UPDATED (benzaldehyd_FOD.gbw) ****
             **** DENSITY benzaldehyd_FOD.scfp WAS UPDATED ****
             **** ENERGY FILE WAS UPDATED (benzaldehyd_FOD.en.tmp) ****
             **** THE GBW FILE WAS UPDATED (benzaldehyd_FOD.gbw) ****
             **** DENSITY benzaldehyd_FOD.scfp WAS UPDATED ****
----------------
ORBITAL ENERGIES
----------------

  NO   OCC          E(Eh)            E(eV) 
   0   2.0000     -19.126012      -520.4452 
   1   2.0000     -10.265397      -279.3357 
   2   2.0000     -10.202907      -277.6352 
   3   2.0000     -10.201569      -277.5988 
   4   2.0000     -10.199331      -277.5379 
   5   2.0000     -10.198024      -277.5024 
   6   2.0000     -10.197044      -277.4757 
   7   2.0000     -10.196456      -277.4597 
   8   2.0000      -1.050036       -28.5729 
   9   2.0000      -0.874230       -23.7890 
  10   2.0000      -0.777250       -21.1501 
  11   2.0000      -0.764257       -20.7965 
  12   2.0000      -0.657653       -17.8956 
  13   2.0000      -0.624187       -16.9850 
  14   2.0000      -0.579118       -15.7586 
  15   2.0000      -0.529280       -14.4024 
  16   2.0000      -0.490387       -13.3441 
  17   2.0000      -0.469009       -12.7624 
  18   2.0000      -0.447284       -12.1712 
  19   2.0000      -0.439148       -11.9498 
  20   2.0000      -0.434880       -11.8337 
  21   2.0000      -0.415536       -11.3073 
  22   2.0000      -0.375399       -10.2151 
  23   2.0000      -0.373963       -10.1761 
  24   2.0000      -0.361051        -9.8247 
  25   1.9982      -0.276284        -7.5181 
  26   1.9978      -0.273109        -7.4317 
  27   1.9965      -0.265778        -7.2322 
  28   0.0071      -0.076351        -2.0776 
  29   0.0004      -0.031944        -0.8692 
  30   0.0000       0.017938         0.4881 
  31   0.0000       0.018913         0.5147 
  32   0.0000       0.033849         0.9211 
  33   0.0000       0.049563         1.3487 
  34   0.0000       0.061887         1.6840 
  35   0.0000       0.075250         2.0476 
  36   0.0000       0.094539         2.5725 
  37   0.0000       0.095778         2.6063 
  38   0.0000       0.102701         2.7946 
  39   0.0000       0.118690         3.2297 
  40   0.0000       0.123978         3.3736 
  41   0.0000       0.147208         4.0057 
  42   0.0000       0.150724         4.1014 
  43   0.0000       0.161016         4.3815 
  44   0.0000       0.161252         4.3879 
  45   0.0000       0.166131         4.5207 
  46   0.0000       0.171035         4.6541 
  47   0.0000       0.195439         5.3182 
  48   0.0000       0.215146         5.8544 
  49   0.0000       0.218503         5.9458 
  50   0.0000       0.232879         6.3370 
  51   0.0000       0.240411         6.5419 
  52   0.0000       0.249538         6.7903 
  53   0.0000       0.258342         7.0298 
  54   0.0000       0.261767         7.1230 
  55   0.0000       0.270800         7.3688 
  56   0.0000       0.274598         7.4722 
  57   0.0000       0.284778         7.7492 
  58   0.0000       0.288839         7.8597 
  59   0.0000       0.291041         7.9196 
  60   0.0000       0.301918         8.2156 
  61   0.0000       0.316006         8.5990 
  62   0.0000       0.327035         8.8991 
  63   0.0000       0.333128         9.0649 
  64   0.0000       0.344584         9.3766 
  65   0.0000       0.364111         9.9080 
  66   0.0000       0.371294        10.1034 
  67   0.0000       0.372299        10.1308 
  68   0.0000       0.381091        10.3700 
  69   0.0000       0.389988        10.6121 
  70   0.0000       0.415133        11.2963 
  71   0.0000       0.425845        11.5878 
  72   0.0000       0.439328        11.9547 
  73   0.0000       0.446504        12.1500 
  74   0.0000       0.450508        12.2589 
  75   0.0000       0.459436        12.5019 
  76   0.0000       0.477502        12.9935 
  77   0.0000       0.479525        13.0485 
  78   0.0000       0.495683        13.4882 
  79   0.0000       0.503476        13.7003 
  80   0.0000       0.510901        13.9023 
  81   0.0000       0.517897        14.0927 
  82   0.0000       0.536270        14.5926 
  83   0.0000       0.537616        14.6293 
  84   0.0000       0.551570        15.0090 
  85   0.0000       0.565286        15.3822 
  86   0.0000       0.568619        15.4729 
  87   0.0000       0.597244        16.2518 
  88   0.0000       0.619494        16.8573 
  89   0.0000       0.619971        16.8703 
  90   0.0000       0.648208        17.6386 
  91   0.0000       0.663002        18.0412 
  92   0.0000       0.666059        18.1244 
  93   0.0000       0.687939        18.7198 
  94   0.0000       0.689919        18.7737 
  95   0.0000       0.692580        18.8461 
  96   0.0000       0.702613        19.1191 
  97   0.0000       0.708517        19.2797 
  98   0.0000       0.714327        19.4378 
  99   0.0000       0.733487        19.9592 
 100   0.0000       0.746759        20.3203 
 101   0.0000       0.748622        20.3711 
 102   0.0000       0.749432        20.3931 
 103   0.0000       0.756497        20.5853 
 104   0.0000       0.796219        21.6662 
 105   0.0000       0.804333        21.8870 
 106   0.0000       0.806699        21.9514 
 107   0.0000       0.811402        22.0794 
 108   0.0000       0.819530        22.3005 
 109   0.0000       0.828399        22.5419 
 110   0.0000       0.848586        23.0912 
 111   0.0000       0.852856        23.2074 
 112   0.0000       0.860888        23.4260 
 113   0.0000       0.878682        23.9101 
 114   0.0000       0.883827        24.0501 
 115   0.0000       0.892074        24.2746 
 116   0.0000       0.899253        24.4699 
 117   0.0000       0.906464        24.6661 
 118   0.0000       0.914375        24.8814 
 119   0.0000       0.926437        25.2096 
 120   0.0000       0.934588        25.4314 
 121   0.0000       0.955695        26.0058 
 122   0.0000       0.975107        26.5340 
 123   0.0000       0.981143        26.6982 
 124   0.0000       0.994699        27.0671 
 125   0.0000       1.005891        27.3717 
 126   0.0000       1.009821        27.4786 
 127   0.0000       1.016806        27.6687 
 128   0.0000       1.019597        27.7446 
 129   0.0000       1.026267        27.9261 
 130   0.0000       1.046613        28.4798 
 131   0.0000       1.068930        29.0871 
 132   0.0000       1.099638        29.9227 
 133   0.0000       1.114206        30.3191 
 134   0.0000       1.117315        30.4037 
 135   0.0000       1.129988        30.7485 
 136   0.0000       1.130905        30.7735 
 137   0.0000       1.143129        31.1061 
 138   0.0000       1.146471        31.1971 
 139   0.0000       1.153621        31.3916 
 140   0.0000       1.223909        33.3042 
 141   0.0000       1.232674        33.5428 
 142   0.0000       1.233574        33.5672 
 143   0.0000       1.239039        33.7160 
 144   0.0000       1.267315        34.4854 
 145   0.0000       1.278992        34.8031 
 146   0.0000       1.303570        35.4719 
 147   0.0000       1.332800        36.2673 
 148   0.0000       1.352634        36.8071 
 149   0.0000       1.371225        37.3129 
 150   0.0000       1.382807        37.6281 
 151   0.0000       1.393769        37.9264 
 152   0.0000       1.428162        38.8623 
 153   0.0000       1.430860        38.9357 
 154   0.0000       1.456238        39.6262 
 155   0.0000       1.456951        39.6457 
 156   0.0000       1.511111        41.1194 
 157   0.0000       1.513416        41.1822 
 158   0.0000       1.528264        41.5862 
 159   0.0000       1.556379        42.3512 
 160   0.0000       1.558691        42.4141 
 161   0.0000       1.563363        42.5413 
 162   0.0000       1.573306        42.8118 
 163   0.0000       1.589615        43.2556 
 164   0.0000       1.609203        43.7886 
 165   0.0000       1.628530        44.3146 
 166   0.0000       1.634549        44.4783 
 167   0.0000       1.639489        44.6128 
 168   0.0000       1.670498        45.4566 
 169   0.0000       1.679713        45.7073 
 170   0.0000       1.686485        45.8916 
 171   0.0000       1.729396        47.0593 
 172   0.0000       1.733772        47.1783 
 173   0.0000       1.749145        47.5967 
 174   0.0000       1.749975        47.6192 
 175   0.0000       1.790747        48.7287 
 176   0.0000       1.792759        48.7834 
 177   0.0000       1.793262        48.7971 
 178   0.0000       1.809825        49.2479 
 179   0.0000       1.821138        49.5557 
 180   0.0000       1.829333        49.7787 
 181   0.0000       1.844601        50.1941 
 182   0.0000       1.855810        50.4992 
 183   0.0000       1.890309        51.4379 
 184   0.0000       1.898807        51.6692 
 185   0.0000       1.905948        51.8635 
 186   0.0000       1.925848        52.4050 
 187   0.0000       1.929637        52.5081 
 188   0.0000       1.930785        52.5393 
 189   0.0000       1.940537        52.8047 
 190   0.0000       1.946161        52.9577 
 191   0.0000       1.959184        53.3121 
 192   0.0000       1.972072        53.6628 
 193   0.0000       1.977625        53.8139 
 194   0.0000       1.996785        54.3353 
 195   0.0000       1.997401        54.3520 
 196   0.0000       2.024635        55.0931 
 197   0.0000       2.036224        55.4085 
 198   0.0000       2.037777        55.4507 
 199   0.0000       2.064124        56.1677 
 200   0.0000       2.082168        56.6587 
 201   0.0000       2.083409        56.6924 
 202   0.0000       2.098351        57.0990 
 203   0.0000       2.104761        57.2735 
 204   0.0000       2.132022        58.0153 
 205   0.0000       2.136309        58.1319 
 206   0.0000       2.149945        58.5030 
 207   0.0000       2.157805        58.7169 
 208   0.0000       2.163736        58.8783 
 209   0.0000       2.188692        59.5573 
 210   0.0000       2.193024        59.6752 
 211   0.0000       2.215698        60.2922 
 212   0.0000       2.228176        60.6317 
 213   0.0000       2.230335        60.6905 
 214   0.0000       2.246442        61.1288 
 215   0.0000       2.249306        61.2067 
 216   0.0000       2.266007        61.6612 
 217   0.0000       2.273027        61.8522 
 218   0.0000       2.280559        62.0572 
 219   0.0000       2.301179        62.6183 
 220   0.0000       2.317459        63.0613 
 221   0.0000       2.348488        63.9056 
 222   0.0000       2.353403        64.0393 
 223   0.0000       2.353726        64.0481 
 224   0.0000       2.382534        64.8320 
 225   0.0000       2.387871        64.9773 
 226   0.0000       2.402208        65.3674 
 227   0.0000       2.413318        65.6697 
 228   0.0000       2.423408        65.9443 
 229   0.0000       2.438894        66.3657 
 230   0.0000       2.439431        66.3803 
 231   0.0000       2.457190        66.8635 
 232   0.0000       2.459604        66.9292 
 233   0.0000       2.483357        67.5756 
 234   0.0000       2.499404        68.0122 
 235   0.0000       2.500263        68.0356 
 236   0.0000       2.515992        68.4636 
 237   0.0000       2.519688        68.5642 
 238   0.0000       2.536083        69.0103 
 239   0.0000       2.539399        69.1006 
 240   0.0000       2.540378        69.1272 
 241   0.0000       2.548569        69.3501 
 242   0.0000       2.558469        69.6195 
 243   0.0000       2.593886        70.5832 
 244   0.0000       2.609994        71.0215 
 245   0.0000       2.618211        71.2451 
 246   0.0000       2.618690        71.2582 
 247   0.0000       2.625131        71.4334 
 248   0.0000       2.642089        71.8949 
 249   0.0000       2.648686        72.0744 
 250   0.0000       2.670034        72.6553 
 251   0.0000       2.683635        73.0254 
 252   0.0000       2.697051        73.3905 
 253   0.0000       2.715777        73.9001 
 254   0.0000       2.731880        74.3382 
 255   0.0000       2.745864        74.7188 
 256   0.0000       2.748842        74.7998 
 257   0.0000       2.768500        75.3347 
 258   0.0000       2.779240        75.6270 
 259   0.0000       2.783352        75.7388 
 260   0.0000       2.789310        75.9010 
 261   0.0000       2.802751        76.2667 
 262   0.0000       2.827869        76.9502 
 263   0.0000       2.847753        77.4913 
 264   0.0000       2.870805        78.1186 
 265   0.0000       2.890299        78.6490 
 266   0.0000       2.934591        79.8543 
 267   0.0000       2.948514        80.2331 
 268   0.0000       2.948678        80.2376 
 269   0.0000       2.986848        81.2763 
 270   0.0000       2.997625        81.5695 
 271   0.0000       3.010760        81.9269 
 272   0.0000       3.036974        82.6403 
 273   0.0000       3.078633        83.7739 
 274   0.0000       3.095801        84.2410 
 275   0.0000       3.104176        84.4689 
 276   0.0000       3.106009        84.5188 
 277   0.0000       3.154054        85.8262 
 278   0.0000       3.164821        86.1191 
 279   0.0000       3.177722        86.4702 
 280   0.0000       3.203596        87.1743 
 281   0.0000       3.226939        87.8095 
 282   0.0000       3.233435        87.9862 
 283   0.0000       3.267588        88.9156 
 284   0.0000       3.312192        90.1293 
 285   0.0000       3.329324        90.5955 
 286   0.0000       3.331134        90.6448 
 287   0.0000       3.350008        91.1583 
 288   0.0000       3.359301        91.4112 
 289   0.0000       3.371932        91.7549 
 290   0.0000       3.402810        92.5952 
 291   0.0000       3.404205        92.6331 
 292   0.0000       3.428912        93.3054 
 293   0.0000       3.431609        93.3788 
 294   0.0000       3.452760        93.9544 
 295   0.0000       3.471626        94.4678 
 296   0.0000       3.486499        94.8725 
 297   0.0000       3.494783        95.0979 
 298   0.0000       3.512493        95.5798 
 299   0.0000       3.541395        96.3663 
 300   0.0000       3.565499        97.0222 
 301   0.0000       3.588534        97.6490 
 302   0.0000       3.610515        98.2471 
 303   0.0000       3.629596        98.7663 
 304   0.0000       3.689299       100.3909 
 305   0.0000       3.696616       100.5900 
 306   0.0000       3.706350       100.8549 
 307   0.0000       3.772466       102.6540 
 308   0.0000       3.782470       102.9262 
 309   0.0000       3.815819       103.8337 
 310   0.0000       3.832739       104.2941 
 311   0.0000       3.886275       105.7509 
 312   0.0000       3.902729       106.1987 
 313   0.0000       3.918275       106.6217 
 314   0.0000       3.937956       107.1572 
 315   0.0000       3.979191       108.2793 
 316   0.0000       4.023840       109.4943 
 317   0.0000       4.048345       110.1611 
 318   0.0000       4.078183       110.9730 
 319   0.0000       4.081525       111.0639 
 320   0.0000       4.111479       111.8790 
 321   0.0000       4.134253       112.4987 
 322   0.0000       4.139174       112.6327 
 323   0.0000       4.168852       113.4402 
 324   0.0000       4.205435       114.4357 
 325   0.0000       4.259026       115.8940 
 326   0.0000       4.286673       116.6463 
 327   0.0000       4.300881       117.0329 
 328   0.0000       4.330472       117.8381 
 329   0.0000       4.454532       121.2140 
 330   0.0000       4.483542       122.0034 
 331   0.0000       4.490738       122.1992 
 332   0.0000       4.502060       122.5073 
 333   0.0000       4.522847       123.0729 
 334   0.0000       4.547220       123.7361 
 335   0.0000       4.622218       125.7770 
 336   0.0000       4.663291       126.8946 
 337   0.0000       4.721378       128.4752 
 338   0.0000       4.722369       128.5022 
 339   0.0000       4.741269       129.0165 
 340   0.0000       4.778194       130.0213 
 341   0.0000       4.824622       131.2846 
 342   0.0000       4.841122       131.7336 
 343   0.0000       4.856982       132.1652 
 344   0.0000       4.859263       132.2273 
 345   0.0000       4.921107       133.9101 
 346   0.0000       4.926499       134.0568 
 347   0.0000       4.959758       134.9619 
 348   0.0000       4.991460       135.8245 
 349   0.0000       4.997057       135.9768 
 350   0.0000       5.001886       136.1082 
 351   0.0000       5.022857       136.6789 
 352   0.0000       5.051862       137.4681 
 353   0.0000       5.061250       137.7236 
 354   0.0000       5.089339       138.4880 
 355   0.0000       5.127888       139.5369 
 356   0.0000       5.154473       140.2603 
 357   0.0000       5.167703       140.6203 
 358   0.0000       5.174840       140.8146 
 359   0.0000       5.204894       141.6324 
 360   0.0000       5.208835       141.7396 
 361   0.0000       5.229002       142.2884 
 362   0.0000       5.229092       142.2908 
 363   0.0000       5.247866       142.8017 
 364   0.0000       5.290663       143.9663 
 365   0.0000       5.321065       144.7935 
 366   0.0000       5.340913       145.3336 
 367   0.0000       5.356384       145.7546 
 368   0.0000       5.373041       146.2079 
 369   0.0000       5.379288       146.3779 
 370   0.0000       5.384099       146.5088 
 371   0.0000       5.427736       147.6962 
 372   0.0000       5.456385       148.4758 
 373   0.0000       5.476377       149.0198 
 374   0.0000       5.480099       149.1211 
 375   0.0000       5.511127       149.9654 
 376   0.0000       5.521673       150.2523 
 377   0.0000       5.539512       150.7378 
 378   0.0000       5.555158       151.1635 
 379   0.0000       5.576726       151.7504 
 380   0.0000       5.586032       152.0037 
 381   0.0000       5.598805       152.3512 
 382   0.0000       5.658132       153.9656 
 383   0.0000       5.670752       154.3090 
 384   0.0000       5.689120       154.8088 
 385   0.0000       5.718966       155.6210 
 386   0.0000       5.729929       155.9193 
 387   0.0000       5.756388       156.6393 
 388   0.0000       5.779545       157.2694 
 389   0.0000       5.801789       157.8747 
 390   0.0000       5.819838       158.3658 
 391   0.0000       5.836387       158.8162 
 392   0.0000       5.841268       158.9490 
 393   0.0000       5.862076       159.5152 
 394   0.0000       5.867547       159.6641 
 395   0.0000       5.885870       160.1627 
 396   0.0000       5.886954       160.1922 
 397   0.0000       5.900920       160.5722 
 398   0.0000       5.936512       161.5407 
 399   0.0000       5.945529       161.7861 
 400   0.0000       5.954218       162.0225 
 401   0.0000       5.962036       162.2353 
 402   0.0000       5.979794       162.7185 
 403   0.0000       5.991599       163.0397 
 404   0.0000       6.001498       163.3091 
 405   0.0000       6.027581       164.0188 
 406   0.0000       6.033521       164.1805 
 407   0.0000       6.042585       164.4271 
 408   0.0000       6.056761       164.8128 
 409   0.0000       6.062018       164.9559 
 410   0.0000       6.085883       165.6053 
 411   0.0000       6.106558       166.1679 
 412   0.0000       6.113425       166.3548 
 413   0.0000       6.128909       166.7761 
 414   0.0000       6.129436       166.7904 
 415   0.0000       6.138864       167.0470 
 416   0.0000       6.153949       167.4575 
 417   0.0000       6.177121       168.0880 
 418   0.0000       6.191012       168.4660 
 419   0.0000       6.195387       168.5850 
 420   0.0000       6.208655       168.9461 
 421   0.0000       6.209688       168.9742 
 422   0.0000       6.222284       169.3170 
 423   0.0000       6.240355       169.8087 
 424   0.0000       6.248652       170.0345 
 425   0.0000       6.258559       170.3041 
 426   0.0000       6.269978       170.6148 
 427   0.0000       6.290547       171.1745 
 428   0.0000       6.301946       171.4847 
 429   0.0000       6.305468       171.5805 
 430   0.0000       6.316588       171.8831 
 431   0.0000       6.324966       172.1111 
 432   0.0000       6.358720       173.0296 
 433   0.0000       6.385366       173.7546 
 434   0.0000       6.407014       174.3437 
 435   0.0000       6.407448       174.3555 
 436   0.0000       6.421174       174.7290 
 437   0.0000       6.428493       174.9282 
 438   0.0000       6.439958       175.2402 
 439   0.0000       6.448170       175.4636 
 440   0.0000       6.489099       176.5774 
 441   0.0000       6.533602       177.7884 
 442   0.0000       6.536482       177.8667 
 443   0.0000       6.543384       178.0545 
 444   0.0000       6.554330       178.3524 
 445   0.0000       6.561572       178.5494 
 446   0.0000       6.563101       178.5911 
 447   0.0000       6.600354       179.6048 
 448   0.0000       6.605209       179.7369 
 449   0.0000       6.607345       179.7950 
 450   0.0000       6.614657       179.9940 
 451   0.0000       6.635798       180.5692 
 452   0.0000       6.656189       181.1241 
 453   0.0000       6.661295       181.2630 
 454   0.0000       6.688810       182.0118 
 455   0.0000       6.700331       182.3253 
 456   0.0000       6.715546       182.7393 
 457   0.0000       6.737558       183.3383 
 458   0.0000       6.774838       184.3527 
 459   0.0000       6.791416       184.8038 
 460   0.0000       6.806206       185.2063 
 461   0.0000       6.841441       186.1651 
 462   0.0000       6.861123       186.7006 
 463   0.0000       6.906126       187.9252 
 464   0.0000       6.922853       188.3804 
 465   0.0000       6.931135       188.6058 
 466   0.0000       6.937601       188.7817 
 467   0.0000       6.943259       188.9357 
 468   0.0000       7.015917       190.9128 
 469   0.0000       7.022645       191.0959 
 470   0.0000       7.029530       191.2832 
 471   0.0000       7.030974       191.3225 
 472   0.0000       7.087970       192.8735 
 473   0.0000       7.122692       193.8183 
 474   0.0000       7.131094       194.0469 
 475   0.0000       7.162471       194.9007 
 476   0.0000       7.228535       196.6984 
 477   0.0000       7.262219       197.6150 
 478   0.0000       7.310444       198.9273 
 479   0.0000       7.311358       198.9522 
 480   0.0000       7.324319       199.3049 
 481   0.0000       7.343174       199.8179 
 482   0.0000       7.380996       200.8471 
 483   0.0000       7.396739       201.2755 
 484   0.0000       7.419333       201.8903 
 485   0.0000       7.428328       202.1351 
 486   0.0000       7.435655       202.3345 
 487   0.0000       7.441552       202.4949 
 488   0.0000       7.467738       203.2075 
 489   0.0000       7.490665       203.8313 
 490   0.0000       7.501242       204.1192 
 491   0.0000       7.508063       204.3048 
 492   0.0000       7.519167       204.6069 
 493   0.0000       7.531863       204.9524 
 494   0.0000       7.553275       205.5351 
 495   0.0000       7.561686       205.7639 
 496   0.0000       7.630019       207.6234 
 497   0.0000       7.652392       208.2322 
 498   0.0000       7.658634       208.4020 
 499   0.0000       7.698396       209.4840 
 500   0.0000       7.721962       210.1253 
 501   0.0000       7.746097       210.7820 
 502   0.0000       7.770977       211.4590 
 503   0.0000       7.813508       212.6164 
 504   0.0000       7.837139       213.2594 
 505   0.0000       7.852017       213.6642 
 506   0.0000       7.869639       214.1438 
 507   0.0000       7.896534       214.8756 
 508   0.0000       7.914586       215.3668 
 509   0.0000       7.926741       215.6976 
 510   0.0000       7.944044       216.1684 
 511   0.0000       7.965191       216.7439 
 512   0.0000       8.009335       217.9451 
 513   0.0000       8.036590       218.6867 
 514   0.0000       8.054496       219.1740 
 515   0.0000       8.086567       220.0467 
 516   0.0000       8.098640       220.3752 
 517   0.0000       8.105670       220.5665 
 518   0.0000       8.122622       221.0278 
 519   0.0000       8.134714       221.3568 
 520   0.0000       8.154105       221.8845 
 521   0.0000       8.171571       222.3598 
 522   0.0000       8.189230       222.8403 
 523   0.0000       8.211378       223.4430 
 524   0.0000       8.242469       224.2890 
 525   0.0000       8.250495       224.5074 
 526   0.0000       8.259108       224.7418 
 527   0.0000       8.259264       224.7460 
 528   0.0000       8.272825       225.1150 
 529   0.0000       8.303820       225.9584 
 530   0.0000       8.305969       226.0169 
 531   0.0000       8.347548       227.1483 
 532   0.0000       8.350563       227.2304 
 533   0.0000       8.352197       227.2748 
 534   0.0000       8.368245       227.7115 
 535   0.0000       8.372617       227.8305 
 536   0.0000       8.417527       229.0526 
 537   0.0000       8.421147       229.1511 
 538   0.0000       8.429979       229.3914 
 539   0.0000       8.441611       229.7079 
 540   0.0000       8.490330       231.0336 
 541   0.0000       8.497073       231.2171 
 542   0.0000       8.500784       231.3181 
 543   0.0000       8.541183       232.4174 
 544   0.0000       8.595055       233.8833 
 545   0.0000       8.607467       234.2211 
 546   0.0000       8.628586       234.7958 
 547   0.0000       8.646931       235.2949 
 548   0.0000       8.659211       235.6291 
 549   0.0000       8.704986       236.8747 
 550   0.0000       8.734093       237.6667 
 551   0.0000       8.738083       237.7753 
 552   0.0000       8.792809       239.2645 
 553   0.0000       8.815872       239.8921 
 554   0.0000       8.856057       240.9856 
 555   0.0000       8.865571       241.2445 
 556   0.0000       8.876097       241.5309 
 557   0.0000       8.909492       242.4396 
 558   0.0000       8.934450       243.1187 
 559   0.0000       8.935316       243.1423 
 560   0.0000       9.005545       245.0534 
 561   0.0000       9.044986       246.1266 
 562   0.0000       9.129827       248.4352 
 563   0.0000       9.138410       248.6688 
 564   0.0000       9.338081       254.1021 
 565   0.0000       9.377028       255.1619 
 566   0.0000       9.447883       257.0900 
 567   0.0000       9.474746       257.8209 
 568   0.0000       9.527450       259.2551 
 569   0.0000       9.576227       260.5824 
 570   0.0000       9.603374       261.3211 
 571   0.0000       9.633120       262.1305 
 572   0.0000       9.646417       262.4924 
 573   0.0000       9.686086       263.5718 
 574   0.0000       9.693743       263.7801 
 575   0.0000       9.699157       263.9275 
 576   0.0000       9.736866       264.9536 
 577   0.0000       9.759851       265.5791 
 578   0.0000       9.774591       265.9801 
 579   0.0000       9.821477       267.2560 
 580   0.0000       9.835715       267.6434 
 581   0.0000       9.951514       270.7945 
 582   0.0000       9.968298       271.2512 
 583   0.0000      10.020297       272.6661 
 584   0.0000      10.036393       273.1041 
 585   0.0000      10.043595       273.3001 
 586   0.0000      10.072701       274.0921 
 587   0.0000      10.133346       275.7424 
 588   0.0000      10.192554       277.3535 
 589   0.0000      10.211815       277.8776 
 590   0.0000      10.232700       278.4459 
 591   0.0000      10.284327       279.8508 
 592   0.0000      10.304031       280.3869 
 593   0.0000      10.465102       284.7699 
 594   0.0000      10.637474       289.4604 
 595   0.0000      10.647487       289.7328 
 596   0.0000      10.665182       290.2144 
 597   0.0000      10.854562       295.3676 
 598   0.0000      10.870397       295.7985 
 599   0.0000      10.978224       298.7327 
 600   0.0000      11.014649       299.7238 
 601   0.0000      11.105455       302.1948 
 602   0.0000      11.426917       310.9422 
 603   0.0000      11.560958       314.5897 
 604   0.0000      11.648116       316.9614 
 605   0.0000      11.806748       321.2780 
 606   0.0000      11.878461       323.2294 
 607   0.0000      12.065744       328.3256 
 608   0.0000      12.107181       329.4531 
 609   0.0000      12.121594       329.8454 
 610   0.0000      12.282646       334.2278 
 611   0.0000      12.375581       336.7567 
 612   0.0000      12.555538       341.6536 
 613   0.0000      12.669484       344.7542 
 614   0.0000      12.848707       349.6311 
 615   0.0000      13.095859       356.3564 
 616   0.0000      13.126958       357.2027 
 617   0.0000      13.506779       367.5381 
 618   0.0000      14.134010       384.6060 
 619   0.0000      14.464720       393.6050 
 620   0.0000      27.834760       757.4223 
 621   0.0000      28.315244       770.4970 
 622   0.0000      28.463636       774.5349 
 623   0.0000      28.492365       775.3167 
 624   0.0000      28.854076       785.1593 
 625   0.0000      28.954695       787.8973 
 626   0.0000      29.273389       796.5694 
 627   0.0000      48.159757      1310.4936 
 628   0.0000     146.907809      3997.5647 
 629   0.0000     147.364817      4010.0005 
 630   0.0000     147.488536      4013.3671 
 631   0.0000     147.510299      4013.9593 
 632   0.0000     147.855721      4023.3587 
 633   0.0000     147.958162      4026.1463 
 634   0.0000     148.302458      4035.5150 
 635   0.0000     253.190321      6889.6589 

                    ********************************
                    * MULLIKEN POPULATION ANALYSIS *
                    ********************************

------------------------------------------
FOD BASED MULLIKEN REDUCED ORBITAL CHARGES
------------------------------------------
  0 C s       :     0.000038  s :     0.000038
      pz      :     0.001186  p :     0.001431
      px      :     0.000004
      py      :     0.000242
      dz2     :    -0.000003  d :     0.000188
      dxz     :     0.000048
      dyz     :     0.000141
      dx2y2   :     0.000002
      dxy     :     0.000000
      f0      :     0.000001  f :     0.000014
      f+1     :    -0.000000
      f-1     :    -0.000000
      f+2     :     0.000009
      f-2     :     0.000004
      f+3     :     0.000000
      f-3     :     0.000001
      g0      :    -0.000000  g :     0.000001
      g+1     :     0.000000
      g-1     :     0.000000
      g+2     :     0.000000
      g-2     :     0.000000
      g+3     :     0.000000
      g-3     :     0.000000
      g+4     :     0.000000
      g-4     :     0.000000
  1 C s       :    -0.000003  s :    -0.000003
      pz      :     0.001531  p :     0.001582
      px      :     0.000022
      py      :     0.000029
      dz2     :    -0.000000  d :     0.000070
      dxz     :     0.000021
      dyz     :     0.000040
      dx2y2   :     0.000004
      dxy     :     0.000004
      f0      :     0.000001  f :     0.000008
      f+1     :     0.000000
      f-1     :    -0.000000
      f+2     :     0.000002
      f-2     :     0.000003
      f+3     :     0.000002
      f-3     :    -0.000000
      g0      :    -0.000000  g :     0.000000
      g+1     :     0.000000
      g-1     :     0.000000
      g+2     :     0.000000
      g-2     :     0.000000
      g+3     :     0.000000
      g-3     :     0.000000
      g+4     :    -0.000000
      g-4     :     0.000000
  2 C s       :    -0.000003  s :    -0.000003
      pz      :     0.000715  p :     0.000720
      px      :    -0.000001
      py      :     0.000006
      dz2     :     0.000000  d :     0.000149
      dxz     :     0.000051
      dyz     :     0.000098
      dx2y2   :     0.000000
      dxy     :    -0.000001
      f0      :     0.000001  f :     0.000010
      f+1     :     0.000000
      f-1     :     0.000000
      f+2     :     0.000008
      f-2     :     0.000001
      f+3     :     0.000000
      f-3     :    -0.000000
      g0      :    -0.000000  g :     0.000001
      g+1     :     0.000000
      g-1     :     0.000000
      g+2     :     0.000000
      g-2     :     0.000000
      g+3     :     0.000000
      g-3     :     0.000000
      g+4     :     0.000000
      g-4     :     0.000000
  3 C s       :    -0.000008  s :    -0.000008
      pz      :     0.001743  p :     0.001743
      px      :     0.000003
      py      :    -0.000004
      dz2     :    -0.000000  d :     0.000064
      dxz     :     0.000043
      dyz     :     0.000019
      dx2y2   :     0.000001
      dxy     :    -0.000000
      f0      :     0.000002  f :     0.000006
      f+1     :    -0.000000
      f-1     :     0.000000
      f+2     :     0.000000
      f-2     :     0.000003
      f+3     :     0.000000
      f-3     :     0.000000
      g0      :    -0.000000  g :     0.000000
      g+1     :     0.000000
      g-1     :     0.000000
      g+2     :     0.000000
      g-2     :     0.000000
      g+3     :     0.000000
      g-3     :     0.000000
      g+4     :     0.000000
      g-4     :     0.000000
  4 C s       :    -0.000005  s :    -0.000005
      pz      :     0.000921  p :     0.000923
      px      :    -0.000004
      py      :     0.000006
      dz2     :    -0.000000  d :     0.000128
      dxz     :     0.000032
      dyz     :     0.000092
      dx2y2   :     0.000000
      dxy     :     0.000004
      f0      :     0.000001  f :     0.000009
      f+1     :     0.000000
      f-1     :     0.000000
      f+2     :     0.000004
      f-2     :     0.000003
      f+3     :     0.000000
      f-3     :     0.000000
      g0      :    -0.000000  g :     0.000001
      g+1     :     0.000000
      g-1     :     0.000000
      g+2     :     0.000000
      g-2     :     0.000000
      g+3     :     0.000000
      g-3     :     0.000000
      g+4     :     0.000000
      g-4     :     0.000000
  5 C s       :    -0.000008  s :    -0.000008
      pz      :     0.001171  p :     0.001200
      px      :     0.000022
      py      :     0.000008
      dz2     :    -0.000000  d :     0.000105
      dxz     :     0.000038
      dyz     :     0.000065
      dx2y2   :     0.000003
      dxy     :    -0.000001
      f0      :     0.000001  f :     0.000007
      f+1     :     0.000000
      f-1     :    -0.000000
      f+2     :     0.000004
      f-2     :     0.000002
      f+3     :     0.000001
      f-3     :     0.000000
      g0      :    -0.000000  g :     0.000001
      g+1     :     0.000000
      g-1     :     0.000000
      g+2     :     0.000000
      g-2     :    -0.000000
      g+3     :     0.000000
      g-3     :     0.000000
      g+4     :     0.000000
      g-4     :     0.000000
  6 H s       :     0.000015  s :     0.000015
      pz      :     0.000044  p :     0.000048
      px      :     0.000000
      py      :     0.000004
      dz2     :     0.000000  d :     0.000005
      dxz     :     0.000003
      dyz     :     0.000001
      dx2y2   :     0.000000
      dxy     :     0.000000
      f0      :     0.000000  f :     0.000000
      f+1     :    -0.000000
      f-1     :     0.000000
      f+2     :     0.000000
      f-2     :     0.000000
      f+3     :    -0.000000
      f-3     :     0.000000
  7 H s       :     0.000024  s :     0.000024
      pz      :     0.000019  p :     0.000019
      px      :     0.000000
      py      :    -0.000000
      dz2     :    -0.000000  d :     0.000003
      dxz     :     0.000001
      dyz     :     0.000001
      dx2y2   :     0.000000
      dxy     :     0.000000
      f0      :     0.000000  f :     0.000000
      f+1     :     0.000000
      f-1     :     0.000000
      f+2     :     0.000000
      f-2     :     0.000000
      f+3     :    -0.000000
      f-3     :     0.000000
  8 H s       :     0.000014  s :     0.000014
      pz      :     0.000061  p :     0.000061
      px      :     0.000000
      py      :     0.000000
      dz2     :     0.000000  d :     0.000006
      dxz     :     0.000000
      dyz     :     0.000006
      dx2y2   :    -0.000000
      dxy     :     0.000000
      f0      :     0.000000  f :     0.000000
      f+1     :     0.000000
      f-1     :     0.000000
      f+2     :     0.000000
      f-2     :     0.000000
      f+3     :     0.000000
      f-3     :    -0.000000
  9 H s       :     0.000026  s :     0.000026
      pz      :     0.000023  p :     0.000023
      px      :     0.000000
      py      :    -0.000000
      dz2     :    -0.000000  d :     0.000003
      dxz     :     0.000002
      dyz     :     0.000001
      dx2y2   :     0.000000
      dxy     :    -0.000000
      f0      :     0.000000  f :     0.000000
      f+1     :     0.000000
      f-1     :    -0.000000
      f+2     :     0.000000
      f-2     :     0.000000
      f+3     :     0.000000
      f-3     :     0.000000
 10 H s       :     0.000018  s :     0.000018
      pz      :     0.000028  p :     0.000030
      px      :     0.000001
      py      :     0.000001
      dz2     :    -0.000000  d :     0.000004
      dxz     :     0.000002
      dyz     :     0.000002
      dx2y2   :     0.000000
      dxy     :     0.000000
      f0      :     0.000000  f :     0.000000
      f+1     :     0.000000
      f-1     :     0.000000
      f+2     :     0.000000
      f-2     :     0.000000
      f+3     :     0.000000
      f-3     :     0.000000
 11 C s       :     0.000034  s :     0.000034
      pz      :     0.001779  p :     0.001888
      px      :     0.000028
      py      :     0.000080
      dz2     :     0.000001  d :     0.000283
      dxz     :     0.000078
      dyz     :     0.000076
      dx2y2   :     0.000097
      dxy     :     0.000030
      f0      :     0.000002  f :     0.000020
      f+1     :     0.000000
      f-1     :     0.000000
      f+2     :     0.000007
      f-2     :     0.000002
      f+3     :     0.000009
      f-3     :    -0.000000
      g0      :    -0.000000  g :     0.000002
      g+1     :     0.000000
      g-1     :     0.000000
      g+2     :     0.000000
      g-2     :     0.000000
      g+3     :     0.000000
      g-3     :     0.000000
      g+4     :     0.000000
      g-4     :     0.000000
 12 O s       :     0.000000  s :     0.000000
      pz      :     0.001428  p :     0.003812
      px      :     0.000582
      py      :     0.001802
      dz2     :     0.000000  d :     0.000006
      dxz     :     0.000008
      dyz     :     0.000002
      dx2y2   :    -0.000003
      dxy     :    -0.000001
      f0      :     0.000001  f :     0.000001
      f+1     :     0.000000
      f-1     :     0.000000
      f+2     :     0.000000
      f-2     :     0.000001
      f+3     :    -0.000000
      f-3     :     0.000000
      g0      :     0.000000  g :     0.000000
      g+1     :     0.000000
      g-1     :     0.000000
      g+2     :    -0.000000
      g-2     :    -0.000000
      g+3     :     0.000000
      g-3     :     0.000000
      g+4     :    -0.000000
      g-4     :    -0.000000
 13 H s       :     0.000465  s :     0.000465
      pz      :     0.000068  p :     0.000070
      px      :     0.000002
      py      :     0.000000
      dz2     :     0.000000  d :     0.000007
      dxz     :     0.000003
      dyz     :     0.000003
      dx2y2   :     0.000000
      dxy     :     0.000000
      f0      :     0.000000  f :     0.000000
      f+1     :     0.000000
      f-1     :    -0.000000
      f+2     :     0.000000
      f-2     :     0.000000
      f+3     :     0.000000
      f-3     :     0.000000


                     *******************************
                     * LOEWDIN POPULATION ANALYSIS *
                     *******************************

----------------------
LOEWDIN ATOMIC CHARGES
----------------------
   0 C :   -0.130309
   1 C :    0.103555
   2 C :    0.072327
   3 C :    0.077799
   4 C :    0.068720
   5 C :    0.085313
   6 H :   -0.043072
   7 H :   -0.053670
   8 H :   -0.052697
   9 H :   -0.054667
  10 H :   -0.048687
  11 C :   -0.306478
  12 O :    0.350466
  13 H :   -0.068602

-------------------------------
LOEWDIN REDUCED ORBITAL CHARGES
-------------------------------
  0 C s       :     2.589040  s :     2.589040
      pz      :     0.784169  p :     2.757209
      px      :     1.003399
      py      :     0.969641
      dz2     :     0.052356  d :     0.621537
      dxz     :     0.097229
      dyz     :     0.056274
      dx2y2   :     0.226752
      dxy     :     0.188926
      f0      :     0.010017  f :     0.148481
      f+1     :     0.008502
      f-1     :     0.009438
      f+2     :     0.009957
      f-2     :     0.021474
      f+3     :     0.064716
      f-3     :     0.024377
      g0      :     0.000416  g :     0.014041
      g+1     :     0.001480
      g-1     :     0.000911
      g+2     :     0.001438
      g-2     :     0.001364
      g+3     :     0.000165
      g-3     :     0.001237
      g+4     :     0.003698
      g-4     :     0.003332
  1 C s       :     2.590134  s :     2.590134
      pz      :     0.735231  p :     2.685298
      px      :     0.957627
      py      :     0.992440
      dz2     :     0.038666  d :     0.496805
      dxz     :     0.033900
      dyz     :     0.081016
      dx2y2   :     0.160251
      dxy     :     0.182973
      f0      :     0.006297  f :     0.112828
      f+1     :     0.006704
      f-1     :     0.007666
      f+2     :     0.013931
      f-2     :     0.012325
      f+3     :     0.046535
      f-3     :     0.019369
      g0      :     0.000367  g :     0.011380
      g+1     :     0.000776
      g-1     :     0.001363
      g+2     :     0.001202
      g-2     :     0.001280
      g+3     :     0.000111
      g-3     :     0.000791
      g+4     :     0.002112
      g-4     :     0.003377
  2 C s       :     2.595706  s :     2.595706
      pz      :     0.767865  p :     2.716650
      px      :     0.963981
      py      :     0.984803
      dz2     :     0.037556  d :     0.494433
      dxz     :     0.043686
      dyz     :     0.065416
      dx2y2   :     0.147478
      dxy     :     0.200299
      f0      :     0.006137  f :     0.109668
      f+1     :     0.006924
      f-1     :     0.007249
      f+2     :     0.017948
      f-2     :     0.006693
      f+3     :     0.045642
      f-3     :     0.019075
      g0      :     0.000361  g :     0.011215
      g+1     :     0.000870
      g-1     :     0.001145
      g+2     :     0.001252
      g-2     :     0.001247
      g+3     :     0.000091
      g-3     :     0.000771
      g+4     :     0.002862
      g-4     :     0.002616
  3 C s       :     2.597525  s :     2.597525
      pz      :     0.750101  p :     2.702974
      px      :     1.003146
      py      :     0.949727
      dz2     :     0.038150  d :     0.500595
      dxz     :     0.095675
      dyz     :     0.020720
      dx2y2   :     0.203278
      dxy     :     0.142771
      f0      :     0.006106  f :     0.110009
      f+1     :     0.007477
      f-1     :     0.006645
      f+2     :     0.005500
      f-2     :     0.020215
      f+3     :     0.045098
      f-3     :     0.018968
      g0      :     0.000353  g :     0.011098
      g+1     :     0.001465
      g-1     :     0.000632
      g+2     :     0.001230
      g-2     :     0.001227
      g+3     :     0.000082
      g-3     :     0.000757
      g+4     :     0.003238
      g-4     :     0.002114
  4 C s       :     2.595511  s :     2.595511
      pz      :     0.772713  p :     2.720191
      px      :     0.958198
      py      :     0.989280
      dz2     :     0.037650  d :     0.494691
      dxz     :     0.032940
      dyz     :     0.077308
      dx2y2   :     0.167656
      dxy     :     0.179137
      f0      :     0.006174  f :     0.109678
      f+1     :     0.006823
      f-1     :     0.007383
      f+2     :     0.013738
      f-2     :     0.011030
      f+3     :     0.045409
      f-3     :     0.019120
      g0      :     0.000361  g :     0.011209
      g+1     :     0.000773
      g-1     :     0.001260
      g+2     :     0.001249
      g-2     :     0.001244
      g+3     :     0.000088
      g-3     :     0.000778
      g+4     :     0.002049
      g-4     :     0.003406
  5 C s       :     2.590375  s :     2.590375
      pz      :     0.749812  p :     2.697436
      px      :     0.961141
      py      :     0.986484
      dz2     :     0.038758  d :     0.502633
      dxz     :     0.045840
      dyz     :     0.073887
      dx2y2   :     0.144945
      dxy     :     0.199202
      f0      :     0.006211  f :     0.112899
      f+1     :     0.006986
      f-1     :     0.007378
      f+2     :     0.018983
      f-2     :     0.007580
      f+3     :     0.045710
      f-3     :     0.020052
      g0      :     0.000365  g :     0.011343
      g+1     :     0.000925
      g-1     :     0.001256
      g+2     :     0.001214
      g-2     :     0.001266
      g+3     :     0.000073
      g-3     :     0.000782
      g+4     :     0.002915
      g-4     :     0.002546
  6 H s       :     0.784645  s :     0.784645
      pz      :     0.047873  p :     0.186455
      px      :     0.082554
      py      :     0.056028
      dz2     :     0.004745  d :     0.062825
      dxz     :     0.015030
      dyz     :     0.004286
      dx2y2   :     0.021107
      dxy     :     0.017655
      f0      :     0.000946  f :     0.009147
      f+1     :     0.000840
      f-1     :     0.000383
      f+2     :     0.000607
      f-2     :     0.001040
      f+3     :     0.003314
      f-3     :     0.002017
  7 H s       :     0.796452  s :     0.796452
      pz      :     0.051816  p :     0.185598
      px      :     0.075204
      py      :     0.058578
      dz2     :     0.004702  d :     0.062489
      dxz     :     0.013024
      dyz     :     0.006752
      dx2y2   :     0.022658
      dxy     :     0.015353
      f0      :     0.000989  f :     0.009131
      f+1     :     0.000722
      f-1     :     0.000477
      f+2     :     0.000207
      f-2     :     0.001469
      f+3     :     0.003218
      f-3     :     0.002050
  8 H s       :     0.796304  s :     0.796304
      pz      :     0.050541  p :     0.185061
      px      :     0.042702
      py      :     0.091818
      dz2     :     0.004708  d :     0.062247
      dxz     :     0.000435
      dyz     :     0.018865
      dx2y2   :     0.014665
      dxy     :     0.023575
      f0      :     0.000962  f :     0.009084
      f+1     :     0.000242
      f-1     :     0.000956
      f+2     :     0.001550
      f-2     :     0.000084
      f+3     :     0.003248
      f-3     :     0.002042
  9 H s       :     0.796770  s :     0.796770
      pz      :     0.052664  p :     0.186179
      px      :     0.082703
      py      :     0.050812
      dz2     :     0.004695  d :     0.062570
      dxz     :     0.016199
      dyz     :     0.003766
      dx2y2   :     0.019800
      dxy     :     0.018110
      f0      :     0.000999  f :     0.009148
      f+1     :     0.000833
      f-1     :     0.000366
      f+2     :     0.000701
      f-2     :     0.000990
      f+3     :     0.003227
      f-3     :     0.002033
 10 H s       :     0.791282  s :     0.791282
      pz      :     0.051461  p :     0.185921
      px      :     0.074480
      py      :     0.059980
      dz2     :     0.004714  d :     0.062403
      dxz     :     0.012727
      dyz     :     0.006697
      dx2y2   :     0.022976
      dxy     :     0.015289
      f0      :     0.000961  f :     0.009082
      f+1     :     0.000715
      f-1     :     0.000480
      f+2     :     0.000205
      f-2     :     0.001440
      f+3     :     0.003243
      f-3     :     0.002037
 11 C s       :     2.648416  s :     2.648416
      pz      :     0.644402  p :     2.604253
      px      :     0.981206
      py      :     0.978645
      dz2     :     0.059178  d :     0.814083
      dxz     :     0.075128
      dyz     :     0.092679
      dx2y2   :     0.306913
      dxy     :     0.280185
      f0      :     0.011513  f :     0.206722
      f+1     :     0.015837
      f-1     :     0.010046
      f+2     :     0.019168
      f-2     :     0.020847
      f+3     :     0.090424
      f-3     :     0.038887
      g0      :     0.000937  g :     0.033004
      g+1     :     0.004336
      g-1     :     0.002193
      g+2     :     0.003207
      g-2     :     0.002961
      g+3     :     0.000061
      g-3     :     0.003120
      g+4     :     0.009609
      g-4     :     0.006580
 12 O s       :     3.265634  s :     3.265634
      pz      :     1.191870  p :     4.260753
      px      :     1.522074
      py      :     1.546810
      dz2     :     0.009836  d :     0.100501
      dxz     :     0.013061
      dyz     :     0.005149
      dx2y2   :     0.038276
      dxy     :     0.034180
      f0      :     0.001534  f :     0.021388
      f+1     :     0.001943
      f-1     :     0.001096
      f+2     :     0.000661
      f-2     :     0.002232
      f+3     :     0.009243
      f-3     :     0.004680
      g0      :     0.000052  g :     0.001257
      g+1     :     0.000104
      g-1     :     0.000035
      g+2     :     0.000088
      g-2     :     0.000111
      g+3     :     0.000001
      g-3     :     0.000113
      g+4     :     0.000446
      g-4     :     0.000305
 13 H s       :     0.833882  s :     0.833882
      pz      :     0.030737  p :     0.170811
      px      :     0.089491
      py      :     0.050583
      dz2     :     0.005321  d :     0.056312
      dxz     :     0.011864
      dyz     :     0.002797
      dx2y2   :     0.018795
      dxy     :     0.017534
      f0      :     0.000722  f :     0.007597
      f+1     :     0.000716
      f-1     :     0.000379
      f+2     :     0.000490
      f-2     :     0.000750
      f+3     :     0.002739
      f-3     :     0.001801


                      *****************************
                      * MAYER POPULATION ANALYSIS *
                      *****************************

  NA   - Mulliken gross atomic population
  ZA   - Total nuclear charge
  QA   - Mulliken gross atomic charge
  VA   - Mayer's total valence
  BVA  - Mayer's bonded valence
  FA   - Mayer's free valence

  ATOM       NA         ZA         QA         VA         BVA        FA
  0 C      5.9034     6.0000     0.0966     3.4786     3.4753     0.0033
  1 C      6.0308     6.0000    -0.0308     3.6361     3.6328     0.0033
  2 C      6.0851     6.0000    -0.0851     3.8094     3.8076     0.0018
  3 C      6.0226     6.0000    -0.0226     3.7718     3.7682     0.0036
  4 C      6.0922     6.0000    -0.0922     3.8373     3.8352     0.0021
  5 C      6.0539     6.0000    -0.0539     3.6505     3.6479     0.0026
  6 H      0.9019     1.0000     0.0981     1.0056     1.0055     0.0001
  7 H      0.9333     1.0000     0.0667     1.0003     1.0002     0.0001
  8 H      0.9345     1.0000     0.0655     0.9960     0.9958     0.0002
  9 H      0.9367     1.0000     0.0633     1.0002     1.0001     0.0001
 10 H      0.9355     1.0000     0.0645     0.9995     0.9994     0.0001
 11 C      5.8944     6.0000     0.1056     3.9859     3.9814     0.0044
 12 O      8.3322     8.0000    -0.3322     2.1236     2.1159     0.0076
 13 H      0.9435     1.0000     0.0565     0.9819     0.9808     0.0011

  Mayer bond orders larger than 0.100000
B(  0-C ,  1-C ) :   1.2050 B(  0-C ,  5-C ) :   1.2035 B(  0-C , 11-C ) :   0.9843 
B(  1-C ,  2-C ) :   1.3360 B(  1-C ,  6-H ) :   0.9434 B(  2-C ,  3-C ) :   1.3012 
B(  2-C ,  7-H ) :   0.9691 B(  3-C ,  4-C ) :   1.3267 B(  3-C ,  8-H ) :   0.9647 
B(  4-C ,  5-C ) :   1.3430 B(  4-C ,  9-H ) :   0.9675 B(  5-C , 10-H ) :   0.9563 
B( 11-C , 12-O ) :   2.0058 B( 11-C , 13-H ) :   0.9626 

-------
TIMINGS
-------

Total SCF time: 0 days 0 hours 51 min 4 sec 

Total time                  ....    3064.470 sec
Sum of individual times     ....    3049.124 sec  ( 99.5%)

Fock matrix formation       ....    2997.838 sec  ( 97.8%)
  Split-RI-J                ....     186.268 sec  (  6.2% of F)
  Chain of spheres X        ....    2461.743 sec  ( 82.1% of F)
  XC integration            ....     321.479 sec  ( 10.7% of F)
    Basis function eval.    ....      64.206 sec  ( 20.0% of XC)
    Density eval.           ....     121.157 sec  ( 37.7% of XC)
    XC-Functional eval.     ....       4.033 sec  (  1.3% of XC)
    XC-Potential eval.      ....     122.959 sec  ( 38.2% of XC)
Diagonalization             ....       7.991 sec  (  0.3%)
Density matrix formation    ....       6.845 sec  (  0.2%)
Population analysis         ....       0.370 sec  (  0.0%)
Initial guess               ....      12.307 sec  (  0.4%)
Orbital Transformation      ....       0.000 sec  (  0.0%)
Orbital Orthonormalization  ....       0.000 sec  (  0.0%)
DIIS solution               ....       4.468 sec  (  0.1%)
Grid generation             ....      19.305 sec  (  0.6%)

Maximum memory used throughout the entire SCF-calculation: 678.7 MB

-------------------------   --------------------
FINAL SINGLE POINT ENERGY      -345.523881134032
-------------------------   --------------------


                            ***************************************
                            *     ORCA property calculations      *
                            ***************************************

                                    ---------------------
                                    Active property flags
                                    ---------------------
   (+) Dipole Moment


------------------------------------------------------------------------------
                       ORCA ELECTRIC PROPERTIES CALCULATION
------------------------------------------------------------------------------

Dipole Moment Calculation                       ... on
Quadrupole Moment Calculation                   ... off
Polarizability Calculation                      ... off
GBWName                                         ... benzaldehyd_FOD.gbw
Electron density                                ... benzaldehyd_FOD.scfp
The origin for moment calculation is the CENTER OF MASS  = (-14.631047,  0.983448  0.000029)

-------------
DIPOLE MOMENT
-------------
                                X             Y             Z
Electronic contribution:     -1.31019       2.77641       0.00055
Nuclear contribution   :      2.09952      -3.87654      -0.00033
                        -----------------------------------------
Total Dipole Moment    :      0.78933      -1.10013       0.00022
                        -----------------------------------------
Magnitude (a.u.)       :      1.35401
Magnitude (Debye)      :      3.44161



--------------------
Rotational spectrum 
--------------------
 
Rotational constants in cm-1:     0.173808     0.051962     0.040003 
Rotational constants in MHz :  5210.632863  1557.792854  1199.257712 

 Dipole components along the rotational axes: 
x,y,z [a.u.] :    -1.271226    -0.466173     0.000187 
x,y,z [Debye]:    -3.231201    -1.184918     0.000476 

 

Timings for individual modules:

Sum of individual times         ...     3075.521 sec (=  51.259 min)
GTO integral calculation        ...        9.378 sec (=   0.156 min)   0.3 %
SCF iterations                  ...     3066.143 sec (=  51.102 min)  99.7 %
                             ****ORCA TERMINATED NORMALLY****
TOTAL RUN TIME: 0 days 0 hours 51 minutes 18 seconds 759 msec
