
                                 *****************
                                 * O   R   C   A *
                                 *****************

                                            #,                                       
                                            ###                                      
                                            ####                                     
                                            #####                                    
                                            ######                                   
                                           ########,                                 
                                     ,,################,,,,,                         
                               ,,#################################,,                 
                          ,,##########################################,,             
                       ,#########################################, ''#####,          
                    ,#############################################,,   '####,        
                  ,##################################################,,,,####,       
                ,###########''''           ''''###############################       
              ,#####''   ,,,,##########,,,,          '''####'''          '####       
            ,##' ,,,,###########################,,,                        '##       
           ' ,,###''''                  '''############,,,                           
         ,,##''                                '''############,,,,        ,,,,,,###''
      ,#''                                            '''#######################'''  
     '                                                          ''''####''''         
             ,#######,   #######,   ,#######,      ##                                
            ,#'     '#,  ##    ##  ,#'     '#,    #''#        ######   ,####,        
            ##       ##  ##   ,#'  ##            #'  '#       #        #'  '#        
            ##       ##  #######   ##           ,######,      #####,   #    #        
            '#,     ,#'  ##    ##  '#,     ,#' ,#      #,         ##   #,  ,#        
             '#######'   ##     ##  '#######'  #'      '#     #####' # '####'        



                  #######################################################
                  #                        -***-                        #
                  #          Department of theory and spectroscopy      #
                  #    Directorship and core code : Frank Neese         #
                  #        Max Planck Institute fuer Kohlenforschung    #
                  #                Kaiser Wilhelm Platz 1               #
                  #                 D-45470 Muelheim/Ruhr               #
                  #                      Germany                        #
                  #                                                     #
                  #                  All rights reserved                #
                  #                        -***-                        #
                  #######################################################



                         Program Version 5.0.4 -  RELEASE  -

 With contributions from (in alphabetic order):
   Daniel Aravena         : Magnetic Suceptibility
   Michael Atanasov       : Ab Initio Ligand Field Theory (pilot matlab implementation)
   Alexander A. Auer      : GIAO ZORA, VPT2 properties, NMR spectrum
   Ute Becker             : Parallelization
   Giovanni Bistoni       : ED, misc. LED, open-shell LED, HFLD
   Martin Brehm           : Molecular dynamics
   Dmytro Bykov           : SCF Hessian
   Vijay G. Chilkuri      : MRCI spin determinant printing, contributions to CSF-ICE
   Dipayan Datta          : RHF DLPNO-CCSD density
   Achintya Kumar Dutta   : EOM-CC, STEOM-CC
   Dmitry Ganyushin       : Spin-Orbit,Spin-Spin,Magnetic field MRCI
   Miquel Garcia          : C-PCM and meta-GGA Hessian, CC/C-PCM, Gaussian charge scheme
   Yang Guo               : DLPNO-NEVPT2, F12-NEVPT2, CIM, IAO-localization
   Andreas Hansen         : Spin unrestricted coupled pair/coupled cluster methods
   Benjamin Helmich-Paris : MC-RPA, TRAH-SCF, COSX integrals
   Lee Huntington         : MR-EOM, pCC
   Robert Izsak           : Overlap fitted RIJCOSX, COSX-SCS-MP3, EOM
   Marcus Kettner         : VPT2
   Christian Kollmar      : KDIIS, OOCD, Brueckner-CCSD(T), CCSD density, CASPT2, CASPT2-K
   Simone Kossmann        : Meta GGA functionals, TD-DFT gradient, OOMP2, MP2 Hessian
   Martin Krupicka        : Initial AUTO-CI
   Lucas Lang             : DCDCAS
   Marvin Lechner         : AUTO-CI (C++ implementation), FIC-MRCC
   Dagmar Lenk            : GEPOL surface, SMD
   Dimitrios Liakos       : Extrapolation schemes; Compound Job, initial MDCI parallelization
   Dimitrios Manganas     : Further ROCIS development; embedding schemes
   Dimitrios Pantazis     : SARC Basis sets
   Anastasios Papadopoulos: AUTO-CI, single reference methods and gradients
   Taras Petrenko         : DFT Hessian,TD-DFT gradient, ASA, ECA, R-Raman, ABS, FL, XAS/XES, NRVS
   Peter Pinski           : DLPNO-MP2, DLPNO-MP2 Gradient
   Christoph Reimann      : Effective Core Potentials
   Marius Retegan         : Local ZFS, SOC
   Christoph Riplinger    : Optimizer, TS searches, QM/MM, DLPNO-CCSD(T), (RO)-DLPNO pert. Triples
   Tobias Risthaus        : Range-separated hybrids, TD-DFT gradient, RPA, STAB
   Michael Roemelt        : Original ROCIS implementation
   Masaaki Saitow         : Open-shell DLPNO-CCSD energy and density
   Barbara Sandhoefer     : DKH picture change effects
   Avijit Sen             : IP-ROCIS
   Kantharuban Sivalingam : CASSCF convergence, NEVPT2, FIC-MRCI
   Bernardo de Souza      : ESD, SOC TD-DFT
   Georgi Stoychev        : AutoAux, RI-MP2 NMR, DLPNO-MP2 response
   Willem Van den Heuvel  : Paramagnetic NMR
   Boris Wezisla          : Elementary symmetry handling
   Frank Wennmohs         : Technical directorship


 We gratefully acknowledge several colleagues who have allowed us to
 interface, adapt or use parts of their codes:
   Stefan Grimme, W. Hujo, H. Kruse, P. Pracht,  : VdW corrections, initial TS optimization,
                  C. Bannwarth, S. Ehlert          DFT functionals, gCP, sTDA/sTD-DF
   Ed Valeev, F. Pavosevic, A. Kumar             : LibInt (2-el integral package), F12 methods
   Garnet Chan, S. Sharma, J. Yang, R. Olivares  : DMRG
   Ulf Ekstrom                                   : XCFun DFT Library
   Mihaly Kallay                                 : mrcc  (arbitrary order and MRCC methods)
   Jiri Pittner, Ondrej Demel                    : Mk-CCSD
   Frank Weinhold                                : gennbo (NPA and NBO analysis)
   Christopher J. Cramer and Donald G. Truhlar   : smd solvation model
   Lars Goerigk                                  : TD-DFT with DH, B97 family of functionals
   V. Asgeirsson, H. Jonsson                     : NEB implementation
   FAccTs GmbH                                   : IRC, NEB, NEB-TS, DLPNO-Multilevel, CI-OPT
                                                   MM, QMMM, 2- and 3-layer-ONIOM, Crystal-QMMM,
                                                   LR-CPCM, SF, NACMEs, symmetry and pop. for TD-DFT,
                                                   nearIR, NL-DFT gradient (VV10), updates on ESD,
                                                   ML-optimized integration grids
   S Lehtola, MJT Oliveira, MAL Marques          : LibXC Library
   Liviu Ungur et al                             : ANISO software


 Your calculation uses the libint2 library for the computation of 2-el integrals
 For citations please refer to: http://libint.valeyev.net

 Your ORCA version has been built with support for libXC version: 5.1.0
 For citations please refer to: https://tddft.org/programs/libxc/

 This ORCA versions uses:
   CBLAS   interface :  Fast vector & matrix operations
   LAPACKE interface :  Fast linear algebra routines
   Shared memory     :  Shared parallel matrices


================================================================================

----- Orbital basis set information -----
Your calculation utilizes the basis: def2-SVP
   F. Weigend and R. Ahlrichs, Phys. Chem. Chem. Phys. 7, 3297 (2005).

----- AuxJ basis set information -----
Your calculation utilizes the auxiliary basis: def2/J
   F. Weigend, Phys. Chem. Chem. Phys. 8, 1057 (2006).

================================================================================
                                        WARNINGS
                       Please study these warnings very carefully!
================================================================================


INFO   : the flag for use of the SHARK integral package has been found!

================================================================================
                                       INPUT FILE
================================================================================
NAME = benzen_infrared_spectra_without_opt.inp
|  1> !BP86 DEF2-SVP FREQ
|  2> 
|  3> * xyz 0 1
|  4>   C      -4.127240      1.598090      0.000000
|  5>   C      -5.236140      0.753090      0.000000
|  6>   C      -5.058790     -0.629750      0.000000
|  7>   C      -3.772550     -1.167590      0.000000
|  8>   C      -2.663650     -0.322590      0.000000
|  9>   C      -2.840990      1.060250      0.000000
| 10>   H      -4.265550      2.676550      0.000000
| 11>   H      -1.976170      1.719260      0.000000
| 12>   H      -1.660520     -0.742040      0.000000
| 13>   H      -3.634240     -2.246050      0.000000
| 14>   H      -5.923620     -1.288760      0.000000
| 15>   H      -6.239270      1.172540      0.000000
| 16> **                         ****END OF INPUT****
================================================================================

                       ****************************
                       * Single Point Calculation *
                       ****************************

---------------------------------
CARTESIAN COORDINATES (ANGSTROEM)
---------------------------------
  C     -4.127240    1.598090    0.000000
  C     -5.236140    0.753090    0.000000
  C     -5.058790   -0.629750    0.000000
  C     -3.772550   -1.167590    0.000000
  C     -2.663650   -0.322590    0.000000
  C     -2.840990    1.060250    0.000000
  H     -4.265550    2.676550    0.000000
  H     -1.976170    1.719260    0.000000
  H     -1.660520   -0.742040    0.000000
  H     -3.634240   -2.246050    0.000000
  H     -5.923620   -1.288760    0.000000
  H     -6.239270    1.172540    0.000000

----------------------------
CARTESIAN COORDINATES (A.U.)
----------------------------
  NO LB      ZA    FRAG     MASS         X           Y           Z
   0 C     6.0000    0    12.011   -7.799353    3.019952    0.000000
   1 C     6.0000    0    12.011   -9.894871    1.423134    0.000000
   2 C     6.0000    0    12.011   -9.559728   -1.190055    0.000000
   3 C     6.0000    0    12.011   -7.129086   -2.206425    0.000000
   4 C     6.0000    0    12.011   -5.033569   -0.609607    0.000000
   5 C     6.0000    0    12.011   -5.368693    2.003582    0.000000
   6 H     1.0000    0     1.008   -8.060721    5.057946    0.000000
   7 H     1.0000    0     1.008   -3.734420    3.248931    0.000000
   8 H     1.0000    0     1.008   -3.137928   -1.402252    0.000000
   9 H     1.0000    0     1.008   -6.867718   -4.244419    0.000000
  10 H     1.0000    0     1.008  -11.194020   -2.435403    0.000000
  11 H     1.0000    0     1.008  -11.790512    2.215779    0.000000

--------------------------------
INTERNAL COORDINATES (ANGSTROEM)
--------------------------------
 C      0   0   0     0.000000000000     0.00000000     0.00000000
 C      1   0   0     1.394160754719     0.00000000     0.00000000
 C      2   1   0     1.394166234027   119.99967529     0.00000000
 C      3   2   1     1.394161110919   120.00051591     0.00000000
 C      4   3   2     1.394160754719   119.99980880     0.00000000
 C      5   4   3     1.394164961975   120.00008292     0.00000000
 H      1   2   3     1.087292797594   119.99983709   180.00000085
 H      6   5   4     1.087293802291   120.00020724   180.00000000
 H      5   4   3     1.087293934224   120.00018946   180.00000085
 H      4   3   2     1.087292797594   120.00035411   180.00000085
 H      3   2   1     1.087301756184   119.99948022   180.00000085
 H      2   1   3     1.087293934224   120.00018946   180.00000000

---------------------------
INTERNAL COORDINATES (A.U.)
---------------------------
 C      0   0   0     0.000000000000     0.00000000     0.00000000
 C      1   0   0     2.634582013081     0.00000000     0.00000000
 C      2   1   0     2.634592367471   119.99967529     0.00000000
 C      3   2   1     2.634582686201   120.00051591     0.00000000
 C      4   3   2     2.634582013081   119.99980880     0.00000000
 C      5   4   3     2.634589963642   120.00008292     0.00000000
 H      1   2   3     2.054685614838   119.99983709   180.00000085
 H      6   5   4     2.054687513440   120.00020724   180.00000000
 H      5   4   3     2.054687762757   120.00018946   180.00000085
 H      4   3   2     2.054685614838   120.00035411   180.00000085
 H      3   2   1     2.054702544119   119.99948022   180.00000085
 H      2   1   3     2.054687762757   120.00018946   180.00000000

---------------------
BASIS SET INFORMATION
---------------------
There are 2 groups of distinct atoms

 Group   1 Type C   : 7s4p1d contracted to 3s2p1d pattern {511/31/1}
 Group   2 Type H   : 4s1p contracted to 2s1p pattern {31/1}

Atom   0C    basis set group =>   1
Atom   1C    basis set group =>   1
Atom   2C    basis set group =>   1
Atom   3C    basis set group =>   1
Atom   4C    basis set group =>   1
Atom   5C    basis set group =>   1
Atom   6H    basis set group =>   2
Atom   7H    basis set group =>   2
Atom   8H    basis set group =>   2
Atom   9H    basis set group =>   2
Atom  10H    basis set group =>   2
Atom  11H    basis set group =>   2
---------------------------------
AUXILIARY/J BASIS SET INFORMATION
---------------------------------
There are 2 groups of distinct atoms

 Group   1 Type C   : 12s5p4d2f1g contracted to 6s4p3d1f1g pattern {711111/2111/211/2/1}
 Group   2 Type H   : 5s2p1d contracted to 3s1p1d pattern {311/2/1}

Atom   0C    basis set group =>   1
Atom   1C    basis set group =>   1
Atom   2C    basis set group =>   1
Atom   3C    basis set group =>   1
Atom   4C    basis set group =>   1
Atom   5C    basis set group =>   1
Atom   6H    basis set group =>   2
Atom   7H    basis set group =>   2
Atom   8H    basis set group =>   2
Atom   9H    basis set group =>   2
Atom  10H    basis set group =>   2
Atom  11H    basis set group =>   2
------------------------------------------------------------------------------
                           ORCA GTO INTEGRAL CALCULATION
                           -- RI-GTO INTEGRALS CHOSEN --
------------------------------------------------------------------------------
------------------------------------------------------------------------------
                   ___                                                        
                  /   \      - P O W E R E D   B Y -                         
                 /     \                                                     
                 |  |  |   _    _      __       _____    __    __             
                 |  |  |  | |  | |    /  \     |  _  \  |  |  /  |          
                  \  \/   | |  | |   /    \    | | | |  |  | /  /          
                 / \  \   | |__| |  /  /\  \   | |_| |  |  |/  /          
                |  |  |   |  __  | /  /__\  \  |    /   |      \           
                |  |  |   | |  | | |   __   |  |    \   |  |\   \          
                \     /   | |  | | |  |  |  |  | |\  \  |  | \   \       
                 \___/    |_|  |_| |__|  |__|  |_| \__\ |__|  \__/        
                                                                              
                      - O R C A' S   B I G   F R I E N D -                    
                                      &                                       
                       - I N T E G R A L  F E E D E R -                       
                                                                              
 v1 FN, 2020, v2 2021                                                         
------------------------------------------------------------------------------


Reading SHARK input file benzen_infrared_spectra_without_opt.SHARKINP.tmp ... ok
----------------------
SHARK INTEGRAL PACKAGE
----------------------

Number of atoms                             ...     12
Number of basis functions                   ...    114
Number of shells                            ...     54
Maximum angular momentum                    ...      2
Integral batch strategy                     ... SHARK/LIBINT Hybrid
RI-J (if used) integral strategy            ... SPLIT-RIJ (Revised 2003 algorithm where possible)
Printlevel                                  ...      1
Contraction scheme used                     ... SEGMENTED contraction
Coulomb Range Separation                    ... NOT USED
Exchange Range Separation                   ... NOT USED
Finite Nucleus Model                        ... NOT USED
Auxiliary Coulomb fitting basis             ... AVAILABLE
   # of basis functions in Aux-J            ...    360
   # of shells in Aux-J                     ...    120
   Maximum angular momentum in Aux-J        ...      4
Auxiliary J/K fitting basis                 ... NOT available
Auxiliary Correlation fitting basis         ... NOT available
Auxiliary 'external' fitting basis          ... NOT available
Integral threshold                          ...     1.000000e-10
Primitive cut-off                           ...     1.000000e-11
Primitive pair pre-selection threshold      ...     1.000000e-11

Calculating pre-screening integrals         ... done (  0.0 sec) Dimension = 54
Organizing shell pair data                  ... done (  0.0 sec)
Shell pair information
Total number of shell pairs                 ...      1485
Shell pairs after pre-screening             ...      1455
Total number of primitive shell pairs       ...      5349
Primitive shell pairs kept                  ...      4104
          la=0 lb=0:    456 shell pairs
          la=1 lb=0:    522 shell pairs
          la=1 lb=1:    168 shell pairs
          la=2 lb=0:    180 shell pairs
          la=2 lb=1:    108 shell pairs
          la=2 lb=2:     21 shell pairs

Calculating one electron integrals          ... done (  0.0 sec)
Calculating RI/J V-Matrix + Cholesky decomp.... done (  0.0 sec)
Calculating Nuclear repulsion               ... done (  0.0 sec) ENN=    203.482178309162 Eh

SHARK setup successfully completed in   0.2 seconds

Maximum memory used throughout the entire GTOINT-calculation: 13.6 MB
-------------------------------------------------------------------------------
                                 ORCA SCF
-------------------------------------------------------------------------------

------------
SCF SETTINGS
------------
Hamiltonian:
 Density Functional     Method          .... DFT(GTOs)
 Exchange Functional    Exchange        .... B88
   X-Alpha parameter    XAlpha          ....  0.666667
   Becke's b parameter  XBeta           ....  0.004200
 Correlation Functional Correlation     .... P86
 LDA part of GGA corr.  LDAOpt          .... PW91-LDA
 Gradients option       PostSCFGGA      .... off
   Density functional embedding theory  .... OFF
   NL short-range parameter             ....  4.400000
 RI-approximation to the Coulomb term is turned on
   Number of AuxJ basis functions       .... 360


General Settings:
 Integral files         IntName         .... benzen_infrared_spectra_without_opt
 Hartree-Fock type      HFTyp           .... RHF
 Total Charge           Charge          ....    0
 Multiplicity           Mult            ....    1
 Number of Electrons    NEL             ....   42
 Basis Dimension        Dim             ....  114
 Nuclear Repulsion      ENuc            ....    203.4821783092 Eh

Convergence Acceleration:
 DIIS                   CNVDIIS         .... on
   Start iteration      DIISMaxIt       ....    12
   Startup error        DIISStart       ....  0.200000
   # of expansion vecs  DIISMaxEq       ....     5
   Bias factor          DIISBfac        ....   1.050
   Max. coefficient     DIISMaxC        ....  10.000
 Trust-Rad. Augm. Hess. CNVTRAH         .... auto
   Auto Start mean grad. ratio tolernc. ....  1.125000
   Auto Start start iteration           ....    20
   Auto Start num. interpolation iter.  ....    10
   Max. Number of Micro iterations      ....    16
   Max. Number of Macro iterations      .... Maxiter - #DIIS iter
   Number of Davidson start vectors     ....     2
   Converg. threshold I  (grad. norm)   ....   5.000e-05
   Converg. threshold II (energy diff.) ....   1.000e-06
   Grad. Scal. Fac. for Micro threshold ....   0.100
   Minimum threshold for Micro iter.    ....   0.010
   NR start threshold (gradient norm)   ....   0.001
   Initial trust radius                 ....   0.400
   Minimum AH scaling param. (alpha)    ....   1.000
   Maximum AH scaling param. (alpha)    .... 1000.000
   Orbital update algorithm             .... Taylor
   White noise on init. David. guess    .... on
   Maximum white noise                  ....   0.010
   Quad. conv. algorithm                .... NR
 SOSCF                  CNVSOSCF        .... on
   Start iteration      SOSCFMaxIt      ....   150
   Startup grad/error   SOSCFStart      ....  0.003300
 Level Shifting         CNVShift        .... on
   Level shift para.    LevelShift      ....    0.2500
   Turn off err/grad.   ShiftErr        ....    0.0010
 Zerner damping         CNVZerner       .... off
 Static damping         CNVDamp         .... on
   Fraction old density DampFac         ....    0.7000
   Max. Damping (<1)    DampMax         ....    0.9800
   Min. Damping (>=0)   DampMin         ....    0.0000
   Turn off err/grad.   DampErr         ....    0.1000
 Fernandez-Rico         CNVRico         .... off

SCF Procedure:
 Maximum # iterations   MaxIter         ....   125
 SCF integral mode      SCFMode         .... Direct
   Integral package                     .... SHARK and LIBINT hybrid scheme
 Reset frequency        DirectResetFreq ....    20
 Integral Threshold     Thresh          ....  1.000e-10 Eh
 Primitive CutOff       TCut            ....  1.000e-11 Eh

Convergence Tolerance:
 Convergence Check Mode ConvCheckMode   .... Total+1el-Energy
 Convergence forced     ConvForced      .... 0
 Energy Change          TolE            ....  1.000e-06 Eh
 1-El. energy change                    ....  1.000e-03 Eh
 Orbital Gradient       TolG            ....  5.000e-05
 Orbital Rotation angle TolX            ....  5.000e-05
 DIIS Error             TolErr          ....  1.000e-06


Diagonalization of the overlap matrix:
Smallest eigenvalue                        ... 3.141e-04
Time for diagonalization                   ...    0.003 sec
Threshold for overlap eigenvalues          ... 1.000e-08
Number of eigenvalues below threshold      ... 0
Time for construction of square roots      ...    0.003 sec
Total time needed                          ...    0.006 sec

Time for model grid setup =    0.149 sec

------------------------------
INITIAL GUESS: MODEL POTENTIAL
------------------------------
Loading Hartree-Fock densities                     ... done
Calculating cut-offs                               ... done
Initializing the effective Hamiltonian             ... done
Setting up the integral package (SHARK)            ... done
Starting the Coulomb interaction                   ... done (   0.1 sec)
Reading the grid                                   ... done
Mapping shells                                     ... done
Starting the XC term evaluation                    ... done (   0.2 sec)
  promolecular density results
     # of electrons  =     41.996733943
     EX              =    -32.606761046
     EC              =     -1.491967192
     EX+EC           =    -34.098728238
Transforming the Hamiltonian                       ... done (   0.0 sec)
Diagonalizing the Hamiltonian                      ... done (   0.0 sec)
Back transforming the eigenvectors                 ... done (   0.0 sec)
Now organizing SCF variables                       ... done
                      ------------------
                      INITIAL GUESS DONE (   0.5 sec)
                      ------------------
-------------------
DFT GRID GENERATION
-------------------

General Integration Accuracy     IntAcc      ... 4.388
Radial Grid Type                 RadialGrid  ... OptM3 with GC (2021)
Angular Grid (max. ang.)         AngularGrid ... 4 (Lebedev-302)
Angular grid pruning method      GridPruning ... 4 (adaptive)
Weight generation scheme         WeightScheme... Becke
Basis function cutoff            BFCut       ... 1.0000e-10
Integration weight cutoff        WCut        ... 1.0000e-14
Angular grids for H and He will be reduced by one unit
Partially contracted basis set               ... off
Rotationally invariant grid construction     ... off

Total number of grid points                  ...    55560
Total number of batches                      ...      872
Average number of points per batch           ...       63
Average number of grid points per atom       ...     4630
Time for grid setup =    0.597 sec

--------------
SCF ITERATIONS
--------------
ITER       Energy         Delta-E        Max-DP      RMS-DP      [F,P]     Damp
               ***  Starting incremental Fock matrix formation  ***
  0   -231.9637803401   0.000000000000 0.04693071  0.00249391  0.1160290 0.7000
  1   -232.0175533522  -0.053773012111 0.03008089  0.00177312  0.0541699 0.7000
                               ***Turning on DIIS***
  2   -232.0384483802  -0.020895027981 0.04258092  0.00284399  0.0200332 0.0000
  3   -232.0669887503  -0.028540370073 0.01977411  0.00136892  0.0388799 0.0000
  4   -232.0766258135  -0.009637063288 0.00555051  0.00032484  0.0073881 0.0000
                      *** Initiating the SOSCF procedure ***
                           *** Shutting down DIIS ***
                      *** Re-Reading the Fockian *** 
                      *** Removing any level shift *** 
ITER      Energy       Delta-E        Grad      Rot      Max-DP    RMS-DP
  5   -232.07704422  -0.0004184063  0.000753  0.000753  0.001985  0.000129
               *** Restarting incremental Fock matrix formation ***
  6   -232.07706564  -0.0000214233  0.000306  0.000709  0.001203  0.000083
  7   -232.07706634  -0.0000007001  0.000219  0.000186  0.000297  0.000021
                 **** Energy Check signals convergence ****
              ***Rediagonalizing the Fockian in SOSCF/NRSCF***

               *****************************************************
               *                     SUCCESS                       *
               *           SCF CONVERGED AFTER   8 CYCLES          *
               *****************************************************


----------------
TOTAL SCF ENERGY
----------------

Total Energy       :         -232.07706728 Eh           -6315.13806 eV

Components:
Nuclear Repulsion  :          203.48217831 Eh            5537.03157 eV
Electronic Energy  :         -435.55924559 Eh          -11852.16963 eV
One Electron Energy:         -713.94886468 Eh          -19427.53628 eV
Two Electron Energy:          278.38961910 Eh            7575.36666 eV

Virial components:
Potential Energy   :         -461.46228316 Eh          -12557.02711 eV
Kinetic Energy     :          229.38521588 Eh            6241.88906 eV
Virial Ratio       :            2.01173507


DFT components:
N(Alpha)           :       20.999983234821 electrons
N(Beta)            :       20.999983234821 electrons
N(Total)           :       41.999966469642 electrons
E(X)               :      -33.231903285994 Eh       
E(C)               :       -1.499950048659 Eh       
E(XC)              :      -34.731853334652 Eh       
DFET-embed. en.    :        0.000000000000 Eh       

---------------
SCF CONVERGENCE
---------------

  Last Energy change         ...   -9.3257e-07  Tolerance :   1.0000e-06
  Last MAX-Density change    ...    2.5165e-04  Tolerance :   1.0000e-05
  Last RMS-Density change    ...    1.4725e-05  Tolerance :   1.0000e-06
  Last Orbital Gradient      ...    5.6310e-05  Tolerance :   5.0000e-05
  Last Orbital Rotation      ...    8.2285e-05  Tolerance :   5.0000e-05

             **** THE GBW FILE WAS UPDATED (benzen_infrared_spectra_without_opt.gbw) ****
             **** DENSITY benzen_infrared_spectra_without_opt.scfp WAS UPDATED ****
             **** ENERGY FILE WAS UPDATED (benzen_infrared_spectra_without_opt.en.tmp) ****
             **** THE GBW FILE WAS UPDATED (benzen_infrared_spectra_without_opt.gbw) ****
             **** DENSITY benzen_infrared_spectra_without_opt.scfp WAS UPDATED ****
----------------
ORBITAL ENERGIES
----------------

  NO   OCC          E(Eh)            E(eV) 
   0   2.0000      -9.915752      -269.8213 
   1   2.0000      -9.915668      -269.8190 
   2   2.0000      -9.915664      -269.8189 
   3   2.0000      -9.915425      -269.8124 
   4   2.0000      -9.915421      -269.8123 
   5   2.0000      -9.915386      -269.8114 
   6   2.0000      -0.773379       -21.0447 
   7   2.0000      -0.670343       -18.2410 
   8   2.0000      -0.670337       -18.2408 
   9   2.0000      -0.539855       -14.6902 
  10   2.0000      -0.539854       -14.6902 
  11   2.0000      -0.472832       -12.8664 
  12   2.0000      -0.407512       -11.0890 
  13   2.0000      -0.401228       -10.9180 
  14   2.0000      -0.376044       -10.2327 
  15   2.0000      -0.376038       -10.2325 
  16   2.0000      -0.332557        -9.0493 
  17   2.0000      -0.303294        -8.2531 
  18   2.0000      -0.303294        -8.2530 
  19   2.0000      -0.231695        -6.3047 
  20   2.0000      -0.231689        -6.3046 
  21   0.0000      -0.039506        -1.0750 
  22   0.0000      -0.039504        -1.0750 
  23   0.0000       0.040007         1.0887 
  24   0.0000       0.083296         2.2666 
  25   0.0000       0.083301         2.2667 
  26   0.0000       0.105038         2.8582 
  27   0.0000       0.120976         3.2919 
  28   0.0000       0.120994         3.2924 
  29   0.0000       0.142107         3.8669 
  30   0.0000       0.252136         6.8610 
  31   0.0000       0.252139         6.8610 
  32   0.0000       0.263468         7.1693 
  33   0.0000       0.263473         7.1695 
  34   0.0000       0.329671         8.9708 
  35   0.0000       0.371789        10.1169 
  36   0.0000       0.382939        10.4203 
  37   0.0000       0.382954        10.4207 
  38   0.0000       0.399855        10.8806 
  39   0.0000       0.426156        11.5963 
  40   0.0000       0.428247        11.6532 
  41   0.0000       0.462445        12.5838 
  42   0.0000       0.462449        12.5839 
  43   0.0000       0.495550        13.4846 
  44   0.0000       0.495930        13.4949 
  45   0.0000       0.495944        13.4953 
  46   0.0000       0.557734        15.1767 
  47   0.0000       0.557738        15.1768 
  48   0.0000       0.593873        16.1601 
  49   0.0000       0.593878        16.1602 
  50   0.0000       0.628611        17.1054 
  51   0.0000       0.628626        17.1058 
  52   0.0000       0.629456        17.1284 
  53   0.0000       0.679099        18.4792 
  54   0.0000       0.679109        18.4795 
  55   0.0000       0.689071        18.7506 
  56   0.0000       0.696320        18.9478 
  57   0.0000       0.726215        19.7613 
  58   0.0000       0.726228        19.7617 
  59   0.0000       0.789455        21.4822 
  60   0.0000       0.844608        22.9829 
  61   0.0000       0.975498        26.5446 
  62   0.0000       0.975545        26.5459 
  63   0.0000       1.092528        29.7292 
  64   0.0000       1.181871        32.1604 
  65   0.0000       1.181875        32.1605 
  66   0.0000       1.186737        32.2927 
  67   0.0000       1.218734        33.1634 
  68   0.0000       1.218747        33.1638 
  69   0.0000       1.241857        33.7926 
  70   0.0000       1.241859        33.7927 
  71   0.0000       1.466460        39.9044 
  72   0.0000       1.577067        42.9142 
  73   0.0000       1.581831        43.0438 
  74   0.0000       1.606397        43.7123 
  75   0.0000       1.670890        45.4672 
  76   0.0000       1.681554        45.7574 
  77   0.0000       1.681555        45.7574 
  78   0.0000       1.687839        45.9284 
  79   0.0000       1.687840        45.9285 
  80   0.0000       1.694308        46.1045 
  81   0.0000       1.694314        46.1046 
  82   0.0000       1.761084        47.9215 
  83   0.0000       1.761088        47.9217 
  84   0.0000       1.859774        50.6070 
  85   0.0000       1.910838        51.9966 
  86   0.0000       1.910840        51.9966 
  87   0.0000       1.914487        52.0959 
  88   0.0000       1.918452        52.2037 
  89   0.0000       1.918456        52.2038 
  90   0.0000       2.049688        55.7749 
  91   0.0000       2.068437        56.2850 
  92   0.0000       2.068451        56.2854 
  93   0.0000       2.069917        56.3253 
  94   0.0000       2.222255        60.4706 
  95   0.0000       2.222256        60.4707 
  96   0.0000       2.235561        60.8327 
  97   0.0000       2.235562        60.8327 
  98   0.0000       2.273737        61.8715 
  99   0.0000       2.273742        61.8717 
 100   0.0000       2.483833        67.5885 
 101   0.0000       2.525013        68.7091 
 102   0.0000       2.525014        68.7091 
 103   0.0000       2.567297        69.8597 
 104   0.0000       2.651146        72.1413 
 105   0.0000       2.651150        72.1415 
 106   0.0000       2.651911        72.1622 
 107   0.0000       2.784422        75.7680 
 108   0.0000       2.784425        75.7681 
 109   0.0000       2.816043        76.6284 
 110   0.0000       3.046573        82.9015 
 111   0.0000       3.046580        82.9017 
 112   0.0000       3.169591        86.2490 
 113   0.0000       3.582679        97.4896 

                    ********************************
                    * MULLIKEN POPULATION ANALYSIS *
                    ********************************

-----------------------
MULLIKEN ATOMIC CHARGES
-----------------------
   0 C :    0.004757
   1 C :    0.004758
   2 C :    0.004853
   3 C :    0.004762
   4 C :    0.004756
   5 C :    0.004859
   6 H :   -0.004788
   7 H :   -0.004806
   8 H :   -0.004779
   9 H :   -0.004789
  10 H :   -0.004803
  11 H :   -0.004779
Sum of atomic charges:    0.0000000

--------------------------------
MULLIKEN REDUCED ORBITAL CHARGES
--------------------------------
  0 C s       :     3.166904  s :     3.166904
      pz      :     0.986590  p :     2.795477
      px      :     0.962556
      py      :     0.846332
      dz2     :     0.002240  d :     0.032862
      dxz     :     0.006135
      dyz     :     0.002204
      dx2y2   :     0.012475
      dxy     :     0.009808
  1 C s       :     3.166920  s :     3.166920
      pz      :     0.986585  p :     2.795460
      px      :     0.862257
      py      :     0.946618
      dz2     :     0.002240  d :     0.032861
      dxz     :     0.002743
      dyz     :     0.005596
      dx2y2   :     0.011121
      dxy     :     0.011162
  2 C s       :     3.166882  s :     3.166882
      pz      :     0.986586  p :     2.795404
      px      :     0.888476
      py      :     0.920341
      dz2     :     0.002240  d :     0.032861
      dxz     :     0.003630
      dyz     :     0.004708
      dx2y2   :     0.009828
      dxy     :     0.012454
  3 C s       :     3.166902  s :     3.166902
      pz      :     0.986591  p :     2.795474
      px      :     0.962556
      py      :     0.846327
      dz2     :     0.002240  d :     0.032862
      dxz     :     0.006135
      dyz     :     0.002204
      dx2y2   :     0.012475
      dxy     :     0.009808
  4 C s       :     3.166919  s :     3.166919
      pz      :     0.986584  p :     2.795464
      px      :     0.862262
      py      :     0.946618
      dz2     :     0.002240  d :     0.032862
      dxz     :     0.002743
      dyz     :     0.005596
      dx2y2   :     0.011121
      dxy     :     0.011162
  5 C s       :     3.166884  s :     3.166884
      pz      :     0.986586  p :     2.795396
      px      :     0.888473
      py      :     0.920337
      dz2     :     0.002240  d :     0.032861
      dxz     :     0.003630
      dyz     :     0.004708
      dx2y2   :     0.009828
      dxy     :     0.012454
  6 H s       :     0.982428  s :     0.982428
      pz      :     0.005074  p :     0.022361
      px      :     0.003881
      py      :     0.013405
  7 H s       :     0.982446  s :     0.982446
      pz      :     0.005075  p :     0.022361
      px      :     0.009949
      py      :     0.007338
  8 H s       :     0.982419  s :     0.982419
      pz      :     0.005074  p :     0.022360
      px      :     0.012099
      py      :     0.005187
  9 H s       :     0.982428  s :     0.982428
      pz      :     0.005074  p :     0.022361
      px      :     0.003881
      py      :     0.013405
 10 H s       :     0.982443  s :     0.982443
      pz      :     0.005074  p :     0.022361
      px      :     0.009949
      py      :     0.007337
 11 H s       :     0.982419  s :     0.982419
      pz      :     0.005074  p :     0.022360
      px      :     0.012099
      py      :     0.005187


                     *******************************
                     * LOEWDIN POPULATION ANALYSIS *
                     *******************************

----------------------
LOEWDIN ATOMIC CHARGES
----------------------
   0 C :   -0.029341
   1 C :   -0.029341
   2 C :   -0.029337
   3 C :   -0.029343
   4 C :   -0.029340
   5 C :   -0.029336
   6 H :    0.029339
   7 H :    0.029336
   8 H :    0.029343
   9 H :    0.029340
  10 H :    0.029337
  11 H :    0.029343

-------------------------------
LOEWDIN REDUCED ORBITAL CHARGES
-------------------------------
  0 C s       :     2.863489  s :     2.863489
      pz      :     0.968070  p :     3.076807
      px      :     1.068866
      py      :     1.039871
      dz2     :     0.005867  d :     0.089044
      dxz     :     0.013425
      dyz     :     0.003870
      dx2y2   :     0.035750
      dxy     :     0.030133
  1 C s       :     2.863489  s :     2.863489
      pz      :     0.968067  p :     3.076807
      px      :     1.043849
      py      :     1.064892
      dz2     :     0.005867  d :     0.089044
      dxz     :     0.005180
      dyz     :     0.012115
      dx2y2   :     0.032899
      dxy     :     0.032984
  2 C s       :     2.863491  s :     2.863491
      pz      :     0.968069  p :     3.076801
      px      :     1.050391
      py      :     1.058341
      dz2     :     0.005867  d :     0.089045
      dxz     :     0.007338
      dyz     :     0.009957
      dx2y2   :     0.030177
      dxy     :     0.035707
  3 C s       :     2.863487  s :     2.863487
      pz      :     0.968071  p :     3.076810
      px      :     1.068868
      py      :     1.039871
      dz2     :     0.005867  d :     0.089046
      dxz     :     0.013425
      dyz     :     0.003870
      dx2y2   :     0.035750
      dxy     :     0.030134
  4 C s       :     2.863489  s :     2.863489
      pz      :     0.968066  p :     3.076807
      px      :     1.043849
      py      :     1.064892
      dz2     :     0.005867  d :     0.089045
      dxz     :     0.005180
      dyz     :     0.012115
      dx2y2   :     0.032899
      dxy     :     0.032984
  5 C s       :     2.863491  s :     2.863491
      pz      :     0.968069  p :     3.076800
      px      :     1.050390
      py      :     1.058341
      dz2     :     0.005867  d :     0.089044
      dxz     :     0.007337
      dyz     :     0.009957
      dx2y2   :     0.030176
      dxy     :     0.035707
  6 H s       :     0.902725  s :     0.902725
      pz      :     0.014637  p :     0.067936
      px      :     0.012202
      py      :     0.041097
  7 H s       :     0.902728  s :     0.902728
      pz      :     0.014637  p :     0.067936
      px      :     0.030610
      py      :     0.022689
  8 H s       :     0.902722  s :     0.902722
      pz      :     0.014637  p :     0.067935
      px      :     0.037136
      py      :     0.016163
  9 H s       :     0.902725  s :     0.902725
      pz      :     0.014637  p :     0.067936
      px      :     0.012202
      py      :     0.041097
 10 H s       :     0.902728  s :     0.902728
      pz      :     0.014637  p :     0.067934
      px      :     0.030610
      py      :     0.022688
 11 H s       :     0.902722  s :     0.902722
      pz      :     0.014637  p :     0.067935
      px      :     0.037136
      py      :     0.016163


                      *****************************
                      * MAYER POPULATION ANALYSIS *
                      *****************************

  NA   - Mulliken gross atomic population
  ZA   - Total nuclear charge
  QA   - Mulliken gross atomic charge
  VA   - Mayer's total valence
  BVA  - Mayer's bonded valence
  FA   - Mayer's free valence

  ATOM       NA         ZA         QA         VA         BVA        FA
  0 C      5.9952     6.0000     0.0048     3.8531     3.8531     0.0000
  1 C      5.9952     6.0000     0.0048     3.8531     3.8531     0.0000
  2 C      5.9951     6.0000     0.0049     3.8530     3.8530    -0.0000
  3 C      5.9952     6.0000     0.0048     3.8531     3.8531     0.0000
  4 C      5.9952     6.0000     0.0048     3.8531     3.8531     0.0000
  5 C      5.9951     6.0000     0.0049     3.8530     3.8530    -0.0000
  6 H      1.0048     1.0000    -0.0048     0.9782     0.9782     0.0000
  7 H      1.0048     1.0000    -0.0048     0.9782     0.9782    -0.0000
  8 H      1.0048     1.0000    -0.0048     0.9782     0.9782     0.0000
  9 H      1.0048     1.0000    -0.0048     0.9782     0.9782     0.0000
 10 H      1.0048     1.0000    -0.0048     0.9782     0.9782     0.0000
 11 H      1.0048     1.0000    -0.0048     0.9782     0.9782     0.0000

  Mayer bond orders larger than 0.100000
B(  0-C ,  1-C ) :   1.3907 B(  0-C ,  5-C ) :   1.3907 B(  0-C ,  6-H ) :   0.9807 
B(  1-C ,  2-C ) :   1.3907 B(  1-C , 11-H ) :   0.9807 B(  2-C ,  3-C ) :   1.3907 
B(  2-C , 10-H ) :   0.9807 B(  3-C ,  4-C ) :   1.3907 B(  3-C ,  9-H ) :   0.9807 
B(  4-C ,  5-C ) :   1.3907 B(  4-C ,  8-H ) :   0.9807 B(  5-C ,  7-H ) :   0.9807 


-------
TIMINGS
-------

Total SCF time: 0 days 0 hours 0 min 8 sec 

Total time                  ....       8.106 sec
Sum of individual times     ....       7.903 sec  ( 97.5%)

Fock matrix formation       ....       6.716 sec  ( 82.9%)
  Split-RI-J                ....       1.567 sec  ( 23.3% of F)
  XC integration            ....       5.097 sec  ( 75.9% of F)
    Basis function eval.    ....       1.929 sec  ( 37.8% of XC)
    Density eval.           ....       1.237 sec  ( 24.3% of XC)
    XC-Functional eval.     ....       0.477 sec  (  9.4% of XC)
    XC-Potential eval.      ....       1.177 sec  ( 23.1% of XC)
Diagonalization             ....       0.020 sec  (  0.2%)
Density matrix formation    ....       0.005 sec  (  0.1%)
Population analysis         ....       0.033 sec  (  0.4%)
Initial guess               ....       0.332 sec  (  4.1%)
Orbital Transformation      ....       0.000 sec  (  0.0%)
Orbital Orthonormalization  ....       0.000 sec  (  0.0%)
DIIS solution               ....       0.037 sec  (  0.5%)
SOSCF solution              ....       0.014 sec  (  0.2%)
Grid generation             ....       0.746 sec  (  9.2%)

Maximum memory used throughout the entire SCF-calculation: 30.1 MB

-------------------------   --------------------
FINAL SINGLE POINT ENERGY      -232.077067275859
-------------------------   --------------------


                            ***************************************
                            *     ORCA property calculations      *
                            ***************************************

                                    ---------------------
                                    Active property flags
                                    ---------------------
   (+) Dipole Moment


------------------------------------------------------------------------------
                       ORCA ELECTRIC PROPERTIES CALCULATION
------------------------------------------------------------------------------

Dipole Moment Calculation                       ... on
Quadrupole Moment Calculation                   ... off
Polarizability Calculation                      ... off
GBWName                                         ... benzen_infrared_spectra_without_opt.gbw
Electron density                                ... benzen_infrared_spectra_without_opt.scfp
The origin for moment calculation is the CENTER OF MASS  = (-7.464217,  0.406764  0.000000)

-------------
DIPOLE MOMENT
-------------
                                X             Y             Z
Electronic contribution:      0.00001       0.00000      -0.00000
Nuclear contribution   :     -0.00001      -0.00000       0.00000
                        -----------------------------------------
Total Dipole Moment    :      0.00000       0.00000      -0.00000
                        -----------------------------------------
Magnitude (a.u.)       :      0.00000
Magnitude (Debye)      :      0.00001



--------------------
Rotational spectrum 
--------------------
 
Rotational constants in cm-1:     0.190144     0.190142     0.095071 
Rotational constants in MHz :  5700.361471  5700.315818  2850.169322 

 Dipole components along the rotational axes: 
x,y,z [a.u.] :    -0.000003    -0.000004    -0.000000 
x,y,z [Debye]:    -0.000007    -0.000011    -0.000000 

 

-------------------------------------------------------------------------------
                               ORCA SCF HESSIAN
-------------------------------------------------------------------------------

                   --------- SHARK INITIALIZATION DONE ---------

Hessian of the Kohn-Sham DFT energy:
Kohn-Sham wavefunction type                      ... RKS
Hartree-Fock exchange scaling                    ...    0.000
Number of operators                              ...    1
Number of atoms                                  ...   12
Basis set dimensions                             ...  114
Integral neglect threshold                       ... 1.0e-10
Integral primitive cutoff                        ... 1.0e-11

Setting up DFT Hessian calculations              ... 

HESS GRID
---------

General Integration Accuracy     IntAcc      ... 4.629
Radial Grid Type                 RadialGrid  ... OptM3 with GC (2021)
Angular Grid (max. ang.)         AngularGrid ... 5 (Lebedev-434)
Angular grid pruning method      GridPruning ... 4 (adaptive)
Weight generation scheme         WeightScheme... Becke
Basis function cutoff            BFCut       ... 1.0000e-10
Integration weight cutoff        WCut        ... 1.0000e-14
Angular grids for H and He will be reduced by one unit
Partially contracted basis set               ... off
Rotationally invariant grid construction     ... off

Total number of grid points                  ...    86426
Total number of batches                      ...     1358
Average number of points per batch           ...       63
Average number of grid points per atom       ...     7202

Building densities                               ... done   (      0.0 sec)
Calculating rho(r) on the grid                   ... done   (      0.8 sec)
Building xc-kernel on the grid                   ... done   (      0.2 sec)
                                                     done   (      2.2 sec)

Nuclear repulsion Hessian  (SHARK)               ... done   (      0.0 sec)

----------------------------------------------
Forming right-hand sides of CP-SCF equations     ...
----------------------------------------------
One electron integral derivatives  (SHARK)       ... done   (      0.1 sec)
Transforming the overlap derivative matrices     ... done   (      0.0 sec)
Making the Q(x) pseudodensities                  ... done   (      0.0 sec)
Adding the E*S(x)*S(y) terms to the Hessian      ... done   (      0.0 sec)
Calculating energy weighted overlap derivatives  ... done   (      0.5 sec)
Two electron integral derivatives (SHARK-RI)     ... done   (      1.9 sec)
Exchange-correlation integral derivatives        ... done   (     52.8 sec)
tr(F(y)Q(x)) contribution to the Hessian         ... done   (      0.0 sec)
Response fock operator R(S(x)) (SHARK-RI)        ... done   (      0.8 sec)
XC Response fock operator R(S(x))                ... done   (     14.4 sec)
tr(F(y)S(x)) contribution to the Hessian         ... done   (      0.0 sec)
Transforming and finalizing RHSs                 ... done   (      0.0 sec)

----------------------------------------------
Solving the CP-SCF equations (RI)                ...
----------------------------------------------
     CP-SCF ITERATION   0:   4.4839e-01 (   2.5 sec   0/ 36 done)
     CP-SCF ITERATION   1:   4.8552e-02 (   2.5 sec  12/ 36 done)
     CP-SCF ITERATION   2:   1.5080e-02 (   1.8 sec  12/ 36 done)
     CP-SCF ITERATION   3:   3.2471e-03 (   1.8 sec  18/ 36 done)
     CP-SCF ITERATION   4:   9.1757e-04 (   1.4 sec  36/ 36 done)
                    *** THE CP-SCF HAS CONVERGED ***

                                                 ... done   (     10.2 sec)
Forming perturbed density Hessian contributions  ... done   (      0.0 sec)
2nd integral derivative contribs (SHARK-RI)      ... done   (      7.7 sec)
Exchange-correlation Hessian                     ... done   (     43.2 sec)
Dipole derivatives                               ... (center of mass: -7.464217,  0.406764  0.000000)done   (      0.2 sec)

Total SCF Hessian time: 0 days 0 hours 2 min 14 sec 

Writing the Hessian file to the disk             ... done


Maximum memory used throughout the entire SCFHESS-calculation: 174.7 MB

-----------------------
VIBRATIONAL FREQUENCIES
-----------------------

Scaling factor for frequencies =  1.000000000  (already applied!)

   0:         0.00 cm**-1
   1:         0.00 cm**-1
   2:         0.00 cm**-1
   3:         0.00 cm**-1
   4:         0.00 cm**-1
   5:         0.00 cm**-1
   6:       368.46 cm**-1
   7:       368.68 cm**-1
   8:       579.40 cm**-1
   9:       595.01 cm**-1
  10:       595.07 cm**-1
  11:       703.47 cm**-1
  12:       780.52 cm**-1
  13:       780.58 cm**-1
  14:       922.15 cm**-1
  15:       922.19 cm**-1
  16:       959.12 cm**-1
  17:       986.01 cm**-1
  18:      1027.53 cm**-1
  19:      1030.53 cm**-1
  20:      1031.16 cm**-1
  21:      1105.66 cm**-1
  22:      1138.21 cm**-1
  23:      1138.41 cm**-1
  24:      1298.35 cm**-1
  25:      1424.08 cm**-1
  26:      1471.90 cm**-1
  27:      1472.01 cm**-1
  28:      1643.98 cm**-1
  29:      1644.07 cm**-1
  30:      3219.39 cm**-1
  31:      3228.82 cm**-1
  32:      3228.95 cm**-1
  33:      3242.94 cm**-1
  34:      3243.10 cm**-1
  35:      3252.25 cm**-1


------------
NORMAL MODES
------------

These modes are the Cartesian displacements weighted by the diagonal matrix
M(i,i)=1/sqrt(m[i]) where m[i] is the mass of the displaced atom
Thus, these vectors are normalized but *not* orthogonal

                  0          1          2          3          4          5    
      0       0.000000   0.000000   0.000000   0.000000   0.000000   0.000000
      1       0.000000   0.000000   0.000000   0.000000   0.000000   0.000000
      2       0.000000   0.000000   0.000000   0.000000   0.000000   0.000000
      3       0.000000   0.000000   0.000000   0.000000   0.000000   0.000000
      4       0.000000   0.000000   0.000000   0.000000   0.000000   0.000000
      5       0.000000   0.000000   0.000000   0.000000   0.000000   0.000000
      6       0.000000   0.000000   0.000000   0.000000   0.000000   0.000000
      7       0.000000   0.000000   0.000000   0.000000   0.000000   0.000000
      8       0.000000   0.000000   0.000000   0.000000   0.000000   0.000000
      9       0.000000   0.000000   0.000000   0.000000   0.000000   0.000000
     10       0.000000   0.000000   0.000000   0.000000   0.000000   0.000000
     11       0.000000   0.000000   0.000000   0.000000   0.000000   0.000000
     12       0.000000   0.000000   0.000000   0.000000   0.000000   0.000000
     13       0.000000   0.000000   0.000000   0.000000   0.000000   0.000000
     14       0.000000   0.000000   0.000000   0.000000   0.000000   0.000000
     15       0.000000   0.000000   0.000000   0.000000   0.000000   0.000000
     16       0.000000   0.000000   0.000000   0.000000   0.000000   0.000000
     17       0.000000   0.000000   0.000000   0.000000   0.000000   0.000000
     18       0.000000   0.000000   0.000000   0.000000   0.000000   0.000000
     19       0.000000   0.000000   0.000000   0.000000   0.000000   0.000000
     20       0.000000   0.000000   0.000000   0.000000   0.000000   0.000000
     21       0.000000   0.000000   0.000000   0.000000   0.000000   0.000000
     22       0.000000   0.000000   0.000000   0.000000   0.000000   0.000000
     23       0.000000   0.000000   0.000000   0.000000   0.000000   0.000000
     24       0.000000   0.000000   0.000000   0.000000   0.000000   0.000000
     25       0.000000   0.000000   0.000000   0.000000   0.000000   0.000000
     26       0.000000   0.000000   0.000000   0.000000   0.000000   0.000000
     27       0.000000   0.000000   0.000000   0.000000   0.000000   0.000000
     28       0.000000   0.000000   0.000000   0.000000   0.000000   0.000000
     29       0.000000   0.000000   0.000000   0.000000   0.000000   0.000000
     30       0.000000   0.000000   0.000000   0.000000   0.000000   0.000000
     31       0.000000   0.000000   0.000000   0.000000   0.000000   0.000000
     32       0.000000   0.000000   0.000000   0.000000   0.000000   0.000000
     33       0.000000   0.000000   0.000000   0.000000   0.000000   0.000000
     34       0.000000   0.000000   0.000000   0.000000   0.000000   0.000000
     35       0.000000   0.000000   0.000000   0.000000   0.000000   0.000000
                  6          7          8          9         10         11    
      0       0.000000   0.000000   0.000000   0.141229   0.050125  -0.000000
      1      -0.000000  -0.000000  -0.000000   0.032102  -0.345856   0.000000
      2       0.190169   0.111939  -0.034181   0.000000   0.000000   0.175696
      3       0.000000  -0.000000   0.000000   0.259615  -0.199406  -0.000000
      4      -0.000000   0.000000  -0.000000  -0.181280  -0.055099   0.000000
      5      -0.192047   0.108697  -0.034139   0.000000   0.000000  -0.175724
      6       0.000000   0.000000  -0.000000  -0.188423  -0.222498   0.000000
      7       0.000000   0.000000  -0.000000  -0.240429  -0.016118   0.000000
      8       0.001862  -0.220682  -0.034099   0.000000   0.000000   0.175743
      9      -0.000000   0.000000  -0.000000  -0.141227  -0.050125  -0.000000
     10       0.000000  -0.000000   0.000000  -0.032102   0.345857  -0.000000
     11       0.190170   0.111940  -0.034176   0.000000   0.000000  -0.175699
     12      -0.000000  -0.000000  -0.000000  -0.259615   0.199407   0.000000
     13       0.000000   0.000000   0.000000   0.181282   0.055099  -0.000000
     14      -0.192048   0.108699  -0.034144   0.000000   0.000000   0.175720
     15      -0.000000  -0.000000   0.000000   0.188421   0.222498   0.000000
     16      -0.000000  -0.000000   0.000000   0.240428   0.016117   0.000000
     17       0.001865  -0.220675  -0.034109   0.000000   0.000000  -0.175740
     18      -0.000000   0.000000  -0.000000  -0.262227   0.033869   0.000000
     19      -0.000000   0.000000  -0.000000  -0.019684  -0.346568   0.000000
     20       0.459814   0.270810   0.406792  -0.000000  -0.000000   0.368663
     21       0.000000  -0.000000   0.000000   0.319141   0.013495  -0.000000
     22      -0.000000  -0.000000   0.000000   0.067026   0.289178   0.000000
     23       0.004576  -0.533349   0.406941  -0.000000  -0.000000  -0.368360
     24      -0.000000  -0.000000  -0.000000  -0.331545   0.059919  -0.000000
     25      -0.000000   0.000000  -0.000000   0.006145  -0.276873  -0.000000
     26      -0.464223   0.263004   0.406776  -0.000000  -0.000000   0.368494
     27       0.000000   0.000000   0.000000   0.262229  -0.033864  -0.000000
     28       0.000000  -0.000000   0.000000   0.019684   0.346569  -0.000000
     29       0.459814   0.270809   0.406777  -0.000000  -0.000000  -0.368629
     30       0.000000  -0.000000  -0.000000  -0.319133  -0.013509  -0.000000
     31       0.000000   0.000000  -0.000000  -0.067039  -0.289163   0.000000
     32       0.004582  -0.533318   0.406858  -0.000000  -0.000000   0.368352
     33       0.000000  -0.000000   0.000000   0.331545  -0.059919  -0.000000
     34       0.000000  -0.000000   0.000000  -0.006141   0.276871  -0.000000
     35      -0.464217   0.263011   0.406765  -0.000000  -0.000000  -0.368474
                 12         13         14         15         16         17    
      0      -0.000000  -0.000000   0.000000  -0.000000   0.000000  -0.036882
      1       0.000000   0.000000  -0.000000  -0.000000  -0.000000   0.287598
      2      -0.083444  -0.017789  -0.111009  -0.029285   0.070738  -0.000000
      3       0.000000   0.000000   0.000000   0.000000   0.000000   0.268095
      4       0.000000  -0.000000  -0.000000  -0.000000  -0.000000  -0.111887
      5      -0.026280  -0.081139   0.030142   0.110768  -0.070781   0.000000
      6       0.000000  -0.000000   0.000000   0.000000   0.000000  -0.231182
      7       0.000000  -0.000000   0.000000   0.000000   0.000000  -0.175931
      8       0.057075  -0.063348   0.080870  -0.081474   0.070783   0.000000
      9       0.000000   0.000000  -0.000000  -0.000000  -0.000000  -0.036881
     10      -0.000000  -0.000000   0.000000   0.000000   0.000000   0.287599
     11       0.083454   0.017775  -0.110978  -0.029311  -0.070761  -0.000000
     12      -0.000000  -0.000000  -0.000000  -0.000000  -0.000000   0.268093
     13      -0.000000  -0.000000   0.000000   0.000000   0.000000  -0.111888
     14       0.026289   0.081127   0.030109   0.110797   0.070764  -0.000000
     15      -0.000000  -0.000000   0.000000  -0.000000  -0.000000  -0.231184
     16      -0.000000  -0.000000  -0.000000  -0.000000  -0.000000  -0.175930
     17      -0.057086   0.063365   0.080883  -0.081484  -0.070739   0.000000
     18      -0.000000  -0.000000  -0.000000  -0.000000  -0.000000  -0.036383
     19       0.000000   0.000000  -0.000000  -0.000000  -0.000000   0.284297
     20       0.558439   0.119116   0.547130   0.144333  -0.401935   0.000000
     21      -0.000000  -0.000000   0.000000   0.000000  -0.000000  -0.229626
     22       0.000000   0.000000  -0.000000  -0.000000  -0.000000  -0.172565
     23       0.382327  -0.424200  -0.398664   0.401564   0.401944  -0.000000
     24      -0.000000  -0.000000  -0.000000  -0.000000  -0.000000   0.265655
     25      -0.000000  -0.000000  -0.000000  -0.000000  -0.000000  -0.109125
     26      -0.176182  -0.543078  -0.148419  -0.546096  -0.402107   0.000000
     27      -0.000000  -0.000000  -0.000000   0.000000  -0.000000  -0.036378
     28       0.000000  -0.000000   0.000000   0.000000   0.000000   0.284299
     29      -0.558503  -0.119048   0.546970   0.144471   0.402049   0.000000
     30       0.000000   0.000000   0.000000   0.000000   0.000000  -0.229625
     31      -0.000000  -0.000000   0.000000  -0.000000  -0.000000  -0.172562
     32      -0.382312   0.424170  -0.398619   0.401533  -0.402191  -0.000000
     33       0.000000   0.000000  -0.000000   0.000000   0.000000   0.265657
     34       0.000000   0.000000  -0.000000   0.000000  -0.000000  -0.109123
     35       0.176122   0.543151  -0.148588  -0.545942   0.402187  -0.000000
                 18         19         20         21         22         23    
      0       0.035005   0.063497   0.006299   0.009787   0.049106   0.000781
      1      -0.272369  -0.002215  -0.100115   0.001239   0.006004  -0.014596
      2      -0.000000  -0.000000  -0.000000   0.000000   0.000000  -0.000000
      3       0.253242  -0.060892   0.073756  -0.003732   0.001509  -0.023294
      4      -0.105826   0.065550   0.024564  -0.009378  -0.028652  -0.036189
      5       0.000000  -0.000000   0.000000  -0.000000   0.000000  -0.000000
      6       0.218125  -0.057361  -0.067449  -0.006005   0.004289  -0.031933
      7       0.166252  -0.076065   0.021013   0.008156  -0.026844   0.030377
      8      -0.000000   0.000000   0.000000   0.000000  -0.000000  -0.000000
      9      -0.034841   0.063515   0.006318   0.009774  -0.049106  -0.000780
     10       0.272045  -0.002353  -0.100330   0.001230  -0.005997   0.014585
     11       0.000000  -0.000000  -0.000000  -0.000000   0.000000   0.000000
     12      -0.253137  -0.060759   0.073949  -0.003740  -0.001514   0.023303
     13       0.106036   0.065495   0.024478  -0.009384   0.028652   0.036188
     14      -0.000000   0.000000   0.000000   0.000000   0.000000   0.000000
     15      -0.218466  -0.057252  -0.067284  -0.006012  -0.004285   0.031923
     16      -0.166335  -0.075978   0.021149   0.008170   0.026841  -0.030368
     17       0.000000   0.000000  -0.000000  -0.000000  -0.000000  -0.000000
     18       0.039556   0.549336  -0.042628   0.404335   0.570770  -0.010991
     19      -0.299837   0.059164  -0.114734   0.051782   0.072850  -0.015572
     20       0.000000   0.000000   0.000000  -0.000000  -0.000000   0.000000
     21      -0.241012   0.057935  -0.341720  -0.247402  -0.157102   0.310768
     22      -0.182667  -0.239727   0.375750   0.325019   0.226600  -0.396757
     23      -0.000000  -0.000000   0.000000   0.000000   0.000000   0.000000
     24      -0.278500   0.043768   0.232059  -0.157382   0.103813   0.196240
     25       0.117388   0.332971   0.389999  -0.376930   0.279336   0.450551
     26       0.000000   0.000000  -0.000000  -0.000000  -0.000000  -0.000000
     27      -0.038537   0.549351  -0.042634   0.404222  -0.570866   0.011111
     28       0.299594   0.059011  -0.114975   0.051759  -0.072855   0.015575
     29      -0.000000   0.000000   0.000000   0.000000   0.000000  -0.000000
     30       0.240047   0.057801  -0.341845  -0.247270   0.157181  -0.310872
     31       0.183359  -0.239805   0.375529   0.324843  -0.226704   0.396892
     32       0.000000  -0.000000  -0.000000  -0.000000   0.000000   0.000000
     33       0.279312   0.043622   0.231854  -0.157356  -0.103791  -0.196264
     34      -0.115491   0.333032   0.390115  -0.376879  -0.279271  -0.450635
     35      -0.000000   0.000000   0.000000   0.000000   0.000000   0.000000
                 24         25         26         27         28         29    
      0       0.059980   0.388778  -0.159981   0.065507  -0.024877   0.385286
      1       0.007677   0.049704  -0.055959  -0.105258  -0.169664   0.029468
      2       0.000000  -0.000000  -0.000000   0.000000  -0.000000  -0.000000
      3       0.023252  -0.151070   0.091663   0.089299   0.077508  -0.200093
      4       0.055557  -0.361211  -0.079640   0.146377   0.354904  -0.082126
      5      -0.000000  -0.000000   0.000000   0.000000  -0.000000  -0.000000
      6      -0.036475  -0.237696  -0.013660  -0.140297   0.109236   0.247195
      7       0.047938   0.311613   0.150114   0.040862  -0.307793  -0.104739
      8       0.000000  -0.000000   0.000000  -0.000000  -0.000000   0.000000
      9      -0.059980   0.388734  -0.159986   0.065486   0.024858  -0.385325
     10      -0.007671   0.049696  -0.055959  -0.105255   0.169673  -0.029452
     11      -0.000000   0.000000   0.000000  -0.000000   0.000000   0.000000
     12      -0.023257  -0.151040   0.091662   0.089310  -0.077514   0.200090
     13      -0.055553  -0.361226  -0.079643   0.146363  -0.354913   0.082127
     14       0.000000   0.000000  -0.000000  -0.000000   0.000000   0.000000
     15       0.036481  -0.237716  -0.013659  -0.140311  -0.109212  -0.247154
     16      -0.047947   0.311638   0.150113   0.040879   0.307784   0.104712
     17      -0.000000  -0.000000   0.000000   0.000000  -0.000000   0.000000
     18      -0.399359  -0.113797   0.495758  -0.135873   0.064309  -0.336167
     19      -0.051177  -0.014797   0.020640  -0.154873  -0.181165  -0.065831
     20      -0.000000   0.000000  -0.000000   0.000000  -0.000000  -0.000000
     21      -0.245192   0.069787   0.308454   0.129328   0.257375   0.004948
     22       0.321706  -0.091808  -0.244952  -0.343132  -0.150610  -0.256362
     23       0.000000  -0.000000  -0.000000   0.000000   0.000000  -0.000000
     24       0.155904   0.044053   0.172622  -0.166205   0.190964   0.108074
     25       0.372918   0.105319   0.051399  -0.478896   0.263840  -0.192432
     26      -0.000000   0.000000   0.000000  -0.000000  -0.000000  -0.000000
     27       0.399340  -0.113708   0.495770  -0.135840  -0.064298   0.336183
     28       0.051181  -0.014789   0.020642  -0.154863   0.181181   0.065860
     29       0.000000  -0.000000  -0.000000   0.000000  -0.000000  -0.000000
     30       0.245202   0.069775   0.308477   0.129326  -0.257387  -0.004964
     31      -0.321723  -0.091799  -0.244987  -0.343135   0.150661   0.256421
     32       0.000000   0.000000  -0.000000   0.000000   0.000000  -0.000000
     33      -0.155902   0.044016   0.172620  -0.166223  -0.190953  -0.108062
     34      -0.372897   0.105325   0.051393  -0.478897  -0.263807   0.192474
     35       0.000000   0.000000   0.000000  -0.000000   0.000000   0.000000
                 30         31         32         33         34         35    
      0      -0.004287   0.005975   0.003012   0.007331  -0.001599   0.004771
      1       0.033502  -0.048609  -0.005202  -0.038048   0.034141  -0.037209
      2       0.000000  -0.000000   0.000000  -0.000000  -0.000000   0.000000
      3       0.031017  -0.017328  -0.041715  -0.008161  -0.047103   0.034814
      4      -0.012952   0.009578   0.016417   0.007323   0.018911  -0.014557
      5       0.000000  -0.000000  -0.000000  -0.000000  -0.000000   0.000000
      6      -0.027021  -0.022027   0.032444  -0.039586  -0.010901   0.029711
      7      -0.020603  -0.019168   0.022972  -0.028688  -0.012690   0.022645
      8      -0.000000  -0.000000   0.000000   0.000000  -0.000000   0.000000
      9      -0.004288  -0.005951  -0.003043   0.007352  -0.001592  -0.004751
     10       0.033569   0.048478   0.005376  -0.038263   0.034069   0.037140
     11      -0.000000   0.000000   0.000000   0.000000   0.000000  -0.000000
     12       0.030958   0.017209   0.041875  -0.007956  -0.047033  -0.034875
     13      -0.012936  -0.009521  -0.016494   0.007245   0.018885   0.014596
     14      -0.000000   0.000000   0.000000   0.000000   0.000000   0.000000
     15      -0.026850   0.022003  -0.032406  -0.039613  -0.010911  -0.029886
     16      -0.020473   0.019150  -0.022944  -0.028709  -0.012697  -0.022779
     17       0.000000  -0.000000  -0.000000   0.000000   0.000000  -0.000000
     18       0.051723  -0.072660  -0.009793  -0.057108   0.045510  -0.051570
     19      -0.403763   0.568405   0.063991   0.426913  -0.376595   0.402499
     20      -0.000000   0.000000   0.000000  -0.000000   0.000000  -0.000000
     21       0.323662  -0.270207   0.369846   0.433951   0.142905   0.323340
     22       0.246591  -0.207522   0.280633   0.329172   0.113202   0.246372
     23      -0.000000   0.000000  -0.000000  -0.000000  -0.000000   0.000000
     24      -0.373264  -0.210555  -0.486157   0.102795   0.521138   0.377576
     25       0.156036   0.089634   0.202586  -0.046840  -0.217102  -0.157870
     26       0.000000  -0.000000   0.000000  -0.000000  -0.000000  -0.000000
     27       0.051821   0.072456   0.010063  -0.057410   0.045410   0.051460
     28      -0.404563  -0.566869  -0.066026   0.429308  -0.375797  -0.401732
     29      -0.000000  -0.000000  -0.000000  -0.000000  -0.000000   0.000000
     30       0.325643   0.270422  -0.370189   0.433536   0.142754  -0.321367
     31       0.248098   0.207684  -0.280891   0.328853   0.113086  -0.244866
     32       0.000000  -0.000000  -0.000000  -0.000000   0.000000  -0.000000
     33      -0.373950   0.211971   0.484249   0.105051   0.521909  -0.376871
     34       0.156317  -0.090233  -0.201778  -0.047778  -0.217422   0.157562
     35      -0.000000   0.000000   0.000000   0.000000  -0.000000  -0.000000


-----------
IR SPECTRUM
-----------

 Mode   freq       eps      Int      T**2         TX        TY        TZ
       cm**-1   L/(mol*cm) km/mol    a.u.
----------------------------------------------------------------------------
  6:    368.46   0.000000    0.00  0.000000  (-0.000000  0.000000  0.000025)
  7:    368.68   0.000000    0.00  0.000000  (-0.000000  0.000000  0.000020)
  8:    579.40   0.015939   80.55  0.008584  ( 0.000000 -0.000000  0.092653)
  9:    595.01   0.000000    0.00  0.000000  ( 0.000000 -0.000000 -0.000000)
 10:    595.07   0.000000    0.00  0.000000  (-0.000000  0.000000 -0.000000)
 11:    703.47   0.000000    0.00  0.000000  ( 0.000000 -0.000000  0.000001)
 12:    780.52   0.000000    0.00  0.000000  (-0.000000 -0.000000 -0.000003)
 13:    780.58   0.000000    0.00  0.000000  (-0.000000  0.000000  0.000003)
 14:    922.15   0.000000    0.00  0.000000  (-0.000000 -0.000000 -0.000028)
 15:    922.19   0.000000    0.00  0.000000  ( 0.000000  0.000000  0.000007)
 16:    959.12   0.000000    0.00  0.000000  ( 0.000000 -0.000000 -0.000001)
 17:    986.01   0.000000    0.00  0.000000  ( 0.000072  0.000168  0.000000)
 18:   1027.53   0.000000    0.00  0.000000  ( 0.000006  0.000017 -0.000000)
 19:   1030.53   0.001301    6.58  0.000394  ( 0.019268  0.004770 -0.000000)
 20:   1031.16   0.001145    5.79  0.000347  (-0.004459  0.018077  0.000000)
 21:   1105.66   0.000004    0.02  0.000001  (-0.001011  0.000073 -0.000000)
 22:   1138.21   0.000000    0.00  0.000000  ( 0.000000 -0.000001  0.000000)
 23:   1138.41   0.000000    0.00  0.000000  (-0.000000  0.000001  0.000000)
 24:   1298.35   0.000000    0.00  0.000000  (-0.000000  0.000000 -0.000000)
 25:   1424.08   0.000000    0.00  0.000000  ( 0.000053 -0.000024 -0.000000)
 26:   1471.90   0.001144    5.78  0.000243  ( 0.015386 -0.002418 -0.000000)
 27:   1472.01   0.001078    5.45  0.000229  (-0.002565 -0.014901  0.000000)
 28:   1643.98   0.000000    0.00  0.000000  (-0.000000  0.000000  0.000000)
 29:   1644.07   0.000000    0.00  0.000000  ( 0.000000  0.000001 -0.000000)
 30:   3219.39   0.000001    0.00  0.000000  (-0.000137 -0.000176 -0.000000)
 31:   3228.82   0.000000    0.00  0.000000  (-0.000021 -0.000016  0.000000)
 32:   3228.95   0.000000    0.00  0.000000  ( 0.000030  0.000022  0.000000)
 33:   3242.94   0.006389   32.29  0.000615  (-0.014044 -0.020435 -0.000000)
 34:   3243.10   0.006287   31.77  0.000605  (-0.020385  0.013761 -0.000000)
 35:   3252.25   0.000000    0.00  0.000000  (-0.000037 -0.000028  0.000000)

* The epsilon (eps) is given for a Dirac delta lineshape.
** The dipole moment derivative (T) already includes vibrational overlap.

The first frequency considered to be a vibration is 6
The total number of vibrations considered is 30


--------------------------
THERMOCHEMISTRY AT 298.15K
--------------------------

Temperature         ... 298.15 K
Pressure            ... 1.00 atm
Total Mass          ... 78.11 AMU

Throughout the following assumptions are being made:
  (1) The electronic state is orbitally nondegenerate
  (2) There are no thermally accessible electronically excited states
  (3) Hindered rotations indicated by low frequency modes are not
      treated as such but are treated as vibrations and this may
      cause some error
  (4) All equations used are the standard statistical mechanics
      equations for an ideal gas
  (5) All vibrations are strictly harmonic

freq.     368.46  E(vib)   ...       0.21 
freq.     368.68  E(vib)   ...       0.21 
freq.     579.40  E(vib)   ...       0.11 
freq.     595.01  E(vib)   ...       0.10 
freq.     595.07  E(vib)   ...       0.10 
freq.     703.47  E(vib)   ...       0.07 
freq.     780.52  E(vib)   ...       0.05 
freq.     780.58  E(vib)   ...       0.05 
freq.     922.15  E(vib)   ...       0.03 
freq.     922.19  E(vib)   ...       0.03 
freq.     959.12  E(vib)   ...       0.03 
freq.     986.01  E(vib)   ...       0.02 
freq.    1027.53  E(vib)   ...       0.02 
freq.    1030.53  E(vib)   ...       0.02 
freq.    1031.16  E(vib)   ...       0.02 
freq.    1105.66  E(vib)   ...       0.02 
freq.    1138.21  E(vib)   ...       0.01 
freq.    1138.41  E(vib)   ...       0.01 
freq.    1298.35  E(vib)   ...       0.01 
freq.    1424.08  E(vib)   ...       0.00 
freq.    1471.90  E(vib)   ...       0.00 
freq.    1472.01  E(vib)   ...       0.00 
freq.    1643.98  E(vib)   ...       0.00 
freq.    1644.07  E(vib)   ...       0.00 
freq.    3219.39  E(vib)   ...       0.00 
freq.    3228.82  E(vib)   ...       0.00 
freq.    3228.95  E(vib)   ...       0.00 
freq.    3242.94  E(vib)   ...       0.00 
freq.    3243.10  E(vib)   ...       0.00 
freq.    3252.25  E(vib)   ...       0.00 

------------
INNER ENERGY
------------

The inner energy is: U= E(el) + E(ZPE) + E(vib) + E(rot) + E(trans)
    E(el)   - is the total energy from the electronic structure calculation
              = E(kin-el) + E(nuc-el) + E(el-el) + E(nuc-nuc)
    E(ZPE)  - the the zero temperature vibrational energy from the frequency calculation
    E(vib)  - the the finite temperature correction to E(ZPE) due to population
              of excited vibrational states
    E(rot)  - is the rotational thermal energy
    E(trans)- is the translational thermal energy

Summary of contributions to the inner energy U:
Electronic energy                ...   -232.07706728 Eh
Zero point energy                ...      0.09887700 Eh      62.05 kcal/mol
Thermal vibrational correction   ...      0.00184080 Eh       1.16 kcal/mol
Thermal rotational correction    ...      0.00141627 Eh       0.89 kcal/mol
Thermal translational correction ...      0.00141627 Eh       0.89 kcal/mol
-----------------------------------------------------------------------
Total thermal energy                   -231.97351693 Eh


Summary of corrections to the electronic energy:
(perhaps to be used in another calculation)
Total thermal correction                  0.00467334 Eh       2.93 kcal/mol
Non-thermal (ZPE) correction              0.09887700 Eh      62.05 kcal/mol
-----------------------------------------------------------------------
Total correction                          0.10355034 Eh      64.98 kcal/mol


--------
ENTHALPY
--------

The enthalpy is H = U + kB*T
                kB is Boltzmann's constant
Total free energy                 ...   -231.97351693 Eh 
Thermal Enthalpy correction       ...      0.00094421 Eh       0.59 kcal/mol
-----------------------------------------------------------------------
Total Enthalpy                    ...   -231.97257273 Eh


Note: Rotational entropy computed according to Herzberg 
Infrared and Raman Spectra, Chapter V,1, Van Nostrand Reinhold, 1945 
Point Group:  D6h, Symmetry Number:  12  
Rotational constants in cm-1:     0.190144     0.190142     0.095071 

Vibrational entropy computed according to the QRRHO of S. Grimme
Chem.Eur.J. 2012 18 9955


-------
ENTROPY
-------

The entropy contributions are T*S = T*(S(el)+S(vib)+S(rot)+S(trans))
     S(el)   - electronic entropy
     S(vib)  - vibrational entropy
     S(rot)  - rotational entropy
     S(trans)- translational entropy
The entropies will be listed as multiplied by the temperature to get
units of energy

Electronic entropy                ...      0.00000000 Eh      0.00 kcal/mol
Vibrational entropy               ...      0.00251637 Eh      1.58 kcal/mol
Rotational entropy                ...      0.00984282 Eh      6.18 kcal/mol
Translational entropy             ...      0.01852142 Eh     11.62 kcal/mol
-----------------------------------------------------------------------
Final entropy term                ...      0.03088061 Eh     19.38 kcal/mol

In case the symmetry of your molecule has not been determined correctly
or in case you have a reason to use a different symmetry number we print 
out the resulting rotational entropy values for sn=1,12 :
 --------------------------------------------------------
|  sn= 1 | S(rot)=       0.01218902 Eh      7.65 kcal/mol|
|  sn= 2 | S(rot)=       0.01153456 Eh      7.24 kcal/mol|
|  sn= 3 | S(rot)=       0.01115173 Eh      7.00 kcal/mol|
|  sn= 4 | S(rot)=       0.01088011 Eh      6.83 kcal/mol|
|  sn= 5 | S(rot)=       0.01066942 Eh      6.70 kcal/mol|
|  sn= 6 | S(rot)=       0.01049728 Eh      6.59 kcal/mol|
|  sn= 7 | S(rot)=       0.01035173 Eh      6.50 kcal/mol|
|  sn= 8 | S(rot)=       0.01022565 Eh      6.42 kcal/mol|
|  sn= 9 | S(rot)=       0.01011444 Eh      6.35 kcal/mol|
|  sn=10 | S(rot)=       0.01001496 Eh      6.28 kcal/mol|
|  sn=11 | S(rot)=       0.00992497 Eh      6.23 kcal/mol|
|  sn=12 | S(rot)=       0.00984282 Eh      6.18 kcal/mol|
 --------------------------------------------------------


-------------------
GIBBS FREE ENERGY
-------------------

The Gibbs free energy is G = H - T*S

Total enthalpy                    ...   -231.97257273 Eh 
Total entropy correction          ...     -0.03088061 Eh    -19.38 kcal/mol
-----------------------------------------------------------------------
Final Gibbs free energy         ...   -232.00345334 Eh

For completeness - the Gibbs free energy minus the electronic energy
G-E(el)                           ...      0.07361394 Eh     46.19 kcal/mol


Timings for individual modules:

Sum of individual times         ...      153.856 sec (=   2.564 min)
GTO integral calculation        ...        0.265 sec (=   0.004 min)   0.2 %
SCF iterations                  ...       18.581 sec (=   0.310 min)  12.1 %
Analytical frequency calculation...      135.010 sec (=   2.250 min)  87.8 %
                             ****ORCA TERMINATED NORMALLY****
TOTAL RUN TIME: 0 days 0 hours 2 minutes 34 seconds 244 msec
