
                                 *****************
                                 * O   R   C   A *
                                 *****************

                                            #,                                       
                                            ###                                      
                                            ####                                     
                                            #####                                    
                                            ######                                   
                                           ########,                                 
                                     ,,################,,,,,                         
                               ,,#################################,,                 
                          ,,##########################################,,             
                       ,#########################################, ''#####,          
                    ,#############################################,,   '####,        
                  ,##################################################,,,,####,       
                ,###########''''           ''''###############################       
              ,#####''   ,,,,##########,,,,          '''####'''          '####       
            ,##' ,,,,###########################,,,                        '##       
           ' ,,###''''                  '''############,,,                           
         ,,##''                                '''############,,,,        ,,,,,,###''
      ,#''                                            '''#######################'''  
     '                                                          ''''####''''         
             ,#######,   #######,   ,#######,      ##                                
            ,#'     '#,  ##    ##  ,#'     '#,    #''#        ######   ,####,        
            ##       ##  ##   ,#'  ##            #'  '#       #        #'  '#        
            ##       ##  #######   ##           ,######,      #####,   #    #        
            '#,     ,#'  ##    ##  '#,     ,#' ,#      #,         ##   #,  ,#        
             '#######'   ##     ##  '#######'  #'      '#     #####' # '####'        



                  #######################################################
                  #                        -***-                        #
                  #          Department of theory and spectroscopy      #
                  #    Directorship and core code : Frank Neese         #
                  #        Max Planck Institute fuer Kohlenforschung    #
                  #                Kaiser Wilhelm Platz 1               #
                  #                 D-45470 Muelheim/Ruhr               #
                  #                      Germany                        #
                  #                                                     #
                  #                  All rights reserved                #
                  #                        -***-                        #
                  #######################################################



                         Program Version 5.0.4 -  RELEASE  -

 With contributions from (in alphabetic order):
   Daniel Aravena         : Magnetic Suceptibility
   Michael Atanasov       : Ab Initio Ligand Field Theory (pilot matlab implementation)
   Alexander A. Auer      : GIAO ZORA, VPT2 properties, NMR spectrum
   Ute Becker             : Parallelization
   Giovanni Bistoni       : ED, misc. LED, open-shell LED, HFLD
   Martin Brehm           : Molecular dynamics
   Dmytro Bykov           : SCF Hessian
   Vijay G. Chilkuri      : MRCI spin determinant printing, contributions to CSF-ICE
   Dipayan Datta          : RHF DLPNO-CCSD density
   Achintya Kumar Dutta   : EOM-CC, STEOM-CC
   Dmitry Ganyushin       : Spin-Orbit,Spin-Spin,Magnetic field MRCI
   Miquel Garcia          : C-PCM and meta-GGA Hessian, CC/C-PCM, Gaussian charge scheme
   Yang Guo               : DLPNO-NEVPT2, F12-NEVPT2, CIM, IAO-localization
   Andreas Hansen         : Spin unrestricted coupled pair/coupled cluster methods
   Benjamin Helmich-Paris : MC-RPA, TRAH-SCF, COSX integrals
   Lee Huntington         : MR-EOM, pCC
   Robert Izsak           : Overlap fitted RIJCOSX, COSX-SCS-MP3, EOM
   Marcus Kettner         : VPT2
   Christian Kollmar      : KDIIS, OOCD, Brueckner-CCSD(T), CCSD density, CASPT2, CASPT2-K
   Simone Kossmann        : Meta GGA functionals, TD-DFT gradient, OOMP2, MP2 Hessian
   Martin Krupicka        : Initial AUTO-CI
   Lucas Lang             : DCDCAS
   Marvin Lechner         : AUTO-CI (C++ implementation), FIC-MRCC
   Dagmar Lenk            : GEPOL surface, SMD
   Dimitrios Liakos       : Extrapolation schemes; Compound Job, initial MDCI parallelization
   Dimitrios Manganas     : Further ROCIS development; embedding schemes
   Dimitrios Pantazis     : SARC Basis sets
   Anastasios Papadopoulos: AUTO-CI, single reference methods and gradients
   Taras Petrenko         : DFT Hessian,TD-DFT gradient, ASA, ECA, R-Raman, ABS, FL, XAS/XES, NRVS
   Peter Pinski           : DLPNO-MP2, DLPNO-MP2 Gradient
   Christoph Reimann      : Effective Core Potentials
   Marius Retegan         : Local ZFS, SOC
   Christoph Riplinger    : Optimizer, TS searches, QM/MM, DLPNO-CCSD(T), (RO)-DLPNO pert. Triples
   Tobias Risthaus        : Range-separated hybrids, TD-DFT gradient, RPA, STAB
   Michael Roemelt        : Original ROCIS implementation
   Masaaki Saitow         : Open-shell DLPNO-CCSD energy and density
   Barbara Sandhoefer     : DKH picture change effects
   Avijit Sen             : IP-ROCIS
   Kantharuban Sivalingam : CASSCF convergence, NEVPT2, FIC-MRCI
   Bernardo de Souza      : ESD, SOC TD-DFT
   Georgi Stoychev        : AutoAux, RI-MP2 NMR, DLPNO-MP2 response
   Willem Van den Heuvel  : Paramagnetic NMR
   Boris Wezisla          : Elementary symmetry handling
   Frank Wennmohs         : Technical directorship


 We gratefully acknowledge several colleagues who have allowed us to
 interface, adapt or use parts of their codes:
   Stefan Grimme, W. Hujo, H. Kruse, P. Pracht,  : VdW corrections, initial TS optimization,
                  C. Bannwarth, S. Ehlert          DFT functionals, gCP, sTDA/sTD-DF
   Ed Valeev, F. Pavosevic, A. Kumar             : LibInt (2-el integral package), F12 methods
   Garnet Chan, S. Sharma, J. Yang, R. Olivares  : DMRG
   Ulf Ekstrom                                   : XCFun DFT Library
   Mihaly Kallay                                 : mrcc  (arbitrary order and MRCC methods)
   Jiri Pittner, Ondrej Demel                    : Mk-CCSD
   Frank Weinhold                                : gennbo (NPA and NBO analysis)
   Christopher J. Cramer and Donald G. Truhlar   : smd solvation model
   Lars Goerigk                                  : TD-DFT with DH, B97 family of functionals
   V. Asgeirsson, H. Jonsson                     : NEB implementation
   FAccTs GmbH                                   : IRC, NEB, NEB-TS, DLPNO-Multilevel, CI-OPT
                                                   MM, QMMM, 2- and 3-layer-ONIOM, Crystal-QMMM,
                                                   LR-CPCM, SF, NACMEs, symmetry and pop. for TD-DFT,
                                                   nearIR, NL-DFT gradient (VV10), updates on ESD,
                                                   ML-optimized integration grids
   S Lehtola, MJT Oliveira, MAL Marques          : LibXC Library
   Liviu Ungur et al                             : ANISO software


 Your calculation uses the libint2 library for the computation of 2-el integrals
 For citations please refer to: http://libint.valeyev.net

 Your ORCA version has been built with support for libXC version: 5.1.0
 For citations please refer to: https://tddft.org/programs/libxc/

 This ORCA versions uses:
   CBLAS   interface :  Fast vector & matrix operations
   LAPACKE interface :  Fast linear algebra routines
   Shared memory     :  Shared parallel matrices


Your calculation utilizes the atom-pairwise dispersion correction
based on tight binding partial charges (D4)
Cite in your paper:
E.Caldeweyher, C.Bannwarth, S.Grimme, J.Chem.Phys., (2017), 147, 034112.
E.Caldeweyher, S.Ehlert, A.Hansen, H.Neugebauer, S.Grimme, J.Chem.Phys., (2018), in progress.
   

================================================================================

----- Orbital basis set information -----
Your calculation utilizes the basis: def2-SVP
   F. Weigend and R. Ahlrichs, Phys. Chem. Chem. Phys. 7, 3297 (2005).

----- AuxJ basis set information -----
Your calculation utilizes the auxiliary basis: def2/J
   F. Weigend, Phys. Chem. Chem. Phys. 8, 1057 (2006).

================================================================================
                                        WARNINGS
                       Please study these warnings very carefully!
================================================================================


WARNING: Geometry Optimization
  ===> : Switching off AutoStart
         For restart on a previous wavefunction, please use MOREAD

INFO   : the flag for use of the SHARK integral package has been found!

================================================================================
                                       INPUT FILE
================================================================================
NAME = opt.inp
|  1> !B3LYP DEF2-SVP OPT FREQ D4 SOSCF
|  2> 
|  3> * xyz 1 1
|  4>    C       -2.24466        1.29795       -0.19154
|  5>    C       -3.34272        0.51401       -0.26009
|  6>    C       -3.22355       -0.95680       -0.24454
|  7>    C       -2.01436       -1.52425       -0.20352
|  8>    C       -0.80021       -0.67808       -0.17078
|  9>    C       -0.86840        0.67705       -0.06535
| 10>    H       -4.33350        0.95455       -0.32143
| 11>    H       -4.11579       -1.57353       -0.28393
| 12>    H       -1.91968       -2.60539       -0.21909
| 13>    H        0.15817       -1.18488       -0.24758
| 14>    H       -0.69846        0.78272        1.00482
| 15>    N       -2.41632        2.71171       -0.17372
| 16>    H       -3.35571        3.12963       -0.24922
| 17>    H       -1.62320        3.34939       -0.02507
| 18>    N        0.28792        1.38174       -0.55125
| 19>    O        0.16421        2.34724       -1.24210
| 20>    O        1.38746        0.95763       -0.34752
| 21> **                         ****END OF INPUT****
================================================================================

                       *****************************
                       * Geometry Optimization Run *
                       *****************************

Geometry optimization settings:
Update method            Update   .... BFGS
Choice of coordinates    CoordSys .... Z-matrix Internals
Initial Hessian          InHess   .... Almoef's Model

Convergence Tolerances:
Energy Change            TolE     ....  5.0000e-06 Eh
Max. Gradient            TolMAXG  ....  3.0000e-04 Eh/bohr
RMS Gradient             TolRMSG  ....  1.0000e-04 Eh/bohr
Max. Displacement        TolMAXD  ....  4.0000e-03 bohr
RMS Displacement         TolRMSD  ....  2.0000e-03 bohr
Strict Convergence                ....  False
------------------------------------------------------------------------------
                        ORCA OPTIMIZATION COORDINATE SETUP
------------------------------------------------------------------------------

The optimization will be done in new redundant internal coordinates
Making redundant internal coordinates   ...  (new redundants) done
Evaluating the initial hessian          ...  (Almloef) done
Evaluating the coordinates              ...  done
Calculating the B-matrix                .... done
Calculating the G-matrix                .... done
Diagonalizing the G-matrix              .... done
The first mode is                       ....   37
The number of degrees of freedom        ....   45

    -----------------------------------------------------------------
                    Redundant Internal Coordinates


    -----------------------------------------------------------------
         Definition                    Initial Value    Approx d2E/dq
    -----------------------------------------------------------------
      1. B(C   1,C   0)                  1.3509         0.721242   
      2. B(C   2,C   1)                  1.4757         0.456027   
      3. B(C   3,C   2)                  1.3363         0.760920   
      4. B(C   4,C   3)                  1.4803         0.448434   
      5. B(C   5,C   4)                  1.3609         0.695202   
      6. B(C   5,C   0)                  1.5151         0.394591   
      7. B(H   6,C   1)                  1.0860         0.365377   
      8. B(H   7,C   2)                  1.0854         0.366295   
      9. B(H   8,C   3)                  1.0854         0.366251   
     10. B(H   9,C   4)                  1.0868         0.364295   
     11. B(H  10,C   5)                  1.0887         0.361798   
     12. B(N  11,C   0)                  1.4243         0.493428   
     13. B(H  12,N  11)                  1.0309         0.400688   
     14. B(H  13,N  11)                  1.0285         0.404306   
     15. B(N  14,C   5)                  1.4387         0.467983   
     16. B(O  15,N  14)                  1.1936         1.031093   
     17. B(O  16,N  14)                  1.1960         1.022262   
     18. A(C   5,C   0,N  11)          121.0126         0.382394   
     19. A(C   1,C   0,N  11)          118.6000         0.425307   
     20. A(C   1,C   0,C   5)          120.3148         0.411369   
     21. A(C   2,C   1,H   6)          118.5912         0.335996   
     22. A(C   0,C   1,C   2)          120.8103         0.422101   
     23. A(C   0,C   1,H   6)          120.5973         0.363001   
     24. A(C   3,C   2,H   7)          120.2436         0.366500   
     25. A(C   1,C   2,H   7)          119.9717         0.336137   
     26. A(C   1,C   2,C   3)          119.7760         0.426164   
     27. A(C   2,C   3,C   4)          120.0079         0.424885   
     28. A(C   2,C   3,H   8)          120.0964         0.366492   
     29. A(C   4,C   3,H   8)          119.8782         0.335193   
     30. A(C   5,C   4,H   9)          120.9287         0.360548   
     31. A(C   3,C   4,H   9)          117.0746         0.334894   
     32. A(C   3,C   4,C   5)          121.9923         0.418088   
     33. A(C   0,C   5,H  10)          100.5959         0.327506   
     34. A(H  10,C   5,N  14)           99.1482         0.334855   
     35. A(C   0,C   5,C   4)          116.5591         0.408697   
     36. A(C   4,C   5,N  14)          114.9164         0.418547   
     37. A(C   0,C   5,N  14)          120.0813         0.378899   
     38. A(C   4,C   5,H  10)           99.4957         0.360125   
     39. A(H  12,N  11,H  13)          117.5113         0.296350   
     40. A(C   0,N  11,H  13)          121.6222         0.341181   
     41. A(C   0,N  11,H  12)          120.7507         0.340668   
     42. A(O  15,N  14,O  16)          118.7320         0.508332   
     43. A(C   5,N  14,O  16)          120.5110         0.442646   
     44. A(C   5,N  14,O  15)          120.5560         0.443335   
     45. D(C   2,C   1,C   0,C   5)     -1.3951         0.036828   
     46. D(H   6,C   1,C   0,N  11)      1.2737         0.036828   
     47. D(C   2,C   1,C   0,N  11)   -178.3290         0.036828   
     48. D(H   6,C   1,C   0,C   5)    178.2076         0.036828   
     49. D(C   3,C   2,C   1,H   6)    178.3226         0.014170   
     50. D(C   3,C   2,C   1,C   0)     -2.0669         0.014170   
     51. D(H   7,C   2,C   1,C   0)    179.0017         0.014170   
     52. D(H   7,C   2,C   1,H   6)     -0.6088         0.014170   
     53. D(H   8,C   3,C   2,H   7)      0.5883         0.041409   
     54. D(H   8,C   3,C   2,C   1)   -178.3402         0.041409   
     55. D(C   4,C   3,C   2,H   7)    179.0655         0.041409   
     56. D(C   4,C   3,C   2,C   1)      0.1371         0.041409   
     57. D(H   9,C   4,C   3,C   2)   -173.4973         0.013710   
     58. D(C   5,C   4,C   3,H   8)   -175.7725         0.013710   
     59. D(C   5,C   4,C   3,C   2)      5.7470         0.013710   
     60. D(H   9,C   4,C   3,H   8)      4.9833         0.013710   
     61. D(N  14,C   5,C   4,H   9)     22.1142         0.036985   
     62. D(H  10,C   5,C   4,H   9)    -82.6856         0.036985   
     63. D(H  10,C   5,C   4,C   3)     98.0989         0.036985   
     64. D(C   0,C   5,C   4,H   9)    170.3342         0.036985   
     65. D(C   0,C   5,C   4,C   3)     -8.8814         0.036985   
     66. D(N  14,C   5,C   0,N  11)    -29.8301         0.011570   
     67. D(N  14,C   5,C   0,C   1)    153.3110         0.011570   
     68. D(H  10,C   5,C   0,N  11)     77.3444         0.011570   
     69. D(H  10,C   5,C   0,C   1)    -99.5145         0.011570   
     70. D(N  14,C   5,C   4,C   3)   -157.1014         0.036985   
     71. D(C   4,C   5,C   0,N  11)   -176.3269         0.011570   
     72. D(C   4,C   5,C   0,C   1)      6.8142         0.011570   
     73. D(H  13,N  11,C   0,C   1)    173.5965         0.019233   
     74. D(H  12,N  11,C   0,C   5)   -179.3067         0.019233   
     75. D(H  12,N  11,C   0,C   1)     -2.3950         0.019233   
     76. D(H  13,N  11,C   0,C   5)     -3.3151         0.019233   
     77. D(O  16,N  14,C   5,H  10)     65.1647         0.018708   
     78. D(O  16,N  14,C   5,C   4)    -39.8493         0.018708   
     79. D(O  16,N  14,C   5,C   0)    173.1348         0.018708   
     80. D(O  15,N  14,C   5,H  10)   -120.0521         0.018708   
     81. D(O  15,N  14,C   5,C   4)    134.9339         0.018708   
     82. D(O  15,N  14,C   5,C   0)    -12.0820         0.018708   
    -----------------------------------------------------------------

Number of atoms                         .... 17
Number of degrees of freedom            .... 82

         *************************************************************
         *                GEOMETRY OPTIMIZATION CYCLE   1            *
         *************************************************************
---------------------------------
CARTESIAN COORDINATES (ANGSTROEM)
---------------------------------
  C     -2.244660    1.297950   -0.191540
  C     -3.342720    0.514010   -0.260090
  C     -3.223550   -0.956800   -0.244540
  C     -2.014360   -1.524250   -0.203520
  C     -0.800210   -0.678080   -0.170780
  C     -0.868400    0.677050   -0.065350
  H     -4.333500    0.954550   -0.321430
  H     -4.115790   -1.573530   -0.283930
  H     -1.919680   -2.605390   -0.219090
  H      0.158170   -1.184880   -0.247580
  H     -0.698460    0.782720    1.004820
  N     -2.416320    2.711710   -0.173720
  H     -3.355710    3.129630   -0.249220
  H     -1.623200    3.349390   -0.025070
  N      0.287920    1.381740   -0.551250
  O      0.164210    2.347240   -1.242100
  O      1.387460    0.957630   -0.347520

----------------------------
CARTESIAN COORDINATES (A.U.)
----------------------------
  NO LB      ZA    FRAG     MASS         X           Y           Z
   0 C     6.0000    0    12.011   -4.241793    2.452770   -0.361958
   1 C     6.0000    0    12.011   -6.316825    0.971338   -0.491499
   2 C     6.0000    0    12.011   -6.091627   -1.808090   -0.462114
   3 C     6.0000    0    12.011   -3.806589   -2.880415   -0.384597
   4 C     6.0000    0    12.011   -1.512178   -1.281385   -0.322727
   5 C     6.0000    0    12.011   -1.641038    1.279439   -0.123494
   6 H     1.0000    0     1.008   -8.189128    1.803838   -0.607415
   7 H     1.0000    0     1.008   -7.777716   -2.973541   -0.536550
   8 H     1.0000    0     1.008   -3.627669   -4.923474   -0.414020
   9 H     1.0000    0     1.008    0.298898   -2.239099   -0.467858
  10 H     1.0000    0     1.008   -1.319898    1.479126    1.898835
  11 N     7.0000    0    14.007   -4.566183    5.124389   -0.328283
  12 H     1.0000    0     1.008   -6.341373    5.914144   -0.470958
  13 H     1.0000    0     1.008   -3.067403    6.329430   -0.047375
  14 N     7.0000    0    14.007    0.544090    2.611110   -1.041712
  15 O     8.0000    0    15.999    0.310312    4.435641   -2.347229
  16 O     8.0000    0    15.999    2.621919    1.809658   -0.656718

--------------------------------
INTERNAL COORDINATES (ANGSTROEM)
--------------------------------
 C      0   0   0     0.000000000000     0.00000000     0.00000000
 C      1   0   0     1.350924420425     0.00000000     0.00000000
 C      2   1   0     1.475711810449   120.81034323     0.00000000
 C      3   2   1     1.336346736068   119.77604299   357.93311078
 C      4   3   2     1.480282337596   120.00791441     0.13705200
 C      5   4   3     1.360934486998   121.99232810     5.74696529
 H      2   1   3     1.086040098523   120.59725897   179.60270904
 H      3   2   1     1.085356937878   119.97170375   179.00172873
 H      4   3   2     1.085389527727   120.09637865   181.65982649
 H      5   4   3     1.086847139390   117.07458107   186.50269278
 H      6   5   4     1.088719239014    99.49566362    98.09887012
 N      1   2   3     1.424254908926   118.59997920   181.67102175
 H     12   1   2     1.030927227548   120.75070834   357.60495729
 H     12   1   2     1.028480402973   121.62224433   173.59649432
 N      6   5   4     1.438667004035   114.91643437   202.89864430
 O     15   6   5     1.193636517789   120.55600609   134.93393591
 O     15   6   5     1.195978016771   120.51097417   320.15074395

---------------------------
INTERNAL COORDINATES (A.U.)
---------------------------
 C      0   0   0     0.000000000000     0.00000000     0.00000000
 C      1   0   0     2.552877182229     0.00000000     0.00000000
 C      2   1   0     2.788691174343   120.81034323     0.00000000
 C      3   2   1     2.525329351128   119.77604299   357.93311078
 C      4   3   2     2.797328218938   120.00791441     0.13705200
 C      5   4   3     2.571793466634   121.99232810     5.74696529
 H      2   1   3     2.052318356665   120.59725897   179.60270904
 H      3   2   1     2.051027370141   119.97170375   179.00172873
 H      4   3   2     2.051088956031   120.09637865   181.65982649
 H      5   4   3     2.053843442883   117.07458107   186.50269278
 H      6   5   4     2.057381198468    99.49566362    98.09887012
 N      1   2   3     2.691451722763   118.59997920   181.67102175
 H     12   1   2     1.948170124069   120.75070834   357.60495729
 H     12   1   2     1.943546295724   121.62224433   173.59649432
 N      6   5   4     2.718686635536   114.91643437   202.89864430
 O     15   6   5     2.255646122069   120.55600609   134.93393591
 O     15   6   5     2.260070913888   120.51097417   320.15074395

---------------------
BASIS SET INFORMATION
---------------------
There are 4 groups of distinct atoms

 Group   1 Type C   : 7s4p1d contracted to 3s2p1d pattern {511/31/1}
 Group   2 Type H   : 4s1p contracted to 2s1p pattern {31/1}
 Group   3 Type N   : 7s4p1d contracted to 3s2p1d pattern {511/31/1}
 Group   4 Type O   : 7s4p1d contracted to 3s2p1d pattern {511/31/1}

Atom   0C    basis set group =>   1
Atom   1C    basis set group =>   1
Atom   2C    basis set group =>   1
Atom   3C    basis set group =>   1
Atom   4C    basis set group =>   1
Atom   5C    basis set group =>   1
Atom   6H    basis set group =>   2
Atom   7H    basis set group =>   2
Atom   8H    basis set group =>   2
Atom   9H    basis set group =>   2
Atom  10H    basis set group =>   2
Atom  11N    basis set group =>   3
Atom  12H    basis set group =>   2
Atom  13H    basis set group =>   2
Atom  14N    basis set group =>   3
Atom  15O    basis set group =>   4
Atom  16O    basis set group =>   4
---------------------------------
AUXILIARY/J BASIS SET INFORMATION
---------------------------------
There are 4 groups of distinct atoms

 Group   1 Type C   : 12s5p4d2f1g contracted to 6s4p3d1f1g pattern {711111/2111/211/2/1}
 Group   2 Type H   : 5s2p1d contracted to 3s1p1d pattern {311/2/1}
 Group   3 Type N   : 12s5p4d2f1g contracted to 6s4p3d1f1g pattern {711111/2111/211/2/1}
 Group   4 Type O   : 12s5p4d2f1g contracted to 6s4p3d1f1g pattern {711111/2111/211/2/1}

Atom   0C    basis set group =>   1
Atom   1C    basis set group =>   1
Atom   2C    basis set group =>   1
Atom   3C    basis set group =>   1
Atom   4C    basis set group =>   1
Atom   5C    basis set group =>   1
Atom   6H    basis set group =>   2
Atom   7H    basis set group =>   2
Atom   8H    basis set group =>   2
Atom   9H    basis set group =>   2
Atom  10H    basis set group =>   2
Atom  11N    basis set group =>   3
Atom  12H    basis set group =>   2
Atom  13H    basis set group =>   2
Atom  14N    basis set group =>   3
Atom  15O    basis set group =>   4
Atom  16O    basis set group =>   4
------------------------------------------------------------------------------
                           ORCA GTO INTEGRAL CALCULATION
                           -- RI-GTO INTEGRALS CHOSEN --
------------------------------------------------------------------------------
------------------------------------------------------------------------------
                   ___                                                        
                  /   \      - P O W E R E D   B Y -                         
                 /     \                                                     
                 |  |  |   _    _      __       _____    __    __             
                 |  |  |  | |  | |    /  \     |  _  \  |  |  /  |          
                  \  \/   | |  | |   /    \    | | | |  |  | /  /          
                 / \  \   | |__| |  /  /\  \   | |_| |  |  |/  /          
                |  |  |   |  __  | /  /__\  \  |    /   |      \           
                |  |  |   | |  | | |   __   |  |    \   |  |\   \          
                \     /   | |  | | |  |  |  |  | |\  \  |  | \   \       
                 \___/    |_|  |_| |__|  |__|  |_| \__\ |__|  \__/        
                                                                              
                      - O R C A' S   B I G   F R I E N D -                    
                                      &                                       
                       - I N T E G R A L  F E E D E R -                       
                                                                              
 v1 FN, 2020, v2 2021                                                         
------------------------------------------------------------------------------


Reading SHARK input file opt.SHARKINP.tmp ... ok
----------------------
SHARK INTEGRAL PACKAGE
----------------------

Number of atoms                             ...     17
Number of basis functions                   ...    175
Number of shells                            ...     81
Maximum angular momentum                    ...      2
Integral batch strategy                     ... SHARK/LIBINT Hybrid
RI-J (if used) integral strategy            ... SPLIT-RIJ (Revised 2003 algorithm where possible)
Printlevel                                  ...      1
Contraction scheme used                     ... SEGMENTED contraction
Coulomb Range Separation                    ... NOT USED
Exchange Range Separation                   ... NOT USED
Finite Nucleus Model                        ... NOT USED
Auxiliary Coulomb fitting basis             ... AVAILABLE
   # of basis functions in Aux-J            ...    567
   # of shells in Aux-J                     ...    185
   Maximum angular momentum in Aux-J        ...      4
Auxiliary J/K fitting basis                 ... NOT available
Auxiliary Correlation fitting basis         ... NOT available
Auxiliary 'external' fitting basis          ... NOT available
Integral threshold                          ...     2.500000e-11
Primitive cut-off                           ...     2.500000e-12
Primitive pair pre-selection threshold      ...     2.500000e-12

Calculating pre-screening integrals         ... done (  0.1 sec) Dimension = 81
Organizing shell pair data                  ... done (  0.1 sec)
Shell pair information
Total number of shell pairs                 ...      3321
Shell pairs after pre-screening             ...      3081
Total number of primitive shell pairs       ...     12241
Primitive shell pairs kept                  ...      8162
          la=0 lb=0:    915 shell pairs
          la=1 lb=0:   1109 shell pairs
          la=1 lb=1:    358 shell pairs
          la=2 lb=0:    401 shell pairs
          la=2 lb=1:    248 shell pairs
          la=2 lb=2:     50 shell pairs

Calculating one electron integrals          ... done (  0.0 sec)
Calculating RI/J V-Matrix + Cholesky decomp.... done (  0.0 sec)
Calculating Nuclear repulsion               ... done (  0.0 sec) ENN=    523.005802400436 Eh

SHARK setup successfully completed in   0.4 seconds

Maximum memory used throughout the entire GTOINT-calculation: 25.3 MB
-------------------------------------------------------------------------------
                                 ORCA SCF
-------------------------------------------------------------------------------

------------
SCF SETTINGS
------------
Hamiltonian:
 Density Functional     Method          .... DFT(GTOs)
 Exchange Functional    Exchange        .... B88
   X-Alpha parameter    XAlpha          ....  0.666667
   Becke's b parameter  XBeta           ....  0.004200
 Correlation Functional Correlation     .... LYP
 LDA part of GGA corr.  LDAOpt          .... VWN-5
 Gradients option       PostSCFGGA      .... off
 Hybrid DFT is turned on
   Fraction HF Exchange ScalHFX         ....  0.200000
   Scaling of DF-GGA-X  ScalDFX         ....  0.720000
   Scaling of DF-GGA-C  ScalDFC         ....  0.810000
   Scaling of DF-LDA-C  ScalLDAC        ....  1.000000
   Perturbative correction              ....  0.000000
   Density functional embedding theory  .... OFF
   NL short-range parameter             ....  4.800000
 RI-approximation to the Coulomb term is turned on
   Number of AuxJ basis functions       .... 567
   RIJ-COSX (HFX calculated with COS-X)).... on


General Settings:
 Integral files         IntName         .... opt
 Hartree-Fock type      HFTyp           .... RHF
 Total Charge           Charge          ....    1
 Multiplicity           Mult            ....    1
 Number of Electrons    NEL             ....   72
 Basis Dimension        Dim             ....  175
 Nuclear Repulsion      ENuc            ....    523.0058024004 Eh

Convergence Acceleration:
 DIIS                   CNVDIIS         .... on
   Start iteration      DIISMaxIt       ....    12
   Startup error        DIISStart       ....  0.200000
   # of expansion vecs  DIISMaxEq       ....     5
   Bias factor          DIISBfac        ....   1.050
   Max. coefficient     DIISMaxC        ....  10.000
 Trust-Rad. Augm. Hess. CNVTRAH         .... auto
   Auto Start mean grad. ratio tolernc. ....  1.125000
   Auto Start start iteration           ....    20
   Auto Start num. interpolation iter.  ....    10
   Max. Number of Micro iterations      ....    16
   Max. Number of Macro iterations      .... Maxiter - #DIIS iter
   Number of Davidson start vectors     ....     2
   Converg. threshold I  (grad. norm)   ....   1.000e-05
   Converg. threshold II (energy diff.) ....   1.000e-08
   Grad. Scal. Fac. for Micro threshold ....   0.100
   Minimum threshold for Micro iter.    ....   0.010
   NR start threshold (gradient norm)   ....   0.001
   Initial trust radius                 ....   0.400
   Minimum AH scaling param. (alpha)    ....   1.000
   Maximum AH scaling param. (alpha)    .... 1000.000
   Orbital update algorithm             .... Taylor
   White noise on init. David. guess    .... on
   Maximum white noise                  ....   0.010
   Quad. conv. algorithm                .... NR
 SOSCF                  CNVSOSCF        .... on
   Start iteration      SOSCFMaxIt      ....   150
   Startup grad/error   SOSCFStart      ....  0.003300
 Level Shifting         CNVShift        .... on
   Level shift para.    LevelShift      ....    0.2500
   Turn off err/grad.   ShiftErr        ....    0.0010
 Zerner damping         CNVZerner       .... off
 Static damping         CNVDamp         .... on
   Fraction old density DampFac         ....    0.7000
   Max. Damping (<1)    DampMax         ....    0.9800
   Min. Damping (>=0)   DampMin         ....    0.0000
   Turn off err/grad.   DampErr         ....    0.1000
 Fernandez-Rico         CNVRico         .... off

SCF Procedure:
 Maximum # iterations   MaxIter         ....   125
 SCF integral mode      SCFMode         .... Direct
   Integral package                     .... SHARK and LIBINT hybrid scheme
 Reset frequency        DirectResetFreq ....    20
 Integral Threshold     Thresh          ....  2.500e-11 Eh
 Primitive CutOff       TCut            ....  2.500e-12 Eh

Convergence Tolerance:
 Convergence Check Mode ConvCheckMode   .... Total+1el-Energy
 Convergence forced     ConvForced      .... 0
 Energy Change          TolE            ....  1.000e-08 Eh
 1-El. energy change                    ....  1.000e-05 Eh
 Orbital Gradient       TolG            ....  1.000e-05
 Orbital Rotation angle TolX            ....  1.000e-05
 DIIS Error             TolErr          ....  5.000e-07


Diagonalization of the overlap matrix:
Smallest eigenvalue                        ... 2.791e-04
Time for diagonalization                   ...    0.045 sec
Threshold for overlap eigenvalues          ... 1.000e-08
Number of eigenvalues below threshold      ... 0
Time for construction of square roots      ...    0.013 sec
Total time needed                          ...    0.058 sec

Time for model grid setup =    0.545 sec

------------------------------
INITIAL GUESS: MODEL POTENTIAL
------------------------------
Loading Hartree-Fock densities                     ... done
Calculating cut-offs                               ... done
Initializing the effective Hamiltonian             ... done
Setting up the integral package (SHARK)            ... done
Starting the Coulomb interaction                   ... done (   0.4 sec)
Reading the grid                                   ... done
Mapping shells                                     ... done
Starting the XC term evaluation                    ... done (   0.5 sec)
  promolecular density results
     # of electrons  =     72.995428987
     EX              =    -62.517755728
     EC              =     -2.521926256
     EX+EC           =    -65.039681984
Transforming the Hamiltonian                       ... done (   0.0 sec)
Diagonalizing the Hamiltonian                      ... done (   0.0 sec)
Back transforming the eigenvectors                 ... done (   0.0 sec)
Now organizing SCF variables                       ... done
                      ------------------
                      INITIAL GUESS DONE (   1.5 sec)
                      ------------------
-------------------
DFT GRID GENERATION
-------------------

General Integration Accuracy     IntAcc      ... 4.388
Radial Grid Type                 RadialGrid  ... OptM3 with GC (2021)
Angular Grid (max. ang.)         AngularGrid ... 4 (Lebedev-302)
Angular grid pruning method      GridPruning ... 4 (adaptive)
Weight generation scheme         WeightScheme... Becke
Basis function cutoff            BFCut       ... 1.0000e-11
Integration weight cutoff        WCut        ... 1.0000e-14
Angular grids for H and He will be reduced by one unit
Partially contracted basis set               ... off
Rotationally invariant grid construction     ... off

Total number of grid points                  ...    82667
Total number of batches                      ...     1298
Average number of points per batch           ...       63
Average number of grid points per atom       ...     4863
Time for grid setup =    1.627 sec

--------------------
COSX GRID GENERATION
--------------------

GRIDX 1
-------
General Integration Accuracy     IntAcc      ... 3.816
Radial Grid Type                 RadialGrid  ... OptM3 with GC (2021)
Angular Grid (max. ang.)         AngularGrid ... 1 (Lebedev-50)
Angular grid pruning method      GridPruning ... 4 (adaptive)
Weight generation scheme         WeightScheme... Becke
Basis function cutoff            BFCut       ... 1.0000e-11
Integration weight cutoff        WCut        ... 1.0000e-14
Angular grids for H and He will be reduced by one unit
Partially contracted basis set               ... on
Rotationally invariant grid construction     ... off

Total number of grid points                  ...    10540
Total number of batches                      ...      172
Average number of points per batch           ...       61
Average number of grid points per atom       ...      620
UseSFitting                                  ... on

GRIDX 2
-------
General Integration Accuracy     IntAcc      ... 4.020
Radial Grid Type                 RadialGrid  ... OptM3 with GC (2021)
Angular Grid (max. ang.)         AngularGrid ... 2 (Lebedev-110)
Angular grid pruning method      GridPruning ... 4 (adaptive)
Weight generation scheme         WeightScheme... Becke
Basis function cutoff            BFCut       ... 1.0000e-11
Integration weight cutoff        WCut        ... 1.0000e-14
Angular grids for H and He will be reduced by one unit
Partially contracted basis set               ... on
Rotationally invariant grid construction     ... off

Total number of grid points                  ...    23277
Total number of batches                      ...      372
Average number of points per batch           ...       62
Average number of grid points per atom       ...     1369
UseSFitting                                  ... on

GRIDX 3
-------
General Integration Accuracy     IntAcc      ... 4.338
Radial Grid Type                 RadialGrid  ... OptM3 with GC (2021)
Angular Grid (max. ang.)         AngularGrid ... 3 (Lebedev-194)
Angular grid pruning method      GridPruning ... 4 (adaptive)
Weight generation scheme         WeightScheme... Becke
Basis function cutoff            BFCut       ... 1.0000e-11
Integration weight cutoff        WCut        ... 1.0000e-14
Angular grids for H and He will be reduced by one unit
Partially contracted basis set               ... on
Rotationally invariant grid construction     ... off

Total number of grid points                  ...    51202
Total number of batches                      ...      810
Average number of points per batch           ...       63
Average number of grid points per atom       ...     3012
UseSFitting                                  ... on

Time for X-Grid setup             =    2.352 sec

--------------
SCF ITERATIONS
--------------
ITER       Energy         Delta-E        Max-DP      RMS-DP      [F,P]     Damp
               ***  Starting incremental Fock matrix formation  ***
  0   -491.4672591910   0.000000000000 0.11378753  0.00311039  0.2456929 0.7000
  1   -491.5984349742  -0.131175783239 0.05496978  0.00190647  0.0833568 0.7000
                               ***Turning on DIIS***
  2   -491.6389582034  -0.040523229185 0.06420620  0.00290392  0.0330930 0.0000
  3   -491.7174592233  -0.078501019901 0.06468569  0.00133491  0.0447833 0.0000
  4   -491.7293297439  -0.011870520616 0.01447839  0.00037198  0.0173499 0.0000
                      *** Initiating the SOSCF procedure ***
                           *** Shutting down DIIS ***
                      *** Re-Reading the Fockian *** 
                      *** Removing any level shift *** 
ITER      Energy       Delta-E        Grad      Rot      Max-DP    RMS-DP
  5   -491.73071136  -0.0013816158  0.000609  0.000609  0.004732  0.000127
               *** Restarting incremental Fock matrix formation ***
  6   -491.73077724  -0.0000658767  0.000791  0.005491  0.003433  0.000094
  7   -491.73075785   0.0000193896  0.001453  0.002878  0.002267  0.000056
  8   -491.73079264  -0.0000347921  0.000227  0.001623  0.001061  0.000025
  9   -491.73078996   0.0000026829  0.000438  0.001029  0.000622  0.000018
 10   -491.73079333  -0.0000033731  0.000077  0.000304  0.000257  0.000006
 11   -491.73079313   0.0000001992  0.000230  0.000252  0.000213  0.000004
 12   -491.73079336  -0.0000002351  0.000023  0.000042  0.000088  0.000002
 13   -491.73079335   0.0000000157  0.000027  0.000030  0.000066  0.000001
                  ***Gradient check signals convergence***
              ***Rediagonalizing the Fockian in SOSCF/NRSCF***

               *****************************************************
               *                     SUCCESS                       *
               *           SCF CONVERGED AFTER  14 CYCLES          *
               *****************************************************

Old exchange energy                            =    -12.557211322 Eh
New exchange energy                            =    -12.557194521 Eh
Exchange energy change after final integration =      0.000016801 Eh
Total energy after final integration           =   -491.730776573 Eh
Final COS-X integration done in                =    13.518 sec

----------------
TOTAL SCF ENERGY
----------------

Total Energy       :         -491.73077657 Eh          -13380.67469 eV

Components:
Nuclear Repulsion  :          523.00580240 Eh           14231.71141 eV
Electronic Energy  :        -1014.73657897 Eh          -27612.38610 eV
One Electron Energy:        -1691.07251568 Eh          -46016.42258 eV
Two Electron Energy:          676.33593670 Eh           18404.03648 eV
Max COSX asymmetry :            0.00000311 Eh               0.00008 eV

Virial components:
Potential Energy   :         -979.61250580 Eh          -26656.61148 eV
Kinetic Energy     :          487.88172922 Eh           13275.93679 eV
Virial Ratio       :            2.00788930


DFT components:
N(Alpha)           :       35.999993671142 electrons
N(Beta)            :       35.999993671142 electrons
N(Total)           :       71.999987342284 electrons
E(X)               :      -50.023081675195 Eh       
E(C)               :       -2.932518696714 Eh       
E(XC)              :      -52.955600371909 Eh       
DFET-embed. en.    :        0.000000000000 Eh       

---------------
SCF CONVERGENCE
---------------

  Last Energy change         ...   -2.4297e-08  Tolerance :   1.0000e-08
  Last MAX-Density change    ...    3.1086e-15  Tolerance :   1.0000e-07
  Last RMS-Density change    ...    5.1523e-17  Tolerance :   5.0000e-09
  Last Orbital Gradient      ...    1.8369e-06  Tolerance :   1.0000e-05
  Last Orbital Rotation      ...    6.5159e-06  Tolerance :   1.0000e-05

             **** THE GBW FILE WAS UPDATED (opt.gbw) ****
             **** DENSITY opt.scfp WAS UPDATED ****
             **** ENERGY FILE WAS UPDATED (opt.en.tmp) ****
             **** THE GBW FILE WAS UPDATED (opt.gbw) ****
             **** DENSITY opt.scfp WAS UPDATED ****
----------------
ORBITAL ENERGIES
----------------

  NO   OCC          E(Eh)            E(eV) 
   0   2.0000     -19.333337      -526.0869 
   1   2.0000     -19.331048      -526.0246 
   2   2.0000     -14.740291      -401.1037 
   3   2.0000     -14.557176      -396.1209 
   4   2.0000     -10.475330      -285.0482 
   5   2.0000     -10.465591      -284.7832 
   6   2.0000     -10.436574      -283.9936 
   7   2.0000     -10.420282      -283.5503 
   8   2.0000     -10.400307      -283.0067 
   9   2.0000     -10.397733      -282.9367 
  10   2.0000      -1.429317       -38.8937 
  11   2.0000      -1.232143       -33.5283 
  12   2.0000      -1.126273       -30.6474 
  13   2.0000      -1.073665       -29.2159 
  14   2.0000      -1.015249       -27.6263 
  15   2.0000      -0.940962       -25.6049 
  16   2.0000      -0.900458       -24.5027 
  17   2.0000      -0.827048       -22.5051 
  18   2.0000      -0.798783       -21.7360 
  19   2.0000      -0.756852       -20.5950 
  20   2.0000      -0.733783       -19.9673 
  21   2.0000      -0.723502       -19.6875 
  22   2.0000      -0.712013       -19.3749 
  23   2.0000      -0.681145       -18.5349 
  24   2.0000      -0.676276       -18.4024 
  25   2.0000      -0.653241       -17.7756 
  26   2.0000      -0.648107       -17.6359 
  27   2.0000      -0.642691       -17.4885 
  28   2.0000      -0.579559       -15.7706 
  29   2.0000      -0.570139       -15.5143 
  30   2.0000      -0.553056       -15.0494 
  31   2.0000      -0.522820       -14.2267 
  32   2.0000      -0.493448       -13.4274 
  33   2.0000      -0.480896       -13.0859 
  34   2.0000      -0.455415       -12.3925 
  35   2.0000      -0.424206       -11.5432 
  36   0.0000      -0.310174        -8.4403 
  37   0.0000      -0.237519        -6.4632 
  38   0.0000      -0.208906        -5.6846 
  39   0.0000      -0.132905        -3.6165 
  40   0.0000      -0.109060        -2.9677 
  41   0.0000      -0.101320        -2.7571 
  42   0.0000      -0.083386        -2.2690 
  43   0.0000      -0.069824        -1.9000 
  44   0.0000      -0.042631        -1.1600 
  45   0.0000      -0.032797        -0.8925 
  46   0.0000      -0.008781        -0.2389 
  47   0.0000       0.001293         0.0352 
  48   0.0000       0.013294         0.3618 
  49   0.0000       0.063746         1.7346 
  50   0.0000       0.079185         2.1547 
  51   0.0000       0.091282         2.4839 
  52   0.0000       0.119606         3.2547 
  53   0.0000       0.145427         3.9573 
  54   0.0000       0.170738         4.6460 
  55   0.0000       0.187746         5.1088 
  56   0.0000       0.216019         5.8782 
  57   0.0000       0.225844         6.1455 
  58   0.0000       0.244513         6.6535 
  59   0.0000       0.274719         7.4755 
  60   0.0000       0.286581         7.7983 
  61   0.0000       0.291362         7.9284 
  62   0.0000       0.294970         8.0265 
  63   0.0000       0.309112         8.4114 
  64   0.0000       0.318986         8.6800 
  65   0.0000       0.340725         9.2716 
  66   0.0000       0.357488         9.7277 
  67   0.0000       0.378326        10.2948 
  68   0.0000       0.384006        10.4493 
  69   0.0000       0.410442        11.1687 
  70   0.0000       0.428511        11.6604 
  71   0.0000       0.453016        12.3272 
  72   0.0000       0.466186        12.6856 
  73   0.0000       0.471036        12.8175 
  74   0.0000       0.474577        12.9139 
  75   0.0000       0.496779        13.5180 
  76   0.0000       0.505073        13.7437 
  77   0.0000       0.515768        14.0348 
  78   0.0000       0.516913        14.0659 
  79   0.0000       0.545219        14.8362 
  80   0.0000       0.568471        15.4689 
  81   0.0000       0.586844        15.9688 
  82   0.0000       0.603681        16.4270 
  83   0.0000       0.612256        16.6603 
  84   0.0000       0.638064        17.3626 
  85   0.0000       0.680854        18.5270 
  86   0.0000       0.700405        19.0590 
  87   0.0000       0.724649        19.7187 
  88   0.0000       0.742455        20.2032 
  89   0.0000       0.769251        20.9324 
  90   0.0000       0.798217        21.7206 
  91   0.0000       0.818254        22.2658 
  92   0.0000       0.852114        23.1872 
  93   0.0000       0.868921        23.6445 
  94   0.0000       0.881554        23.9883 
  95   0.0000       0.897893        24.4329 
  96   0.0000       0.950451        25.8631 
  97   0.0000       0.965826        26.2815 
  98   0.0000       1.003907        27.3177 
  99   0.0000       1.019712        27.7478 
 100   0.0000       1.062821        28.9208 
 101   0.0000       1.069279        29.0966 
 102   0.0000       1.083481        29.4830 
 103   0.0000       1.119317        30.4582 
 104   0.0000       1.134918        30.8827 
 105   0.0000       1.153931        31.4001 
 106   0.0000       1.180357        32.1191 
 107   0.0000       1.231368        33.5072 
 108   0.0000       1.274109        34.6703 
 109   0.0000       1.304593        35.4998 
 110   0.0000       1.398731        38.0614 
 111   0.0000       1.421992        38.6944 
 112   0.0000       1.458826        39.6967 
 113   0.0000       1.491356        40.5819 
 114   0.0000       1.512055        41.1451 
 115   0.0000       1.524333        41.4792 
 116   0.0000       1.528500        41.5926 
 117   0.0000       1.541030        41.9336 
 118   0.0000       1.554484        42.2996 
 119   0.0000       1.570898        42.7463 
 120   0.0000       1.604398        43.6579 
 121   0.0000       1.612307        43.8731 
 122   0.0000       1.635637        44.5079 
 123   0.0000       1.647813        44.8393 
 124   0.0000       1.695543        46.1381 
 125   0.0000       1.706730        46.4425 
 126   0.0000       1.718985        46.7760 
 127   0.0000       1.758927        47.8628 
 128   0.0000       1.764535        48.0154 
 129   0.0000       1.779703        48.4282 
 130   0.0000       1.793086        48.7924 
 131   0.0000       1.839276        50.0492 
 132   0.0000       1.882766        51.2327 
 133   0.0000       1.898776        51.6683 
 134   0.0000       1.932307        52.5808 
 135   0.0000       1.939281        52.7705 
 136   0.0000       1.944435        52.9108 
 137   0.0000       2.036537        55.4170 
 138   0.0000       2.049837        55.7789 
 139   0.0000       2.081375        56.6371 
 140   0.0000       2.109338        57.3980 
 141   0.0000       2.129085        57.9353 
 142   0.0000       2.142596        58.3030 
 143   0.0000       2.180709        59.3401 
 144   0.0000       2.217706        60.3468 
 145   0.0000       2.255836        61.3844 
 146   0.0000       2.268897        61.7398 
 147   0.0000       2.320716        63.1499 
 148   0.0000       2.356525        64.1243 
 149   0.0000       2.388244        64.9874 
 150   0.0000       2.427021        66.0426 
 151   0.0000       2.446584        66.5749 
 152   0.0000       2.465456        67.0885 
 153   0.0000       2.475349        67.3577 
 154   0.0000       2.494737        67.8852 
 155   0.0000       2.505927        68.1897 
 156   0.0000       2.537049        69.0366 
 157   0.0000       2.541919        69.1691 
 158   0.0000       2.558132        69.6103 
 159   0.0000       2.597662        70.6860 
 160   0.0000       2.613903        71.1279 
 161   0.0000       2.695734        73.3546 
 162   0.0000       2.783845        75.7523 
 163   0.0000       2.820451        76.7484 
 164   0.0000       2.854586        77.6772 
 165   0.0000       2.901474        78.9531 
 166   0.0000       2.972234        80.8786 
 167   0.0000       2.988667        81.3258 
 168   0.0000       3.022638        82.2502 
 169   0.0000       3.135893        85.3320 
 170   0.0000       3.246819        88.3504 
 171   0.0000       3.291924        89.5778 
 172   0.0000       3.378153        91.9242 
 173   0.0000       3.604682        98.0884 
 174   0.0000       3.640269        99.0568 

                    ********************************
                    * MULLIKEN POPULATION ANALYSIS *
                    ********************************

-----------------------
MULLIKEN ATOMIC CHARGES
-----------------------
   0 C :    0.023752
   1 C :   -0.009308
   2 C :    0.092994
   3 C :    0.052316
   4 C :   -0.088942
   5 C :    0.341545
   6 H :    0.036456
   7 H :    0.074632
   8 H :    0.066104
   9 H :    0.098434
  10 H :    0.152564
  11 N :   -0.053143
  12 H :    0.179037
  13 H :    0.171594
  14 N :    0.199777
  15 O :   -0.174830
  16 O :   -0.162983
Sum of atomic charges:    1.0000000

--------------------------------
MULLIKEN REDUCED ORBITAL CHARGES
--------------------------------
  0 C s       :     3.047887  s :     3.047887
      pz      :     0.897492  p :     2.870869
      px      :     1.067681
      py      :     0.905696
      dz2     :     0.004261  d :     0.057492
      dxz     :     0.006065
      dyz     :     0.013963
      dx2y2   :     0.018298
      dxy     :     0.014904
  1 C s       :     3.247945  s :     3.247945
      pz      :     1.010113  p :     2.730788
      px      :     0.841950
      py      :     0.878725
      dz2     :     0.002697  d :     0.030575
      dxz     :     0.003451
      dyz     :     0.003553
      dx2y2   :     0.008983
      dxy     :     0.011891
  2 C s       :     3.188436  s :     3.188436
      pz      :     0.793531  p :     2.681918
      px      :     0.934367
      py      :     0.954019
      dz2     :     0.002517  d :     0.036653
      dxz     :     0.005132
      dyz     :     0.004829
      dx2y2   :     0.011427
      dxy     :     0.012747
  3 C s       :     3.165132  s :     3.165132
      pz      :     0.963308  p :     2.749442
      px      :     0.923442
      py      :     0.862692
      dz2     :     0.002519  d :     0.033109
      dxz     :     0.003676
      dyz     :     0.002870
      dx2y2   :     0.012344
      dxy     :     0.011701
  4 C s       :     3.328370  s :     3.328370
      pz      :     0.806021  p :     2.726547
      px      :     0.948008
      py      :     0.972518
      dz2     :     0.002741  d :     0.034025
      dxz     :     0.002813
      dyz     :     0.006795
      dx2y2   :     0.012936
      dxy     :     0.008739
  5 C s       :     2.748878  s :     2.748878
      pz      :     1.021483  p :     2.853723
      px      :     0.910574
      py      :     0.921665
      dz2     :     0.010546  d :     0.055854
      dxz     :     0.007367
      dyz     :     0.007892
      dx2y2   :     0.012692
      dxy     :     0.017357
  6 H s       :     0.939842  s :     0.939842
      pz      :     0.004568  p :     0.023702
      px      :     0.014388
      py      :     0.004747
  7 H s       :     0.902126  s :     0.902126
      pz      :     0.003148  p :     0.023242
      px      :     0.012753
      py      :     0.007342
  8 H s       :     0.910334  s :     0.910334
      pz      :     0.004036  p :     0.023562
      px      :     0.003134
      py      :     0.016391
  9 H s       :     0.877386  s :     0.877386
      pz      :     0.003605  p :     0.024180
      px      :     0.014274
      py      :     0.006301
 10 H s       :     0.819004  s :     0.819004
      pz      :     0.016398  p :     0.028432
      px      :     0.004810
      py      :     0.007223
 11 N s       :     3.349098  s :     3.349098
      pz      :     1.591274  p :     3.691073
      px      :     1.057914
      py      :     1.041886
      dz2     :     0.001548  d :     0.012971
      dxz     :     0.000199
      dyz     :     0.002235
      dx2y2   :     0.004230
      dxy     :     0.004759
 12 H s       :     0.777624  s :     0.777624
      pz      :     0.010817  p :     0.043339
      px      :     0.022682
      py      :     0.009840
 13 H s       :     0.784201  s :     0.784201
      pz      :     0.011004  p :     0.044205
      px      :     0.019121
      py      :     0.014080
 14 N s       :     3.287036  s :     3.287036
      pz      :     1.161469  p :     3.386470
      px      :     1.106490
      py      :     1.118511
      dz2     :     0.017995  d :     0.126717
      dxz     :     0.025597
      dyz     :     0.015648
      dx2y2   :     0.031801
      dxy     :     0.035676
 15 O s       :     3.863502  s :     3.863502
      pz      :     1.270568  p :     4.286719
      px      :     1.815262
      py      :     1.200889
      dz2     :     0.005255  d :     0.024609
      dxz     :     0.001843
      dyz     :     0.008634
      dx2y2   :     0.005615
      dxy     :     0.003262
 16 O s       :     3.873050  s :     3.873050
      pz      :     1.498729  p :     4.265270
      px      :     1.174703
      py      :     1.591837
      dz2     :     0.003022  d :     0.024664
      dxz     :     0.006479
      dyz     :     0.000792
      dx2y2   :     0.007220
      dxy     :     0.007151


                     *******************************
                     * LOEWDIN POPULATION ANALYSIS *
                     *******************************

----------------------
LOEWDIN ATOMIC CHARGES
----------------------
   0 C :    0.104607
   1 C :   -0.022685
   2 C :    0.113679
   3 C :    0.002360
   4 C :    0.119588
   5 C :   -0.009234
   6 H :    0.059041
   7 H :    0.068784
   8 H :    0.064926
   9 H :    0.073628
  10 H :    0.143455
  11 N :    0.062952
  12 H :    0.119162
  13 H :    0.104207
  14 N :    0.266321
  15 O :   -0.138071
  16 O :   -0.132719

-------------------------------
LOEWDIN REDUCED ORBITAL CHARGES
-------------------------------
  0 C s       :     2.857013  s :     2.857013
      pz      :     0.882292  p :     2.905833
      px      :     1.059532
      py      :     0.964009
      dz2     :     0.009151  d :     0.132548
      dxz     :     0.011112
      dyz     :     0.027244
      dx2y2   :     0.047589
      dxy     :     0.037452
  1 C s       :     2.864550  s :     2.864550
      pz      :     0.996140  p :     3.076155
      px      :     1.049370
      py      :     1.030646
      dz2     :     0.006519  d :     0.081979
      dxz     :     0.006245
      dyz     :     0.007089
      dx2y2   :     0.029330
      dxy     :     0.032796
  2 C s       :     2.875773  s :     2.875773
      pz      :     0.784245  p :     2.919469
      px      :     1.088532
      py      :     1.046692
      dz2     :     0.006050  d :     0.091079
      dxz     :     0.009572
      dyz     :     0.009667
      dx2y2   :     0.032837
      dxy     :     0.032952
  3 C s       :     2.863741  s :     2.863741
      pz      :     0.952338  p :     3.047143
      px      :     1.044255
      py      :     1.050549
      dz2     :     0.006326  d :     0.086757
      dxz     :     0.008045
      dyz     :     0.004592
      dx2y2   :     0.033841
      dxy     :     0.033954
  4 C s       :     2.882509  s :     2.882509
      pz      :     0.790222  p :     2.912268
      px      :     1.079923
      py      :     1.042123
      dz2     :     0.006378  d :     0.085635
      dxz     :     0.004806
      dyz     :     0.014192
      dx2y2   :     0.032482
      dxy     :     0.027777
  5 C s       :     2.807144  s :     2.807144
      pz      :     1.033955  p :     3.061092
      px      :     0.963501
      py      :     1.063636
      dz2     :     0.027073  d :     0.140998
      dxz     :     0.016125
      dyz     :     0.017156
      dx2y2   :     0.036074
      dxy     :     0.044569
  6 H s       :     0.869554  s :     0.869554
      pz      :     0.014806  p :     0.071405
      px      :     0.040987
      py      :     0.015612
  7 H s       :     0.861888  s :     0.861888
      pz      :     0.009808  p :     0.069328
      px      :     0.036429
      py      :     0.023091
  8 H s       :     0.864454  s :     0.864454
      pz      :     0.013075  p :     0.070620
      px      :     0.010101
      py      :     0.047444
  9 H s       :     0.850382  s :     0.850382
      pz      :     0.012265  p :     0.075990
      px      :     0.043499
      py      :     0.020226
 10 H s       :     0.775799  s :     0.775799
      pz      :     0.046865  p :     0.080746
      px      :     0.015341
      py      :     0.018540
 11 N s       :     3.056670  s :     3.056670
      pz      :     1.542847  p :     3.845817
      px      :     1.179828
      py      :     1.123143
      dz2     :     0.002332  d :     0.034560
      dxz     :     0.000362
      dyz     :     0.004190
      dx2y2   :     0.013069
      dxy     :     0.014608
 12 H s       :     0.763896  s :     0.763896
      pz      :     0.033252  p :     0.116942
      px      :     0.060541
      py      :     0.023149
 13 H s       :     0.774924  s :     0.774924
      pz      :     0.034688  p :     0.120869
      px      :     0.049901
      py      :     0.036279
 14 N s       :     3.020794  s :     3.020794
      pz      :     1.143868  p :     3.446208
      px      :     1.155482
      py      :     1.146858
      dz2     :     0.033374  d :     0.266677
      dxz     :     0.050122
      dyz     :     0.036378
      dx2y2   :     0.069337
      dxy     :     0.077465
 15 O s       :     3.602780  s :     3.602780
      pz      :     1.345547  p :     4.487574
      px      :     1.810052
      py      :     1.331976
      dz2     :     0.007455  d :     0.047717
      dxz     :     0.002955
      dyz     :     0.020227
      dx2y2   :     0.011677
      dxy     :     0.005402
 16 O s       :     3.605298  s :     3.605298
      pz      :     1.515642  p :     4.479597
      px      :     1.343834
      py      :     1.620121
      dz2     :     0.006970  d :     0.047825
      dxz     :     0.009968
      dyz     :     0.001440
      dx2y2   :     0.015634
      dxy     :     0.013812


                      *****************************
                      * MAYER POPULATION ANALYSIS *
                      *****************************

  NA   - Mulliken gross atomic population
  ZA   - Total nuclear charge
  QA   - Mulliken gross atomic charge
  VA   - Mayer's total valence
  BVA  - Mayer's bonded valence
  FA   - Mayer's free valence

  ATOM       NA         ZA         QA         VA         BVA        FA
  0 C      5.9762     6.0000     0.0238     4.1019     4.1019    -0.0000
  1 C      6.0093     6.0000    -0.0093     3.8232     3.8232     0.0000
  2 C      5.9070     6.0000     0.0930     3.8200     3.8200     0.0000
  3 C      5.9477     6.0000     0.0523     3.8479     3.8479     0.0000
  4 C      6.0889     6.0000    -0.0889     3.9444     3.9444    -0.0000
  5 C      5.6585     6.0000     0.3415     3.6209     3.6209    -0.0000
  6 H      0.9635     1.0000     0.0365     0.9968     0.9968    -0.0000
  7 H      0.9254     1.0000     0.0746     0.9801     0.9801     0.0000
  8 H      0.9339     1.0000     0.0661     0.9836     0.9836    -0.0000
  9 H      0.9016     1.0000     0.0984     1.0077     1.0077    -0.0000
 10 H      0.8474     1.0000     0.1526     0.9948     0.9948    -0.0000
 11 N      7.0531     7.0000    -0.0531     3.4247     3.4247     0.0000
 12 H      0.8210     1.0000     0.1790     0.9794     0.9794     0.0000
 13 H      0.8284     1.0000     0.1716     1.0030     1.0030     0.0000
 14 N      6.8002     7.0000     0.1998     4.0065     4.0065     0.0000
 15 O      8.1748     8.0000    -0.1748     2.0090     2.0090     0.0000
 16 O      8.1630     8.0000    -0.1630     1.9905     1.9905     0.0000

  Mayer bond orders larger than 0.100000
B(  0-C ,  1-C ) :   1.4115 B(  0-C ,  5-C ) :   0.9239 B(  0-C , 11-N ) :   1.4116 
B(  1-C ,  2-C ) :   1.2980 B(  1-C ,  4-C ) :   0.1003 B(  1-C ,  6-H ) :   0.9899 
B(  2-C ,  3-C ) :   1.3379 B(  2-C ,  7-H ) :   0.9792 B(  3-C ,  4-C ) :   1.4757 
B(  3-C ,  8-H ) :   0.9873 B(  4-C ,  5-C ) :   1.0285 B(  4-C ,  9-H ) :   0.9700 
B(  5-C , 10-H ) :   0.7730 B(  5-C , 14-N ) :   0.8053 B( 11-N , 12-H ) :   0.9216 
B( 11-N , 13-H ) :   0.9214 B( 14-N , 15-O ) :   1.5739 B( 14-N , 16-O ) :   1.5568 
B( 15-O , 16-O ) :   0.2827 

-------
TIMINGS
-------

Total SCF time: 0 days 0 hours 2 min 4 sec 

Total time                  ....     124.081 sec
Sum of individual times     ....     123.169 sec  ( 99.3%)

Fock matrix formation       ....     117.467 sec  ( 94.7%)
  Split-RI-J                ....      10.734 sec  (  9.1% of F)
  Chain of spheres X        ....      89.575 sec  ( 76.3% of F)
  XC integration            ....      17.016 sec  ( 14.5% of F)
    Basis function eval.    ....       6.422 sec  ( 37.7% of XC)
    Density eval.           ....       4.732 sec  ( 27.8% of XC)
    XC-Functional eval.     ....       1.359 sec  (  8.0% of XC)
    XC-Potential eval.      ....       3.566 sec  ( 21.0% of XC)
Diagonalization             ....       0.056 sec  (  0.0%)
Density matrix formation    ....       0.014 sec  (  0.0%)
Population analysis         ....       0.036 sec  (  0.0%)
Initial guess               ....       0.921 sec  (  0.7%)
Orbital Transformation      ....       0.000 sec  (  0.0%)
Orbital Orthonormalization  ....       0.000 sec  (  0.0%)
DIIS solution               ....       0.089 sec  (  0.1%)
SOSCF solution              ....       0.062 sec  (  0.0%)
Grid generation             ....       4.524 sec  (  3.6%)

Maximum memory used throughout the entire SCF-calculation: 75.2 MB


-------------------------------------------------------------------------------
                          DFT DISPERSION CORRECTION                            
                                                                               
                                 DFTD4 V2.5                                    
-------------------------------------------------------------------------------
The B3LYP functional is recognized
Active option DFTDOPT                   ...         5   

Starting D4
-------------------------   ----------------
Dispersion correction           -0.026853541
-------------------------   ----------------


-------------------------   --------------------
FINAL SINGLE POINT ENERGY      -491.757630113737
-------------------------   --------------------

------------------------------------------------------------------------------
                         ORCA SCF GRADIENT CALCULATION
------------------------------------------------------------------------------

 ... reading COSX grid (gridx3)
Gradient of the Kohn-Sham DFT energy:
Kohn-Sham wavefunction type      ... RKS
Hartree-Fock exchange scaling    ...    0.200
Number of operators              ...    1
Number of atoms                  ...   17
Basis set dimensions             ...  175
Integral neglect threshold       ... 2.5e-11
Integral primitive cutoff        ... 2.5e-12
SHARK Integral package           ... ON

Nuc. rep. gradient       (SHARK) ... done (  0.0 sec)
HCore & Overlap gradient (SHARK) ... done (  0.3 sec)
RI-J gradient            (SHARK) ... done (  1.8 sec)
COSX-gradient                    ... done ( 16.6 sec)
Exchange-correlation gradient    ... done
Dispersion correction            ... Starting D4


------------------- 
Dispersion Gradient 
------------------- 
   1  :   -0.000337729    0.000293251    0.000044527
   2  :   -0.000620883   -0.000025549   -0.000001200
   3  :   -0.000451913   -0.000467329   -0.000019628
   4  :   -0.000146276   -0.000653224    0.000009723
   5  :    0.000241928   -0.000551294    0.000071912
   6  :    0.000275075    0.000029229    0.000058484
   7  :   -0.000194022    0.000041379   -0.000014809
   8  :   -0.000122453   -0.000102597   -0.000007789
   9  :   -0.000007370   -0.000166127   -0.000005229
  10  :    0.000155096   -0.000147498   -0.000005614
  11  :    0.000156166    0.000034299    0.000173812
  12  :   -0.000416139    0.000616370    0.000063407
  13  :   -0.000227873    0.000203080   -0.000008855
  14  :    0.000082100    0.000270923    0.000031503
  15  :    0.000665202    0.000202446   -0.000109224
  16  :    0.000438333    0.000374567   -0.000274184
  17  :    0.000510758    0.000048075   -0.000006836

  |G| =    0.001924567

done

------------------
CARTESIAN GRADIENT
------------------

   1   C   :   -0.013291309   -0.102105070    0.006866124
   2   C   :    0.028534637    0.079937715    0.000255599
   3   C   :    0.051119710   -0.088420353    0.002261467
   4   C   :   -0.116811498   -0.013182672   -0.005011069
   5   C   :    0.056786381    0.146356066    0.020857894
   6   C   :    0.048124642   -0.064619350   -0.029120136
   7   H   :    0.002916121   -0.001931678    0.000411655
   8   H   :    0.006600464    0.000040996    0.000726358
   9   H   :   -0.006185169    0.003784822    0.000264340
  10   H   :   -0.005797556   -0.001664347   -0.003084938
  11   H   :    0.000364395   -0.000939070   -0.026079996
  12   N   :   -0.015806028    0.053319667   -0.004188331
  13   H   :   -0.010972250    0.008472678   -0.002840245
  14   H   :    0.007649303    0.007915046    0.007890987
  15   N   :   -0.059637086   -0.028082677    0.047385433
  16   O   :    0.044331513   -0.042345250    0.017654341
  17   O   :   -0.017901644    0.043502880   -0.034374780

Difference to translation invariance:
           :    0.0000246261    0.0000394050   -0.0001252985

Difference to rotation invariance:
           :   -0.0005568422   -0.0001010823   -0.0002523131

Norm of the cartesian gradient     ...    0.3048588100
RMS gradient                       ...    0.0426887720
MAX gradient                       ...    0.1463560657

-------
TIMINGS
-------

Total SCF gradient time            ...       26.835 sec

One electron gradient       ....       0.257 sec  (  1.0%)
RI-J Coulomb gradient       ....       1.780 sec  (  6.6%)
COSX gradient               ....      16.645 sec  ( 62.0%)
XC gradient                 ....       7.387 sec  ( 27.5%)

Maximum memory used throughout the entire SCFGRAD-calculation: 60.6 MB
------------------------------------------------------------------------------
                         ORCA GEOMETRY RELAXATION STEP
------------------------------------------------------------------------------

Reading the OPT-File                    .... done
Getting information on internals        .... done
Copying old internal coords+grads       .... done
Making the new internal coordinates     .... (new redundants).... done
Validating the new internal coordinates .... (new redundants).... done
Calculating the B-matrix                .... done
Calculating the G,G- and P matrices     .... done
Transforming gradient to internals      .... done
Projecting the internal gradient        .... done
Number of atoms                         ....  17
Number of internal coordinates          ....  82
Current Energy                          ....  -491.757630114 Eh
Current gradient norm                   ....     0.304858810 Eh/bohr
Maximum allowed component of the step   ....  0.300
Current trust radius                    ....  0.300
Evaluating the initial hessian          ....  (Almloef) done
Projecting the Hessian                  .... done
Forming the augmented Hessian           .... done
Diagonalizing the augmented Hessian     .... done
Last element of RFO vector              ....  0.935637726
Lowest eigenvalues of augmented Hessian:
 -0.071849391  0.017461799  0.018725151  0.019251465  0.019444535
Length of the computed step             ....  0.377241970
Warning: the length of the step is outside the trust region - taking restricted step instead
The input lambda is                     ....    -0.071849
   iter:   1  x=   -0.125306  g=    0.978585 f(x)=     0.052312
   iter:   2  x=   -0.163707  g=    0.454874 f(x)=     0.017468
   iter:   3  x=   -0.171846  g=    0.328976 f(x)=     0.002677
   iter:   4  x=   -0.172090  g=    0.310662 f(x)=     0.000076
   iter:   5  x=   -0.172090  g=    0.310142 f(x)=     0.000000
   iter:   6  x=   -0.172090  g=    0.310142 f(x)=     0.000000
   iter:   7  x=   -0.172090  g=    0.310142 f(x)=     0.000000
The output lambda is                    ....    -0.172090 (7 iterations)
The final length of the internal step   ....  0.300000000
Converting the step to cartesian space:
 Initial RMS(Int)=    0.0331294578
Transforming coordinates:
 Iter   0:  RMS(Cart)=    0.0479194969 RMS(Int)=    0.0330420872
 Iter   1:  RMS(Cart)=    0.0008299735 RMS(Int)=    0.0006689782
 Iter   2:  RMS(Cart)=    0.0000380849 RMS(Int)=    0.0000294115
 Iter   3:  RMS(Cart)=    0.0000016493 RMS(Int)=    0.0000011160
 Iter   4:  RMS(Cart)=    0.0000000741 RMS(Int)=    0.0000000592
done
Storing new coordinates                 .... done

                                .--------------------.
          ----------------------|Geometry convergence|-------------------------
          Item                value                   Tolerance       Converged
          ---------------------------------------------------------------------
          RMS gradient        0.0232637729            0.0001000000      NO
          MAX gradient        0.0950281463            0.0003000000      NO
          RMS step            0.0331294578            0.0020000000      NO
          MAX step            0.1237079746            0.0040000000      NO
          ........................................................
          Max(Bonds)      0.0655      Max(Angles)    5.51
          Max(Dihed)        2.04      Max(Improp)    0.00
          ---------------------------------------------------------------------

The optimization has not yet converged - more geometry cycles are needed


    ---------------------------------------------------------------------------
                         Redundant Internal Coordinates
                            (Angstroem and degrees)

        Definition                    Value    dE/dq     Step     New-Value
    ----------------------------------------------------------------------------
     1. B(C   1,C   0)                1.3509 -0.038746  0.0224    1.3733   
     2. B(C   2,C   1)                1.4757  0.046403 -0.0398    1.4359   
     3. B(C   3,C   2)                1.3363 -0.075300  0.0427    1.3791   
     4. B(C   4,C   3)                1.4803  0.077674 -0.0655    1.4148   
     5. B(C   5,C   4)                1.3609 -0.095028  0.0585    1.4195   
     6. B(C   5,C   0)                1.5151  0.004938 -0.0047    1.5104   
     7. B(H   6,C   1)                1.0860 -0.003467  0.0034    1.0895   
     8. B(H   7,C   2)                1.0854 -0.005473  0.0054    1.0907   
     9. B(H   8,C   3)                1.0854 -0.004311  0.0042    1.0896   
    10. B(H   9,C   4)                1.0868 -0.004118  0.0041    1.0909   
    11. B(H  10,C   5)                1.0887 -0.025660  0.0254    1.1142   
    12. B(N  11,C   0)                1.4243  0.071503 -0.0569    1.3674   
    13. B(H  12,N  11)                1.0309  0.013641 -0.0126    1.0183   
    14. B(H  13,N  11)                1.0285  0.011945 -0.0110    1.0175   
    15. B(N  14,C   5)                1.4387 -0.050254  0.0415    1.4802   
    16. B(O  15,N  14)                1.1936 -0.049074  0.0216    1.2152   
    17. B(O  16,N  14)                1.1960 -0.037738  0.0167    1.2127   
    18. A(C   5,C   0,N  11)          121.01  0.007598   -0.71    120.31   
    19. A(C   1,C   0,N  11)          118.60 -0.017116    1.72    120.32   
    20. A(C   1,C   0,C   5)          120.31  0.009530   -1.01    119.30   
    21. A(C   2,C   1,H   6)          118.59 -0.000689    0.17    118.76   
    22. A(C   0,C   1,C   2)          120.81  0.000167   -0.20    120.61   
    23. A(C   0,C   1,H   6)          120.60  0.000516    0.03    120.63   
    24. A(C   3,C   2,H   7)          120.24  0.003658   -0.27    119.97   
    25. A(C   1,C   2,H   7)          119.97  0.011290   -1.15    118.82   
    26. A(C   1,C   2,C   3)          119.78 -0.014939    1.42    121.20   
    27. A(C   2,C   3,C   4)          120.01  0.001065    0.00    120.01   
    28. A(C   2,C   3,H   8)          120.10 -0.006508    0.65    120.75   
    29. A(C   4,C   3,H   8)          119.88  0.005454   -0.66    119.22   
    30. A(C   5,C   4,H   9)          120.93  0.000091   -0.14    120.79   
    31. A(C   3,C   4,H   9)          117.07 -0.008851    0.86    117.94   
    32. A(C   3,C   4,C   5)          121.99  0.008745   -0.71    121.28   
    33. A(C   0,C   5,H  10)          100.60 -0.000402    0.15    100.74   
    34. A(H  10,C   5,N  14)           99.15 -0.004936    0.87    100.02   
    35. A(C   0,C   5,C   4)          116.56 -0.004184    0.40    116.96   
    36. A(C   4,C   5,N  14)          114.92 -0.001989    0.08    115.00   
    37. A(C   0,C   5,N  14)          120.08  0.008945   -1.15    118.94   
    38. A(C   4,C   5,H  10)           99.50  0.000356    0.16     99.66   
    39. A(H  12,N  11,H  13)          117.51 -0.002707    0.33    117.85   
    40. A(C   0,N  11,H  13)          121.62 -0.000948    0.11    121.73   
    41. A(C   0,N  11,H  12)          120.75  0.003465   -0.38    120.37   
    42. A(O  15,N  14,O  16)          118.73 -0.062829    5.51    124.24   
    43. A(C   5,N  14,O  16)          120.51  0.036276   -3.14    117.37   
    44. A(C   5,N  14,O  15)          120.56  0.026142   -2.19    118.36   
    45. D(C   2,C   1,C   0,C   5)     -1.40  0.002256   -0.56     -1.96   
    46. D(H   6,C   1,C   0,N  11)      1.27  0.000772   -0.17      1.11   
    47. D(C   2,C   1,C   0,N  11)   -178.33  0.001779   -0.53   -178.86   
    48. D(H   6,C   1,C   0,C   5)    178.21  0.001248   -0.20    178.01   
    49. D(C   3,C   2,C   1,H   6)    178.32  0.001552   -0.36    177.96   
    50. D(C   3,C   2,C   1,C   0)     -2.07  0.000569   -0.01     -2.07   
    51. D(H   7,C   2,C   1,C   0)    179.00 -0.000060    0.18    179.18   
    52. D(H   7,C   2,C   1,H   6)     -0.61  0.000923   -0.18     -0.79   
    53. D(H   8,C   3,C   2,H   7)      0.59  0.000475   -0.06      0.53   
    54. D(H   8,C   3,C   2,C   1)   -178.34 -0.000237    0.14   -178.20   
    55. D(C   4,C   3,C   2,H   7)    179.07  0.001027   -0.12    178.95   
    56. D(C   4,C   3,C   2,C   1)      0.14  0.000314    0.08      0.21   
    57. D(H   9,C   4,C   3,C   2)   -173.50  0.000750   -0.24   -173.74   
    58. D(C   5,C   4,C   3,H   8)   -175.77 -0.000201    0.17   -175.60   
    59. D(C   5,C   4,C   3,C   2)      5.75 -0.000568    0.21      5.96   
    60. D(H   9,C   4,C   3,H   8)      4.98  0.001117   -0.28      4.70   
    61. D(N  14,C   5,C   4,H   9)     22.11 -0.005800    1.22     23.34   
    62. D(H  10,C   5,C   4,H   9)    -82.69  0.000237    0.12    -82.57   
    63. D(H  10,C   5,C   4,C   3)     98.10  0.001668   -0.36     97.74   
    64. D(C   0,C   5,C   4,H   9)    170.33  0.001870   -0.28    170.05   
    65. D(C   0,C   5,C   4,C   3)     -8.88  0.003302   -0.76     -9.64   
    66. D(N  14,C   5,C   0,N  11)    -29.83  0.001080   -0.27    -30.10   
    67. D(N  14,C   5,C   0,C   1)    153.31  0.001355   -0.31    153.00   
    68. D(H  10,C   5,C   0,N  11)     77.34 -0.001831    0.46     77.80   
    69. D(H  10,C   5,C   0,C   1)    -99.51 -0.001556    0.42    -99.10   
    70. D(N  14,C   5,C   4,C   3)   -157.10 -0.004369    0.75   -156.35   
    71. D(C   4,C   5,C   0,N  11)   -176.33 -0.003074    0.87   -175.45   
[...]
     34      -0.003253   0.007688  -0.044560   0.009976   0.017912  -0.236473
     35      -0.005087   0.006711   0.002621   0.003792   0.009272   0.013050
     36       0.168737   0.026504  -0.159244   0.261235   0.041408   0.364223
     37       0.500757  -0.040230  -0.507611   0.553838   0.043906   0.447296
     38       0.018985  -0.003676  -0.015859   0.005035  -0.008080  -0.005921
     39       0.015040  -0.148345   0.092811  -0.379289  -0.144408  -0.463361
     40      -0.151868   0.251571  -0.119192   0.509401   0.313465   0.394690
     41      -0.072156  -0.062171   0.057766  -0.133097  -0.051417  -0.131320
     42       0.187806   0.059201   0.046875  -0.055396   0.023659   0.000580
     43       0.168814   0.083188   0.035354   0.002679  -0.001438   0.020836
     44      -0.131388  -0.043791  -0.035342   0.041345  -0.014982  -0.003538
     45      -0.018971  -0.009303  -0.000974   0.000324  -0.001685  -0.000544
     46      -0.251813  -0.097806  -0.046120   0.022478  -0.007530  -0.010068
     47       0.014308   0.007805   0.001941  -0.001607   0.001122   0.001117
     48      -0.149295  -0.044270  -0.041428   0.045977  -0.016838  -0.001076
     49       0.099274   0.025207   0.022454  -0.028887   0.011575  -0.000749
     50       0.092639   0.028422   0.027397  -0.029315   0.010804   0.001512
                 42         43         44         45         46         47    
      0       0.033468   0.030110  -0.000799  -0.001847   0.001639  -0.000501
      1       0.258491   0.086118   0.000269  -0.001323   0.001885  -0.000232
      2       0.000198  -0.007236  -0.000827  -0.000172   0.000104  -0.000115
      3      -0.050616  -0.017851   0.000084   0.058085  -0.053964   0.007564
      4      -0.200850  -0.055723   0.000369  -0.023962   0.028506  -0.005016
      5      -0.011262  -0.001897  -0.000269   0.007737  -0.006944   0.000930
      6       0.016770  -0.009635  -0.000365  -0.047447  -0.046778   0.020755
      7       0.148042   0.033852   0.000153  -0.032531  -0.039626   0.013613
      8       0.007001   0.001197   0.000167  -0.007446  -0.007664   0.003219
      9      -0.289969   0.011573   0.001232   0.000739   0.001174  -0.005595
     10      -0.166503  -0.012922   0.000085   0.010242   0.022463   0.073136
     11      -0.041333  -0.000096  -0.000072   0.000624   0.001374   0.003223
     12       0.245882  -0.013803  -0.000088   0.002853   0.004716   0.034331
     13       0.233652   0.015801  -0.001387  -0.001502  -0.003203  -0.018043
     14       0.043443   0.010465  -0.000337   0.000232   0.000347   0.002801
     15      -0.023862   0.012308  -0.020595  -0.000304   0.000362  -0.000405
     16      -0.073225  -0.063215  -0.018962   0.000162  -0.000043   0.000186
     17      -0.004227  -0.006131  -0.077187  -0.000050   0.000168   0.000182
     18       0.142489   0.027138   0.001279  -0.658065   0.610818  -0.082361
     19       0.216439   0.052903  -0.000901   0.292502  -0.275151   0.037815
     20       0.025939   0.002406  -0.000717  -0.088569   0.082250  -0.010939
     21       0.242950   0.027492   0.000651   0.540367   0.545387  -0.221060
     22      -0.124804  -0.011587   0.000590   0.388485   0.397306  -0.156561
     23       0.030975  -0.001022   0.000117   0.085969   0.086909  -0.035288
     24       0.311541  -0.016567  -0.000311   0.005728   0.013635   0.052721
     25      -0.176922  -0.015098   0.003245  -0.119287  -0.261500  -0.830720
     26       0.018440  -0.011368  -0.001496  -0.005690  -0.012321  -0.038340
     27       0.052700  -0.057865  -0.008883  -0.034443  -0.062190  -0.421646
     28      -0.325642  -0.047572   0.002177   0.015650   0.028357   0.190140
     29      -0.029977  -0.013397   0.001634  -0.002797  -0.005047  -0.033768
     30       0.012866   0.078759   0.243093   0.000212  -0.000605  -0.000319
     31      -0.037104   0.106082   0.233299  -0.000189  -0.000727  -0.001468
     32      -0.013215  -0.054605   0.937839   0.000305  -0.001123  -0.000760
     33       0.011291  -0.010911   0.000161   0.000256  -0.000277  -0.000079
     34      -0.165541  -0.002796  -0.000294   0.000148  -0.000415  -0.000010
     35       0.007772  -0.000959   0.000284   0.000012   0.000005   0.000005
     36       0.220156  -0.102201   0.005825   0.000656  -0.001271  -0.000068
     37       0.257617  -0.192839  -0.001956   0.003055  -0.002489   0.000471
     38      -0.007674   0.017962   0.001405   0.000011  -0.000064   0.000085
     39      -0.253316   0.220417  -0.005619  -0.001510   0.003281   0.001261
     40       0.188120  -0.365993  -0.003491   0.001221   0.000929   0.001553
     41      -0.060825  -0.001738  -0.000462  -0.000364   0.000259  -0.000026
     42      -0.000258  -0.323773   0.001167  -0.000025   0.000074   0.000409
     43      -0.027957   0.599537   0.000080  -0.000063   0.000062  -0.000302
     44      -0.005417   0.198386  -0.000761  -0.000012  -0.000032  -0.000279
     45       0.001891   0.013213  -0.000107  -0.000012   0.000002  -0.000077
     46       0.015018  -0.271629  -0.000142   0.000000  -0.000069  -0.000014
     47       0.000064  -0.007731   0.000102   0.000017   0.000004   0.000062
     48      -0.006209   0.259102  -0.000513   0.000006   0.000006  -0.000061
     49       0.004680  -0.223879   0.000271   0.000015   0.000021   0.000313
     50       0.004803  -0.158448   0.000148  -0.000009  -0.000014  -0.000010
                 48         49         50    
      0      -0.000245  -0.000378  -0.000340
      1       0.000620   0.000293   0.001447
      2      -0.000138   0.000374  -0.000063
      3      -0.002347   0.001294  -0.000113
      4       0.001505   0.003523   0.000191
      5      -0.000271   0.000413  -0.000110
      6      -0.005845   0.001248   0.000015
      7      -0.002432  -0.001673  -0.000210
      8      -0.000889   0.000074  -0.000008
      9      -0.002852  -0.001141  -0.000088
     10      -0.043925  -0.000301   0.000070
     11      -0.002501  -0.000099   0.000008
     12       0.074406   0.000017   0.000202
     13      -0.027589   0.000801  -0.000021
     14       0.006500   0.000319  -0.000006
     15      -0.000190  -0.001264  -0.000417
     16       0.001526  -0.000287   0.000550
     17       0.001005  -0.001066  -0.000311
     18       0.024677  -0.002998   0.001034
     19      -0.011176  -0.000076  -0.001356
     20       0.003405  -0.000382   0.000175
     21       0.051045  -0.001437   0.000056
     22       0.034758  -0.001139  -0.000112
     23       0.007836  -0.000703   0.000138
     24      -0.026371  -0.000532   0.000177
     25       0.460435   0.000685  -0.000345
     26       0.021642  -0.000319   0.000025
     27      -0.801719   0.003519  -0.000946
     28       0.356240  -0.001086   0.000049
     29      -0.064270  -0.000564   0.000122
     30      -0.002415   0.001350   0.000088
     31      -0.003948   0.000994   0.000817
     32      -0.007377   0.006991   0.002347
     33      -0.000184  -0.024386   0.082707
     34      -0.000137  -0.054263  -0.011187
     35       0.000003   0.002808   0.010706
     36      -0.000640  -0.379302  -0.813789
     37       0.000259   0.190280   0.377949
     38       0.000060  -0.064195  -0.138002
     39       0.002373   0.718567  -0.326286
     40       0.001877   0.543346  -0.249404
     41      -0.000024   0.023824  -0.009798
     42       0.000659   0.001045  -0.000115
     43      -0.000655   0.003437  -0.001219
     44      -0.000507  -0.000482   0.000086
     45      -0.000119  -0.000953   0.000237
     46       0.000049  -0.002390   0.000860
     47       0.000104   0.000240  -0.000024
     48      -0.000093   0.000188  -0.000187
     49       0.000592  -0.001061   0.000440
     50      -0.000004  -0.000061   0.000078


-----------
IR SPECTRUM
-----------

 Mode   freq       eps      Int      T**2         TX        TY        TZ
       cm**-1   L/(mol*cm) km/mol    a.u.
----------------------------------------------------------------------------
  6:     55.33   0.000055    0.28  0.000313  (-0.010172 -0.009122 -0.011228)
  7:     73.76   0.000769    3.89  0.003253  ( 0.023375  0.035338  0.038181)
  8:    204.28   0.000388    1.96  0.000593  ( 0.005624  0.015530 -0.017883)
  9:    277.64   0.001924    9.72  0.002163  ( 0.039609 -0.021232 -0.011952)
 10:    340.42   0.000529    2.67  0.000485  ( 0.017096 -0.003882  0.013310)
 11:    390.01   0.000646    3.26  0.000517  ( 0.019384 -0.008484 -0.008316)
 12:    429.88   0.000981    4.96  0.000712  ( 0.008129 -0.023246 -0.010275)
 13:    459.71   0.000392    1.98  0.000266  (-0.002326 -0.004494 -0.015513)
 14:    525.11   0.001440    7.28  0.000856  (-0.002326  0.020237 -0.020995)
 15:    547.35   0.003038   15.35  0.001732  ( 0.021014 -0.002051 -0.035861)
 16:    614.33   0.004562   23.05  0.002317  ( 0.012278  0.008762 -0.045715)
 17:    624.67   0.000920    4.65  0.000459  ( 0.015221  0.014051 -0.005513)
 18:    684.22   0.000213    1.08  0.000097  (-0.003114 -0.000026 -0.009348)
 19:    749.66   0.033025  166.89  0.013747  (-0.017054  0.046245  0.106386)
 20:    762.82   0.007499   37.90  0.003068  ( 0.004606 -0.002112 -0.055154)
 21:    800.86   0.003231   16.33  0.001259  ( 0.000165 -0.015992  0.031671)
 22:    840.60   0.007924   40.04  0.002942  ( 0.037970  0.013454 -0.036315)
 23:    873.17   0.011412   57.67  0.004079  ( 0.059711  0.016884 -0.015107)
 24:    910.99   0.002048   10.35  0.000701  ( 0.012154  0.004250 -0.023145)
 25:    955.78   0.001791    9.05  0.000585  (-0.019609 -0.007914  0.011730)
 26:   1000.04   0.001971    9.96  0.000615  (-0.016883  0.018124 -0.001212)
 27:   1018.12   0.000114    0.58  0.000035  (-0.005810  0.000978 -0.000544)
 28:   1039.27   0.000254    1.28  0.000076  (-0.006543 -0.002017  0.005426)
 29:   1050.51   0.000248    1.26  0.000074  ( 0.002123 -0.002241 -0.008015)
 30:   1098.95   0.002101   10.62  0.000596  (-0.020092  0.013687  0.002336)
 31:   1179.38   0.005404   27.31  0.001430  ( 0.027771  0.019559 -0.016616)
 32:   1189.65   0.000206    1.04  0.000054  ( 0.000927 -0.000324  0.007290)
 33:   1198.48   0.004988   25.20  0.001299  (-0.024731  0.026194  0.000960)
 34:   1289.55   0.001140    5.76  0.000276  ( 0.005777 -0.015570  0.000280)
 35:   1364.72   0.000169    0.85  0.000039  (-0.002401  0.000814  0.005672)
 36:   1395.49   0.028585  144.46  0.006392  ( 0.055157  0.051888 -0.025645)
 37:   1429.19   0.005064   25.59  0.001106  ( 0.031395  0.008919 -0.006369)
 38:   1464.17   0.011454   57.88  0.002441  (-0.000296 -0.048796 -0.007748)
 39:   1522.76   0.008614   43.53  0.001765  (-0.033186 -0.023991  0.009405)
 40:   1597.04   0.021438  108.34  0.004189  (-0.032068  0.055855 -0.006396)
 41:   1661.72   0.048923  247.23  0.009187  (-0.035999  0.088798 -0.002522)
 42:   1709.88   0.023778  120.16  0.004340  ( 0.020536  0.062476  0.003825)
 43:   1756.06   0.044147  223.10  0.007845  (-0.039153  0.075258  0.025463)
 44:   3010.15   0.005488   27.73  0.000569  ( 0.009561  0.000239  0.021851)
 45:   3195.21   0.000371    1.88  0.000036  (-0.004416  0.004064 -0.000492)
 46:   3205.78   0.000706    3.57  0.000069  ( 0.007161  0.004004  0.001176)
 47:   3216.23   0.001628    8.23  0.000158  (-0.011440 -0.005035 -0.001327)
 48:   3230.83   0.003155   15.94  0.000305  (-0.012901  0.011758 -0.000169)
 49:   3437.26   0.057468  290.42  0.005217  ( 0.025113  0.067486 -0.005693)
 50:   3603.12   0.033627  169.94  0.002912  (-0.051096  0.017045 -0.003323)

* The epsilon (eps) is given for a Dirac delta lineshape.
** The dipole moment derivative (T) already includes vibrational overlap.

The first frequency considered to be a vibration is 6
The total number of vibrations considered is 45


--------------------------
THERMOCHEMISTRY AT 298.15K
--------------------------

Temperature         ... 298.15 K
Pressure            ... 1.00 atm
Total Mass          ... 139.13 AMU

Throughout the following assumptions are being made:
  (1) The electronic state is orbitally nondegenerate
  (2) There are no thermally accessible electronically excited states
  (3) Hindered rotations indicated by low frequency modes are not
      treated as such but are treated as vibrations and this may
      cause some error
  (4) All equations used are the standard statistical mechanics
      equations for an ideal gas
  (5) All vibrations are strictly harmonic

freq.      55.33  E(vib)   ...       0.52 
freq.      73.76  E(vib)   ...       0.49 
freq.     204.28  E(vib)   ...       0.35 
freq.     277.64  E(vib)   ...       0.28 
freq.     340.42  E(vib)   ...       0.23 
freq.     390.01  E(vib)   ...       0.20 
freq.     429.88  E(vib)   ...       0.18 
freq.     459.71  E(vib)   ...       0.16 
freq.     525.11  E(vib)   ...       0.13 
freq.     547.35  E(vib)   ...       0.12 
freq.     614.33  E(vib)   ...       0.10 
freq.     624.67  E(vib)   ...       0.09 
freq.     684.22  E(vib)   ...       0.07 
freq.     749.66  E(vib)   ...       0.06 
freq.     762.82  E(vib)   ...       0.06 
freq.     800.86  E(vib)   ...       0.05 
freq.     840.60  E(vib)   ...       0.04 
freq.     873.17  E(vib)   ...       0.04 
freq.     910.99  E(vib)   ...       0.03 
freq.     955.78  E(vib)   ...       0.03 
freq.    1000.04  E(vib)   ...       0.02 
freq.    1018.12  E(vib)   ...       0.02 
freq.    1039.27  E(vib)   ...       0.02 
freq.    1050.51  E(vib)   ...       0.02 
freq.    1098.95  E(vib)   ...       0.02 
freq.    1179.38  E(vib)   ...       0.01 
freq.    1189.65  E(vib)   ...       0.01 
freq.    1198.48  E(vib)   ...       0.01 
freq.    1289.55  E(vib)   ...       0.01 
freq.    1364.72  E(vib)   ...       0.01 
freq.    1395.49  E(vib)   ...       0.00 
freq.    1429.19  E(vib)   ...       0.00 
freq.    1464.17  E(vib)   ...       0.00 
freq.    1522.76  E(vib)   ...       0.00 
freq.    1597.04  E(vib)   ...       0.00 
freq.    1661.72  E(vib)   ...       0.00 
freq.    1709.88  E(vib)   ...       0.00 
freq.    1756.06  E(vib)   ...       0.00 
freq.    3010.15  E(vib)   ...       0.00 
freq.    3195.21  E(vib)   ...       0.00 
freq.    3205.78  E(vib)   ...       0.00 
freq.    3216.23  E(vib)   ...       0.00 
freq.    3230.83  E(vib)   ...       0.00 
freq.    3437.26  E(vib)   ...       0.00 
freq.    3603.12  E(vib)   ...       0.00 

------------
INNER ENERGY
------------

The inner energy is: U= E(el) + E(ZPE) + E(vib) + E(rot) + E(trans)
    E(el)   - is the total energy from the electronic structure calculation
              = E(kin-el) + E(nuc-el) + E(el-el) + E(nuc-nuc)
    E(ZPE)  - the the zero temperature vibrational energy from the frequency calculation
    E(vib)  - the the finite temperature correction to E(ZPE) due to population
              of excited vibrational states
    E(rot)  - is the rotational thermal energy
    E(trans)- is the translational thermal energy

Summary of contributions to the inner energy U:
Electronic energy                ...   -491.82725418 Eh
Zero point energy                ...      0.13209760 Eh      82.89 kcal/mol
Thermal vibrational correction   ...      0.00540681 Eh       3.39 kcal/mol
Thermal rotational correction    ...      0.00141627 Eh       0.89 kcal/mol
Thermal translational correction ...      0.00141627 Eh       0.89 kcal/mol
-----------------------------------------------------------------------
Total thermal energy                   -491.68691722 Eh


Summary of corrections to the electronic energy:
(perhaps to be used in another calculation)
Total thermal correction                  0.00823936 Eh       5.17 kcal/mol
Non-thermal (ZPE) correction              0.13209760 Eh      82.89 kcal/mol
-----------------------------------------------------------------------
Total correction                          0.14033696 Eh      88.06 kcal/mol


--------
ENTHALPY
--------

The enthalpy is H = U + kB*T
                kB is Boltzmann's constant
Total free energy                 ...   -491.68691722 Eh 
Thermal Enthalpy correction       ...      0.00094421 Eh       0.59 kcal/mol
-----------------------------------------------------------------------
Total Enthalpy                    ...   -491.68597301 Eh


Note: Only C1 symmetry has been detected, increase convergence thresholds 
      if your molecule has a higher symmetry. Symmetry factor of 1.0 is   
      used for the rotational entropy correction. 
 

Note: Rotational entropy computed according to Herzberg 
Infrared and Raman Spectra, Chapter V,1, Van Nostrand Reinhold, 1945 
Point Group:  C1, Symmetry Number:   1  
Rotational constants in cm-1:     0.073033     0.042602     0.028163 

Vibrational entropy computed according to the QRRHO of S. Grimme
Chem.Eur.J. 2012 18 9955


-------
ENTROPY
-------

The entropy contributions are T*S = T*(S(el)+S(vib)+S(rot)+S(trans))
     S(el)   - electronic entropy
     S(vib)  - vibrational entropy
     S(rot)  - rotational entropy
     S(trans)- translational entropy
The entropies will be listed as multiplied by the temperature to get
units of energy

Electronic entropy                ...      0.00000000 Eh      0.00 kcal/mol
Vibrational entropy               ...      0.00886010 Eh      5.56 kcal/mol
Rotational entropy                ...      0.01392129 Eh      8.74 kcal/mol
Translational entropy             ...      0.01933899 Eh     12.14 kcal/mol
-----------------------------------------------------------------------
Final entropy term                ...      0.04212039 Eh     26.43 kcal/mol

In case the symmetry of your molecule has not been determined correctly
or in case you have a reason to use a different symmetry number we print 
out the resulting rotational entropy values for sn=1,12 :
 --------------------------------------------------------
|  sn= 1 | S(rot)=       0.01392129 Eh      8.74 kcal/mol|
|  sn= 2 | S(rot)=       0.01326684 Eh      8.33 kcal/mol|
|  sn= 3 | S(rot)=       0.01288401 Eh      8.08 kcal/mol|
|  sn= 4 | S(rot)=       0.01261238 Eh      7.91 kcal/mol|
|  sn= 5 | S(rot)=       0.01240169 Eh      7.78 kcal/mol|
|  sn= 6 | S(rot)=       0.01222955 Eh      7.67 kcal/mol|
|  sn= 7 | S(rot)=       0.01208400 Eh      7.58 kcal/mol|
|  sn= 8 | S(rot)=       0.01195793 Eh      7.50 kcal/mol|
|  sn= 9 | S(rot)=       0.01184672 Eh      7.43 kcal/mol|
|  sn=10 | S(rot)=       0.01174724 Eh      7.37 kcal/mol|
|  sn=11 | S(rot)=       0.01165725 Eh      7.32 kcal/mol|
|  sn=12 | S(rot)=       0.01157509 Eh      7.26 kcal/mol|
 --------------------------------------------------------


-------------------
GIBBS FREE ENERGY
-------------------

The Gibbs free energy is G = H - T*S

Total enthalpy                    ...   -491.68597301 Eh 
Total entropy correction          ...     -0.04212039 Eh    -26.43 kcal/mol
-----------------------------------------------------------------------
Final Gibbs free energy         ...   -491.72809340 Eh

For completeness - the Gibbs free energy minus the electronic energy
G-E(el)                           ...      0.09916078 Eh     62.22 kcal/mol


Timings for individual modules:

Sum of individual times         ...     3590.214 sec (=  59.837 min)
GTO integral calculation        ...        7.970 sec (=   0.133 min)   0.2 %
SCF iterations                  ...     2181.912 sec (=  36.365 min)  60.8 %
SCF Gradient evaluation         ...      561.120 sec (=   9.352 min)  15.6 %
Geometry relaxation             ...        1.985 sec (=   0.033 min)   0.1 %
Analytical frequency calculation...      837.227 sec (=  13.954 min)  23.3 %
                             ****ORCA TERMINATED NORMALLY****
TOTAL RUN TIME: 0 days 0 hours 59 minutes 58 seconds 94 msec
