
                                 *****************
                                 * O   R   C   A *
                                 *****************

                                            #,                                       
                                            ###                                      
                                            ####                                     
                                            #####                                    
                                            ######                                   
                                           ########,                                 
                                     ,,################,,,,,                         
                               ,,#################################,,                 
                          ,,##########################################,,             
                       ,#########################################, ''#####,          
                    ,#############################################,,   '####,        
                  ,##################################################,,,,####,       
                ,###########''''           ''''###############################       
              ,#####''   ,,,,##########,,,,          '''####'''          '####       
            ,##' ,,,,###########################,,,                        '##       
           ' ,,###''''                  '''############,,,                           
         ,,##''                                '''############,,,,        ,,,,,,###''
      ,#''                                            '''#######################'''  
     '                                                          ''''####''''         
             ,#######,   #######,   ,#######,      ##                                
            ,#'     '#,  ##    ##  ,#'     '#,    #''#        ######   ,####,        
            ##       ##  ##   ,#'  ##            #'  '#       #        #'  '#        
            ##       ##  #######   ##           ,######,      #####,   #    #        
            '#,     ,#'  ##    ##  '#,     ,#' ,#      #,         ##   #,  ,#        
             '#######'   ##     ##  '#######'  #'      '#     #####' # '####'        



                  #######################################################
                  #                        -***-                        #
                  #          Department of theory and spectroscopy      #
                  #    Directorship and core code : Frank Neese         #
                  #        Max Planck Institute fuer Kohlenforschung    #
                  #                Kaiser Wilhelm Platz 1               #
                  #                 D-45470 Muelheim/Ruhr               #
                  #                      Germany                        #
                  #                                                     #
                  #                  All rights reserved                #
                  #                        -***-                        #
                  #######################################################



                         Program Version 5.0.4 -  RELEASE  -

 With contributions from (in alphabetic order):
   Daniel Aravena         : Magnetic Suceptibility
   Michael Atanasov       : Ab Initio Ligand Field Theory (pilot matlab implementation)
   Alexander A. Auer      : GIAO ZORA, VPT2 properties, NMR spectrum
   Ute Becker             : Parallelization
   Giovanni Bistoni       : ED, misc. LED, open-shell LED, HFLD
   Martin Brehm           : Molecular dynamics
   Dmytro Bykov           : SCF Hessian
   Vijay G. Chilkuri      : MRCI spin determinant printing, contributions to CSF-ICE
   Dipayan Datta          : RHF DLPNO-CCSD density
   Achintya Kumar Dutta   : EOM-CC, STEOM-CC
   Dmitry Ganyushin       : Spin-Orbit,Spin-Spin,Magnetic field MRCI
   Miquel Garcia          : C-PCM and meta-GGA Hessian, CC/C-PCM, Gaussian charge scheme
   Yang Guo               : DLPNO-NEVPT2, F12-NEVPT2, CIM, IAO-localization
   Andreas Hansen         : Spin unrestricted coupled pair/coupled cluster methods
   Benjamin Helmich-Paris : MC-RPA, TRAH-SCF, COSX integrals
   Lee Huntington         : MR-EOM, pCC
   Robert Izsak           : Overlap fitted RIJCOSX, COSX-SCS-MP3, EOM
   Marcus Kettner         : VPT2
   Christian Kollmar      : KDIIS, OOCD, Brueckner-CCSD(T), CCSD density, CASPT2, CASPT2-K
   Simone Kossmann        : Meta GGA functionals, TD-DFT gradient, OOMP2, MP2 Hessian
   Martin Krupicka        : Initial AUTO-CI
   Lucas Lang             : DCDCAS
   Marvin Lechner         : AUTO-CI (C++ implementation), FIC-MRCC
   Dagmar Lenk            : GEPOL surface, SMD
   Dimitrios Liakos       : Extrapolation schemes; Compound Job, initial MDCI parallelization
   Dimitrios Manganas     : Further ROCIS development; embedding schemes
   Dimitrios Pantazis     : SARC Basis sets
   Anastasios Papadopoulos: AUTO-CI, single reference methods and gradients
   Taras Petrenko         : DFT Hessian,TD-DFT gradient, ASA, ECA, R-Raman, ABS, FL, XAS/XES, NRVS
   Peter Pinski           : DLPNO-MP2, DLPNO-MP2 Gradient
   Christoph Reimann      : Effective Core Potentials
   Marius Retegan         : Local ZFS, SOC
   Christoph Riplinger    : Optimizer, TS searches, QM/MM, DLPNO-CCSD(T), (RO)-DLPNO pert. Triples
   Tobias Risthaus        : Range-separated hybrids, TD-DFT gradient, RPA, STAB
   Michael Roemelt        : Original ROCIS implementation
   Masaaki Saitow         : Open-shell DLPNO-CCSD energy and density
   Barbara Sandhoefer     : DKH picture change effects
   Avijit Sen             : IP-ROCIS
   Kantharuban Sivalingam : CASSCF convergence, NEVPT2, FIC-MRCI
   Bernardo de Souza      : ESD, SOC TD-DFT
   Georgi Stoychev        : AutoAux, RI-MP2 NMR, DLPNO-MP2 response
   Willem Van den Heuvel  : Paramagnetic NMR
   Boris Wezisla          : Elementary symmetry handling
   Frank Wennmohs         : Technical directorship


 We gratefully acknowledge several colleagues who have allowed us to
 interface, adapt or use parts of their codes:
   Stefan Grimme, W. Hujo, H. Kruse, P. Pracht,  : VdW corrections, initial TS optimization,
                  C. Bannwarth, S. Ehlert          DFT functionals, gCP, sTDA/sTD-DF
   Ed Valeev, F. Pavosevic, A. Kumar             : LibInt (2-el integral package), F12 methods
   Garnet Chan, S. Sharma, J. Yang, R. Olivares  : DMRG
   Ulf Ekstrom                                   : XCFun DFT Library
   Mihaly Kallay                                 : mrcc  (arbitrary order and MRCC methods)
   Jiri Pittner, Ondrej Demel                    : Mk-CCSD
   Frank Weinhold                                : gennbo (NPA and NBO analysis)
   Christopher J. Cramer and Donald G. Truhlar   : smd solvation model
   Lars Goerigk                                  : TD-DFT with DH, B97 family of functionals
   V. Asgeirsson, H. Jonsson                     : NEB implementation
   FAccTs GmbH                                   : IRC, NEB, NEB-TS, DLPNO-Multilevel, CI-OPT
                                                   MM, QMMM, 2- and 3-layer-ONIOM, Crystal-QMMM,
                                                   LR-CPCM, SF, NACMEs, symmetry and pop. for TD-DFT,
                                                   nearIR, NL-DFT gradient (VV10), updates on ESD,
                                                   ML-optimized integration grids
   S Lehtola, MJT Oliveira, MAL Marques          : LibXC Library
   Liviu Ungur et al                             : ANISO software


 Your calculation uses the libint2 library for the computation of 2-el integrals
 For citations please refer to: http://libint.valeyev.net

 Your ORCA version has been built with support for libXC version: 5.1.0
 For citations please refer to: https://tddft.org/programs/libxc/

 This ORCA versions uses:
   CBLAS   interface :  Fast vector & matrix operations
   LAPACKE interface :  Fast linear algebra routines
   Shared memory     :  Shared parallel matrices


Your calculation utilizes the atom-pairwise dispersion correction
based on tight binding partial charges (D4)
Cite in your paper:
E.Caldeweyher, C.Bannwarth, S.Grimme, J.Chem.Phys., (2017), 147, 034112.
E.Caldeweyher, S.Ehlert, A.Hansen, H.Neugebauer, S.Grimme, J.Chem.Phys., (2018), in progress.
   

================================================================================

----- Orbital basis set information -----
Your calculation utilizes the basis: def2-SVP
   F. Weigend and R. Ahlrichs, Phys. Chem. Chem. Phys. 7, 3297 (2005).

----- AuxJ basis set information -----
Your calculation utilizes the auxiliary basis: def2/J
   F. Weigend, Phys. Chem. Chem. Phys. 8, 1057 (2006).

================================================================================
                                        WARNINGS
                       Please study these warnings very carefully!
================================================================================


WARNING: Geometry Optimization
  ===> : Switching off AutoStart
         For restart on a previous wavefunction, please use MOREAD

INFO   : the flag for use of the SHARK integral package has been found!

================================================================================
                                       INPUT FILE
================================================================================
NAME = opt2.inp
|  1> !B3LYP DEF2-SVP OPT FREQ D4 SOSCF
|  2> 
|  3> %geom
|  4> maxIter 1000
|  5> end
|  6> 
|  7> * xyz 1 1
|  8>   C   -2.31926183601002      1.31740881426733     -0.55885534408746
|  9>   C   -3.44802998747400      0.48797910960179     -0.88684395656102
| 10>   C   -3.37573380995345     -0.88491716882564     -0.78972214045566
| 11>   C   -2.18293783201266     -1.50510353288514     -0.36363260235747
| 12>   C   -1.05938705280382     -0.72577239886675     -0.03289016007184
| 13>   C   -1.11371767177654      0.65276284681663     -0.12242531260864
| 14>   H   -4.36793529130609      0.97621531685379     -1.21743601826740
| 15>   H   -4.24605163785123     -1.49307777468352     -1.04494523894387
| 16>   H   -2.12439293761601     -2.59288755109842     -0.28908906318476
| 17>   H   -0.12786431916493     -1.18543531826517      0.29910165612226
| 18>   H   3.18823592144982     -0.37514706619395      9.94807306508531
| 19>   N   -2.41615738292250      2.64012088302028     -0.66416404177235
| 20>   H   -3.28006041093066      3.07418273401658     -0.97703739517686
| 21>   H   -1.58962589691273      3.19892939521118     -0.42414746599544
| 22>   N   0.09763478984950      1.41053290352076      0.24365033327486
| 23>   O   0.05106997157202      2.63701296264453      0.15709769298482
| 24>   O   1.06418538386336      0.78084584486570      0.60911599201553
| 25> **                         ****END OF INPUT****
================================================================================

                       *****************************
                       * Geometry Optimization Run *
                       *****************************

Geometry optimization settings:
Update method            Update   .... BFGS
Choice of coordinates    CoordSys .... Z-matrix Internals
Initial Hessian          InHess   .... Almoef's Model

Convergence Tolerances:
Energy Change            TolE     ....  5.0000e-06 Eh
Max. Gradient            TolMAXG  ....  3.0000e-04 Eh/bohr
RMS Gradient             TolRMSG  ....  1.0000e-04 Eh/bohr
Max. Displacement        TolMAXD  ....  4.0000e-03 bohr
RMS Displacement         TolRMSD  ....  2.0000e-03 bohr
Strict Convergence                ....  False
------------------------------------------------------------------------------
                        ORCA OPTIMIZATION COORDINATE SETUP
------------------------------------------------------------------------------

The optimization will be done in new redundant internal coordinates
Making redundant internal coordinates   ...  (new redundants) done
Evaluating the initial hessian          ...  (Almloef) done
Evaluating the coordinates              ...  done
Calculating the B-matrix                .... done
Calculating the G-matrix                .... done
Diagonalizing the G-matrix              .... done
The first mode is                       ....   52
The number of degrees of freedom        ....   45

    -----------------------------------------------------------------
                    Redundant Internal Coordinates


    -----------------------------------------------------------------
         Definition                    Initial Value    Approx d2E/dq
    -----------------------------------------------------------------
      1. B(C   1,C   0)                  1.4386         0.522585   
      2. B(C   2,C   1)                  1.3782         0.652417   
      3. B(C   3,C   2)                  1.4103         0.579898   
      4. B(C   4,C   3)                  1.4068         0.587380   
      5. B(C   5,C   4)                  1.3825         0.642232   
      6. B(C   5,C   0)                  1.4441         0.512094   
      7. B(H   6,C   1)                  1.0927         0.356607   
      8. B(H   7,C   2)                  1.0920         0.357472   
      9. B(H   8,C   3)                  1.0919         0.357588   
     10. B(H   9,C   4)                  1.0905         0.359407   
     11. B(H  10,H   9)                 10.2350         0.000000   
     12. B(N  11,C   0)                  1.3304         0.696489   
     13. B(H  12,N  11)                  1.0162         0.422990   
     14. B(H  13,N  11)                  1.0262         0.407749   
     15. B(N  14,C   5)                  1.4750         0.409521   
     16. B(N  14,H  10)                 10.3400         0.000000   
     17. B(O  15,N  14)                  1.2304         0.900794   
     18. B(O  16,H  10)                  9.6470         0.000000   
     19. B(O  16,N  14)                  1.2101         0.970655   
     20. A(C   1,C   0,C   5)          117.2926         0.406910   
     21. A(C   1,C   0,N  11)          119.8683         0.427024   
     22. A(C   5,C   0,N  11)          122.8391         0.425476   
     23. A(C   0,C   1,H   6)          118.1595         0.342334   
     24. A(C   2,C   1,H   6)          120.7032         0.355382   
     25. A(C   0,C   1,C   2)          121.1372         0.424822   
     26. A(C   3,C   2,H   7)          119.9857         0.348514   
     27. A(C   1,C   2,C   3)          120.2458         0.432826   
     28. A(C   1,C   2,H   7)          119.7684         0.355528   
     29. A(C   2,C   3,H   8)          120.2696         0.348533   
     30. A(C   2,C   3,C   4)          120.1919         0.424750   
     31. A(C   4,C   3,H   8)          119.5385         0.349287   
     32. A(C   5,C   4,H   9)          118.2669         0.354906   
     33. A(C   3,C   4,H   9)          121.3508         0.349587   
     34. A(C   3,C   4,C   5)          120.3823         0.432600   
     35. A(C   0,C   5,C   4)          120.7497         0.422096   
     36. A(C   4,C   5,N  14)          117.6404         0.403058   
     37. A(C   0,C   5,N  14)          121.6098         0.387367   
     38. A(C   4,H   9,H  10)          122.0316         0.089055   
     39. A(H   9,H  10,O  16)           12.9694         0.089000   
     40. A(H   9,H  10,N  14)           14.5432         0.089000   
     41. A(N  14,H  10,O  16)            5.6929         0.089000   
     42. A(H  12,N  11,H  13)          121.6116         0.299311   
     43. A(C   0,N  11,H  13)          117.6599         0.362165   
     44. A(C   0,N  11,H  12)          120.7277         0.364444   
     45. A(H  10,N  14,O  16)           52.2613         0.089127   
     46. A(H  10,N  14,O  15)          104.4465         0.089124   
     47. A(C   5,N  14,H  10)          112.9347         0.089105   
     48. A(O  15,N  14,O  16)          124.7628         0.490963   
     49. A(C   5,N  14,O  16)          117.6198         0.428125   
     50. A(C   5,N  14,O  15)          117.6173         0.422440   
     51. A(H  10,O  16,N  14)          122.0459         0.089225   
     52. D(C   2,C   1,C   0,N  11)    179.8703         0.018628   
     53. D(H   6,C   1,C   0,N  11)     -0.0646         0.018628   
     54. D(H   6,C   1,C   0,C   5)    179.9222         0.018628   
     55. D(C   2,C   1,C   0,C   5)     -0.1429         0.018628   
     56. D(C   3,C   2,C   1,H   6)    179.9159         0.029652   
     57. D(H   7,C   2,C   1,C   0)   -179.9622         0.029652   
     58. D(C   3,C   2,C   1,C   0)     -0.0174         0.029652   
     59. D(H   7,C   2,C   1,H   6)     -0.0289         0.029652   
     60. D(H   8,C   3,C   2,H   7)      0.1075         0.023103   
     61. D(C   4,C   3,C   2,C   1)      0.0979         0.023103   
     62. D(C   4,C   3,C   2,H   7)   -179.9573         0.023103   
     63. D(H   8,C   3,C   2,C   1)   -179.8372         0.023103   
     64. D(H   9,C   4,C   3,C   2)    179.9701         0.023733   
     65. D(C   5,C   4,C   3,H   8)    179.9265         0.023733   
     66. D(C   5,C   4,C   3,C   2)     -0.0092         0.023733   
     67. D(H   9,C   4,C   3,H   8)     -0.0943         0.023733   
     68. D(N  14,C   5,C   4,H   9)     -0.1963         0.028671   
     69. D(C   0,C   5,C   4,H   9)    179.8618         0.028671   
     70. D(N  14,C   5,C   0,N  11)      0.2777         0.017874   
     71. D(N  14,C   5,C   0,C   1)   -179.7087         0.017874   
     72. D(C   4,C   5,C   0,N  11)   -179.7828         0.017874   
     73. D(N  14,C   5,C   4,C   3)    179.7836         0.028671   
     74. D(C   0,C   5,C   4,C   3)     -0.1583         0.028671   
     75. D(C   4,C   5,C   0,C   1)      0.2308         0.017874   
     76. D(H  10,H   9,C   4,C   5)     69.9215         0.109116   
     77. D(H  10,H   9,C   4,C   3)   -110.0582         0.109116   
     78. D(O  16,H  10,H   9,C   4)    -85.0430         0.001500   
     79. D(N  14,H  10,H   9,C   4)    -61.8492         0.001500   
     80. D(H  13,N  11,C   0,C   1)   -179.8305         0.040103   
     81. D(H  12,N  11,C   0,C   5)    179.8470         0.040103   
     82. D(H  12,N  11,C   0,C   1)     -0.1670         0.040103   
     83. D(H  13,N  11,C   0,C   5)      0.1835         0.040103   
     84. D(O  15,N  14,H  10,O  16)   -123.0355         0.001500   
     85. D(O  15,N  14,H  10,H   9)    173.9572         0.001500   
     86. D(C   5,N  14,H  10,O  16)    108.0030         0.001500   
     87. D(C   5,N  14,H  10,H   9)     44.9958         0.001500   
     88. D(H  10,N  14,C   5,C   4)    -58.5634         0.014307   
     89. D(H  10,N  14,C   5,C   0)    121.3779         0.014307   
     90. D(O  16,N  14,C   5,C   4)     -0.4798         0.014307   
     91. D(O  16,N  14,C   5,C   0)    179.4615         0.014307   
     92. D(O  15,N  14,C   5,C   4)    179.6273         0.014307   
     93. D(O  16,N  14,H  10,H   9)    -63.0073         0.001500   
     94. D(O  15,N  14,C   5,C   0)     -0.4314         0.014307   
     95. D(H  10,O  16,N  14,O  15)     81.1893         0.100931   
     96. D(H  10,O  16,N  14,C   5)    -98.6952         0.100931   
     97. D(N  14,O  16,H  10,H   9)     94.4449         0.001500   
    -----------------------------------------------------------------

Number of atoms                         .... 17
Number of degrees of freedom            .... 97

Time needed for optimization step       :     4.58 sec

         *************************************************************
         *                GEOMETRY OPTIMIZATION CYCLE   1            *
         *************************************************************
---------------------------------
CARTESIAN COORDINATES (ANGSTROEM)
---------------------------------
  C     -2.319262    1.317409   -0.558855
  C     -3.448030    0.487979   -0.886844
  C     -3.375734   -0.884917   -0.789722
  C     -2.182938   -1.505104   -0.363633
  C     -1.059387   -0.725772   -0.032890
  C     -1.113718    0.652763   -0.122425
  H     -4.367935    0.976215   -1.217436
  H     -4.246052   -1.493078   -1.044945
  H     -2.124393   -2.592888   -0.289089
  H     -0.127864   -1.185435    0.299102
  H      3.188236   -0.375147    9.948073
  N     -2.416157    2.640121   -0.664164
  H     -3.280060    3.074183   -0.977037
  H     -1.589626    3.198929   -0.424147
  N      0.097635    1.410533    0.243650
  O      0.051070    2.637013    0.157098
  O      1.064185    0.780846    0.609116

----------------------------
CARTESIAN COORDINATES (A.U.)
----------------------------
  NO LB      ZA    FRAG     MASS         X           Y           Z
   0 C     6.0000    0    12.011   -4.382770    2.489542   -1.056084
   1 C     6.0000    0    12.011   -6.515832    0.922147   -1.675892
   2 C     6.0000    0    12.011   -6.379212   -1.672251   -1.492359
   3 C     6.0000    0    12.011   -4.125155   -2.844233   -0.687166
   4 C     6.0000    0    12.011   -2.001951   -1.371511   -0.062153
   5 C     6.0000    0    12.011   -2.104621    1.233543   -0.231350
   6 H     1.0000    0     1.008   -8.254201    1.844780   -2.300621
   7 H     1.0000    0     1.008   -8.023875   -2.821508   -1.974660
   8 H     1.0000    0     1.008   -4.014521   -4.899847   -0.546299
   9 H     1.0000    0     1.008   -0.241629   -2.240148    0.565220
  10 H     1.0000    0     1.008    6.024893   -0.708925   18.799134
  11 N     7.0000    0    14.007   -4.565876    4.989105   -1.255088
  12 H     1.0000    0     1.008   -6.198416    5.809363   -1.846333
  13 H     1.0000    0     1.008   -3.003958    6.045100   -0.801523
  14 N     7.0000    0    14.007    0.184503    2.665521    0.460432
  15 O     8.0000    0    15.999    0.096508    4.983232    0.296872
  16 O     8.0000    0    15.999    2.011019    1.475585    1.151062

--------------------------------
INTERNAL COORDINATES (ANGSTROEM)
--------------------------------
 C      0   0   0     0.000000000000     0.00000000     0.00000000
 C      1   0   0     1.438627020688     0.00000000     0.00000000
 C      2   1   0     1.378224791450   121.13724082     0.00000000
 C      3   2   1     1.410299849548   120.24584054     0.00000000
 C      4   3   2     1.406809842530   120.19193769     0.09792583
 C      5   4   3     1.382507787786   120.38228025     0.00000000
 H      2   1   3     1.092653409528   118.15948816   180.06509208
 H      3   2   1     1.091994173096   119.76844217   180.03779490
 H      4   3   2     1.091905817446   120.26956716   180.16279526
 H      5   4   3     1.090524263268   121.35078810   179.97012809
 H     10   5   4    10.235025017470   122.03163972   249.94178037
 N      1   2   3     1.330430714334   119.86829442   179.87033536
 H     12   1   2     1.016182989211   120.72767117   359.83304650
 H     12   1   2     1.026172113883   117.65989266   180.16952899
 N      6   5   4     1.474992075787   117.64042644   179.78356485
 O     15   6   5     1.230411710474   117.61734985   179.62732377
 O     15   6   5     1.210078919057   117.61979532   359.52024453

---------------------------
INTERNAL COORDINATES (A.U.)
---------------------------
 C      0   0   0     0.000000000000     0.00000000     0.00000000
 C      1   0   0     2.718611077959     0.00000000     0.00000000
 C      2   1   0     2.604467406821   121.13724082     0.00000000
 C      3   2   1     2.665080482355   120.24584054     0.00000000
 C      4   3   2     2.658485324887   120.19193769     0.09792583
 C      5   4   3     2.612561096929   120.38228025     0.00000000
 H      2   1   3     2.064815703304   118.15948816   180.06509208
 H      3   2   1     2.063569926990   119.76844217   180.03779490
 H      4   3   2     2.063402959008   120.26956716   180.16279526
 H      5   4   3     2.060792199972   121.35078810   179.97012809
 H     10   5   4    19.341394256851   122.03163972   249.94178037
 N      1   2   3     2.514149690249   119.86829442   179.87033536
 H     12   1   2     1.920307551559   120.72767117   359.83304650
 H     12   1   2     1.939184261505   117.65989266   180.16952899
 N      6   5   4     2.787331072941   117.64042644   179.78356485
 O     15   6   5     2.325141164765   117.61734985   179.62732377
 O     15   6   5     2.286717757448   117.61979532   359.52024453

---------------------
BASIS SET INFORMATION
---------------------
There are 4 groups of distinct atoms

 Group   1 Type C   : 7s4p1d contracted to 3s2p1d pattern {511/31/1}
 Group   2 Type H   : 4s1p contracted to 2s1p pattern {31/1}
 Group   3 Type N   : 7s4p1d contracted to 3s2p1d pattern {511/31/1}
 Group   4 Type O   : 7s4p1d contracted to 3s2p1d pattern {511/31/1}

Atom   0C    basis set group =>   1
Atom   1C    basis set group =>   1
Atom   2C    basis set group =>   1
Atom   3C    basis set group =>   1
Atom   4C    basis set group =>   1
Atom   5C    basis set group =>   1
Atom   6H    basis set group =>   2
Atom   7H    basis set group =>   2
Atom   8H    basis set group =>   2
Atom   9H    basis set group =>   2
Atom  10H    basis set group =>   2
Atom  11N    basis set group =>   3
Atom  12H    basis set group =>   2
Atom  13H    basis set group =>   2
Atom  14N    basis set group =>   3
Atom  15O    basis set group =>   4
Atom  16O    basis set group =>   4
---------------------------------
AUXILIARY/J BASIS SET INFORMATION
---------------------------------
There are 4 groups of distinct atoms

 Group   1 Type C   : 12s5p4d2f1g contracted to 6s4p3d1f1g pattern {711111/2111/211/2/1}
 Group   2 Type H   : 5s2p1d contracted to 3s1p1d pattern {311/2/1}
 Group   3 Type N   : 12s5p4d2f1g contracted to 6s4p3d1f1g pattern {711111/2111/211/2/1}
 Group   4 Type O   : 12s5p4d2f1g contracted to 6s4p3d1f1g pattern {711111/2111/211/2/1}

Atom   0C    basis set group =>   1
Atom   1C    basis set group =>   1
Atom   2C    basis set group =>   1
Atom   3C    basis set group =>   1
Atom   4C    basis set group =>   1
Atom   5C    basis set group =>   1
Atom   6H    basis set group =>   2
Atom   7H    basis set group =>   2
Atom   8H    basis set group =>   2
Atom   9H    basis set group =>   2
Atom  10H    basis set group =>   2
Atom  11N    basis set group =>   3
Atom  12H    basis set group =>   2
Atom  13H    basis set group =>   2
Atom  14N    basis set group =>   3
Atom  15O    basis set group =>   4
Atom  16O    basis set group =>   4
------------------------------------------------------------------------------
                           ORCA GTO INTEGRAL CALCULATION
                           -- RI-GTO INTEGRALS CHOSEN --
------------------------------------------------------------------------------
------------------------------------------------------------------------------
                   ___                                                        
                  /   \      - P O W E R E D   B Y -                         
                 /     \                                                     
                 |  |  |   _    _      __       _____    __    __             
                 |  |  |  | |  | |    /  \     |  _  \  |  |  /  |          
                  \  \/   | |  | |   /    \    | | | |  |  | /  /          
                 / \  \   | |__| |  /  /\  \   | |_| |  |  |/  /          
                |  |  |   |  __  | /  /__\  \  |    /   |      \           
                |  |  |   | |  | | |   __   |  |    \   |  |\   \          
                \     /   | |  | | |  |  |  |  | |\  \  |  | \   \       
                 \___/    |_|  |_| |__|  |__|  |_| \__\ |__|  \__/        
                                                                              
                      - O R C A' S   B I G   F R I E N D -                    
                                      &                                       
                       - I N T E G R A L  F E E D E R -                       
                                                                              
 v1 FN, 2020, v2 2021                                                         
------------------------------------------------------------------------------


Reading SHARK input file opt2.SHARKINP.tmp ... ok
----------------------
SHARK INTEGRAL PACKAGE
----------------------

Number of atoms                             ...     17
Number of basis functions                   ...    175
Number of shells                            ...     81
Maximum angular momentum                    ...      2
Integral batch strategy                     ... SHARK/LIBINT Hybrid
RI-J (if used) integral strategy            ... SPLIT-RIJ (Revised 2003 algorithm where possible)
Printlevel                                  ...      1
Contraction scheme used                     ... SEGMENTED contraction
Coulomb Range Separation                    ... NOT USED
Exchange Range Separation                   ... NOT USED
Finite Nucleus Model                        ... NOT USED
Auxiliary Coulomb fitting basis             ... AVAILABLE
   # of basis functions in Aux-J            ...    567
   # of shells in Aux-J                     ...    185
   Maximum angular momentum in Aux-J        ...      4
Auxiliary J/K fitting basis                 ... NOT available
Auxiliary Correlation fitting basis         ... NOT available
Auxiliary 'external' fitting basis          ... NOT available
Integral threshold                          ...     2.500000e-11
Primitive cut-off                           ...     2.500000e-12
Primitive pair pre-selection threshold      ...     2.500000e-12

Calculating pre-screening integrals         ... done (  0.2 sec) Dimension = 81
Organizing shell pair data                  ... done (  0.1 sec)
Shell pair information
Total number of shell pairs                 ...      3321
Shell pairs after pre-screening             ...      2849
Total number of primitive shell pairs       ...     12241
Primitive shell pairs kept                  ...      7593
          la=0 lb=0:    831 shell pairs
          la=1 lb=0:   1017 shell pairs
          la=1 lb=1:    332 shell pairs
          la=2 lb=0:    379 shell pairs
          la=2 lb=1:    240 shell pairs
          la=2 lb=2:     50 shell pairs

Calculating one electron integrals          ... done (  0.1 sec)
Calculating RI/J V-Matrix + Cholesky decomp.... done (  0.0 sec)
Calculating Nuclear repulsion               ... done (  0.0 sec) ENN=    511.507559186804 Eh

SHARK setup successfully completed in   0.9 seconds

Maximum memory used throughout the entire GTOINT-calculation: 24.4 MB
-------------------------------------------------------------------------------
                                 ORCA SCF
-------------------------------------------------------------------------------

------------
SCF SETTINGS
------------
Hamiltonian:
 Density Functional     Method          .... DFT(GTOs)
 Exchange Functional    Exchange        .... B88
   X-Alpha parameter    XAlpha          ....  0.666667
   Becke's b parameter  XBeta           ....  0.004200
 Correlation Functional Correlation     .... LYP
 LDA part of GGA corr.  LDAOpt          .... VWN-5
 Gradients option       PostSCFGGA      .... off
 Hybrid DFT is turned on
   Fraction HF Exchange ScalHFX         ....  0.200000
   Scaling of DF-GGA-X  ScalDFX         ....  0.720000
   Scaling of DF-GGA-C  ScalDFC         ....  0.810000
   Scaling of DF-LDA-C  ScalLDAC        ....  1.000000
   Perturbative correction              ....  0.000000
   Density functional embedding theory  .... OFF
   NL short-range parameter             ....  4.800000
 RI-approximation to the Coulomb term is turned on
   Number of AuxJ basis functions       .... 567
   RIJ-COSX (HFX calculated with COS-X)).... on


General Settings:
 Integral files         IntName         .... opt2
 Hartree-Fock type      HFTyp           .... RHF
 Total Charge           Charge          ....    1
 Multiplicity           Mult            ....    1
 Number of Electrons    NEL             ....   72
 Basis Dimension        Dim             ....  175
 Nuclear Repulsion      ENuc            ....    511.5075591868 Eh

Convergence Acceleration:
 DIIS                   CNVDIIS         .... on
   Start iteration      DIISMaxIt       ....    12
   Startup error        DIISStart       ....  0.200000
   # of expansion vecs  DIISMaxEq       ....     5
   Bias factor          DIISBfac        ....   1.050
   Max. coefficient     DIISMaxC        ....  10.000
 Trust-Rad. Augm. Hess. CNVTRAH         .... auto
   Auto Start mean grad. ratio tolernc. ....  1.125000
   Auto Start start iteration           ....    20
   Auto Start num. interpolation iter.  ....    10
   Max. Number of Micro iterations      ....    16
   Max. Number of Macro iterations      .... Maxiter - #DIIS iter
   Number of Davidson start vectors     ....     2
   Converg. threshold I  (grad. norm)   ....   1.000e-05
   Converg. threshold II (energy diff.) ....   1.000e-08
   Grad. Scal. Fac. for Micro threshold ....   0.100
   Minimum threshold for Micro iter.    ....   0.010
   NR start threshold (gradient norm)   ....   0.001
   Initial trust radius                 ....   0.400
   Minimum AH scaling param. (alpha)    ....   1.000
   Maximum AH scaling param. (alpha)    .... 1000.000
   Orbital update algorithm             .... Taylor
   White noise on init. David. guess    .... on
   Maximum white noise                  ....   0.010
   Quad. conv. algorithm                .... NR
 SOSCF                  CNVSOSCF        .... on
   Start iteration      SOSCFMaxIt      ....   150
   Startup grad/error   SOSCFStart      ....  0.003300
 Level Shifting         CNVShift        .... on
   Level shift para.    LevelShift      ....    0.2500
   Turn off err/grad.   ShiftErr        ....    0.0010
 Zerner damping         CNVZerner       .... off
 Static damping         CNVDamp         .... on
   Fraction old density DampFac         ....    0.7000
   Max. Damping (<1)    DampMax         ....    0.9800
   Min. Damping (>=0)   DampMin         ....    0.0000
   Turn off err/grad.   DampErr         ....    0.1000
 Fernandez-Rico         CNVRico         .... off

SCF Procedure:
 Maximum # iterations   MaxIter         ....   125
 SCF integral mode      SCFMode         .... Direct
   Integral package                     .... SHARK and LIBINT hybrid scheme
 Reset frequency        DirectResetFreq ....    20
 Integral Threshold     Thresh          ....  2.500e-11 Eh
 Primitive CutOff       TCut            ....  2.500e-12 Eh

Convergence Tolerance:
 Convergence Check Mode ConvCheckMode   .... Total+1el-Energy
 Convergence forced     ConvForced      .... 0
 Energy Change          TolE            ....  1.000e-08 Eh
 1-El. energy change                    ....  1.000e-05 Eh
 Orbital Gradient       TolG            ....  1.000e-05
 Orbital Rotation angle TolX            ....  1.000e-05
 DIIS Error             TolErr          ....  5.000e-07


Diagonalization of the overlap matrix:
Smallest eigenvalue                        ... 2.267e-04
Time for diagonalization                   ...    0.013 sec
Threshold for overlap eigenvalues          ... 1.000e-08
Number of eigenvalues below threshold      ... 0
Time for construction of square roots      ...    0.008 sec
Total time needed                          ...    0.022 sec

Time for model grid setup =    0.756 sec

------------------------------
INITIAL GUESS: MODEL POTENTIAL
------------------------------
Loading Hartree-Fock densities                     ... done
Calculating cut-offs                               ... done
Initializing the effective Hamiltonian             ... done
Setting up the integral package (SHARK)            ... done
Starting the Coulomb interaction                   ... done (   0.5 sec)
Reading the grid                                   ... done
Mapping shells                                     ... done
Starting the XC term evaluation                    ... done (   0.7 sec)
  promolecular density results
     # of electrons  =     72.999237461
     EX              =    -62.439969502
     EC              =     -2.508553894
     EX+EC           =    -64.948523396
Transforming the Hamiltonian                       ... done (   0.0 sec)
Diagonalizing the Hamiltonian                      ... done (   0.0 sec)
Back transforming the eigenvectors                 ... done (   0.0 sec)
Now organizing SCF variables                       ... done
                      ------------------
                      INITIAL GUESS DONE (   2.0 sec)
                      ------------------
-------------------
DFT GRID GENERATION
-------------------

General Integration Accuracy     IntAcc      ... 4.388
Radial Grid Type                 RadialGrid  ... OptM3 with GC (2021)
Angular Grid (max. ang.)         AngularGrid ... 4 (Lebedev-302)
Angular grid pruning method      GridPruning ... 4 (adaptive)
Weight generation scheme         WeightScheme... Becke
Basis function cutoff            BFCut       ... 1.0000e-11
Integration weight cutoff        WCut        ... 1.0000e-14
Angular grids for H and He will be reduced by one unit
Partially contracted basis set               ... off
Rotationally invariant grid construction     ... off

Total number of grid points                  ...    82906
Total number of batches                      ...     1303
Average number of points per batch           ...       63
Average number of grid points per atom       ...     4877
Time for grid setup =    2.519 sec

--------------------
COSX GRID GENERATION
--------------------

GRIDX 1
-------
General Integration Accuracy     IntAcc      ... 3.816
Radial Grid Type                 RadialGrid  ... OptM3 with GC (2021)
Angular Grid (max. ang.)         AngularGrid ... 1 (Lebedev-50)
Angular grid pruning method      GridPruning ... 4 (adaptive)
Weight generation scheme         WeightScheme... Becke
Basis function cutoff            BFCut       ... 1.0000e-11
Integration weight cutoff        WCut        ... 1.0000e-14
Angular grids for H and He will be reduced by one unit
Partially contracted basis set               ... on
Rotationally invariant grid construction     ... off

Total number of grid points                  ...    10585
Total number of batches                      ...      172
Average number of points per batch           ...       61
Average number of grid points per atom       ...      623
UseSFitting                                  ... on

GRIDX 2
-------
General Integration Accuracy     IntAcc      ... 4.020
Radial Grid Type                 RadialGrid  ... OptM3 with GC (2021)
Angular Grid (max. ang.)         AngularGrid ... 2 (Lebedev-110)
Angular grid pruning method      GridPruning ... 4 (adaptive)
Weight generation scheme         WeightScheme... Becke
Basis function cutoff            BFCut       ... 1.0000e-11
Integration weight cutoff        WCut        ... 1.0000e-14
Angular grids for H and He will be reduced by one unit
Partially contracted basis set               ... on
Rotationally invariant grid construction     ... off

Total number of grid points                  ...    23432
Total number of batches                      ...      374
Average number of points per batch           ...       62
Average number of grid points per atom       ...     1378
UseSFitting                                  ... on

GRIDX 3
-------
General Integration Accuracy     IntAcc      ... 4.338
Radial Grid Type                 RadialGrid  ... OptM3 with GC (2021)
Angular Grid (max. ang.)         AngularGrid ... 3 (Lebedev-194)
Angular grid pruning method      GridPruning ... 4 (adaptive)
Weight generation scheme         WeightScheme... Becke
Basis function cutoff            BFCut       ... 1.0000e-11
Integration weight cutoff        WCut        ... 1.0000e-14
Angular grids for H and He will be reduced by one unit
Partially contracted basis set               ... on
Rotationally invariant grid construction     ... off

Total number of grid points                  ...    51558
Total number of batches                      ...      813
Average number of points per batch           ...       63
Average number of grid points per atom       ...     3033
UseSFitting                                  ... on

Time for X-Grid setup             =    3.871 sec

--------------
SCF ITERATIONS
--------------
ITER       Energy         Delta-E        Max-DP      RMS-DP      [F,P]     Damp
               ***  Starting incremental Fock matrix formation  ***
  0   -491.1957691981   0.000000000000 0.20729141  0.00382261  0.2435679 0.7000
  1   -491.4943965746  -0.298627376526 0.15060874  0.00242740  0.0770501 0.7000
                               ***Turning on DIIS***
  2   -491.5125033962  -0.018106821576 0.37994836  0.00511756  0.0360764 0.0000
  3   -491.1551098815   0.357393514676 0.01685552  0.00027924  0.2005504 0.7000
  4   -491.1651046546  -0.009994773150 0.02207172  0.00032270  0.1927220 0.7000
  5   -491.1753126105  -0.010207955864 0.20106897  0.00247654  0.1825568 0.7000
  6   -491.5104512557  -0.335138645247 0.46916094  0.00578979  0.0474248 0.0000
  7   -491.4447531717   0.065698084027 0.02358308  0.00077682  0.0843239 0.0000
  8   -491.4486772624  -0.003924090681 0.00968481  0.00026502  0.0785562 0.0000
  9   -491.4518384803  -0.003161217936 0.00188063  0.00008551  0.0723684 0.0000
 10   -491.4530643049  -0.001225824604 0.00168818  0.00004264  0.0708167 0.0000
 11   -491.4535100386  -0.000445733626 0.69097138  0.00876623  0.0701780 0.0000
 12   -491.0036532065   0.449856832100 0.04663384  0.00053836  0.2628222 0.7000
 13   -491.0396966003  -0.036043393858 0.04726198  0.00055114  0.2409678 0.7000
 14   -491.0730805155  -0.033383915202 0.03934719  0.00045877  0.2185645 0.7000
 15   -491.0989415899  -0.025861074383 0.03143356  0.00036780  0.2000390 0.7000
 16   -491.1185000871  -0.019558497220 0.19973553  0.00269959  0.1853219 0.7000
 17   -491.4977800195  -0.379279932369 0.46604956  0.00592759  0.0492966 0.0000
 18   -491.4271926282   0.070587391278 0.01764019  0.00066666  0.0954461 0.0000
 19   -491.4482087608  -0.021016132625 0.00673021  0.00033769  0.0748924 0.0000
               *** Restarting incremental Fock matrix formation ***
                                   *** Resetting DIIS ***

 WARNING: the maximum gradient error descreased on average only by a factor   1.1
          during the last 20 iterations

                      *** Initiating the TRAH-SCF procedure ***


TRAH GRIDX
----------

General Integration Accuracy     IntAcc      ... 3.067
Radial Grid Type                 RadialGrid  ... OptM3 with GC (2021)
Angular Grid (max. ang.)         AngularGrid ... 1 (Lebedev-50)
Angular grid pruning method      GridPruning ... 4 (adaptive)
Weight generation scheme         WeightScheme... Becke
Basis function cutoff            BFCut       ... 1.0000e-11
Integration weight cutoff        WCut        ... 1.0000e-14
Angular grids for H and He will be reduced by one unit
Partially contracted basis set               ... on
Rotationally invariant grid construction     ... off

Total number of grid points                  ...     5618
Total number of batches                      ...       99
Average number of points per batch           ...       56
Average number of grid points per atom       ...      330


TRAH GRID
---------

General Integration Accuracy     IntAcc      ... 3.467
Radial Grid Type                 RadialGrid  ... OptM3 with GC (2021)
Angular Grid (max. ang.)         AngularGrid ... 1 (Lebedev-50)
Angular grid pruning method      GridPruning ... 4 (adaptive)
Weight generation scheme         WeightScheme... Becke
Basis function cutoff            BFCut       ... 1.0000e-11
Integration weight cutoff        WCut        ... 1.0000e-14
Angular grids for H and He will be reduced by one unit
Partially contracted basis set               ... off
Rotationally invariant grid construction     ... off

Total number of grid points                  ...    12317
Total number of batches                      ...      201
Average number of points per batch           ...       61
Average number of grid points per atom       ...      725

 --------------------------------------------------------------------------------------------
   Iter.        energy            ||Error||_2        Shift      TRadius  Mac/Mic        Rej.
 --------------------------------------------------------------------------------------------
WARNING: 12 diagonal Hessian elements are negative!
    0       -491.456929087327     6.262993e-01                     0.400 (TRAH MAcro)   No
WARNING : negative HOMO - LUMO gap : -0.297706
    0     dE    -2.445627e-02     3.697229e-01    -4.8620e-02      0.078 (TRAH MIcro)
    0     dE    -3.262127e-02     1.255752e-01    -6.3820e-02      0.149 (TRAH MIcro)
    0     dE    -3.383237e-02     3.521160e-02    -6.5869e-02      0.165 (TRAH MIcro)
    0     dE    -3.399671e-02     2.962202e-02    -6.6048e-02      0.172 (TRAH MIcro)
    0     dE    -3.599356e-02     5.283429e-01    -6.7030e-02      0.272 (TRAH MIcro)
    0     dE    -3.226186e-02     7.337473e-02    -1.2049e+00      0.109 (TRAH MIcro)
    0     dE    -3.413694e-02     2.244630e-02    -1.2146e+00      0.121 (TRAH MIcro)
    0     dE    -3.524535e-02     1.105784e-02    -1.2157e+00      0.128 (TRAH MIcro)
    0     dE    -4.478304e-02     2.941343e-02    -1.2168e+00      0.179 (TRAH MIcro)
    0     dE    -2.656943e-02     3.874752e-02    -3.0571e+00      0.067 (TRAH MIcro)
    0     dE    -2.656246e-02     8.735653e-03    -3.0614e+00      0.067 (TRAH MIcro)
WARNING: 12 diagonal Hessian elements are negative!
    1       -491.483422439057     2.015903e-01                     0.480 (TRAH MAcro)   No
WARNING : negative HOMO - LUMO gap : -0.289996
    1     dE    -3.395951e-03     1.029329e-01    -6.7842e-03      0.034 (TRAH MIcro)
    1     dE    -5.461518e-03     6.399018e-02    -1.0846e-02      0.084 (TRAH MIcro)
    1     dE    -5.802395e-03     2.012329e-02    -1.1501e-02      0.095 (TRAH MIcro)
    1     dE    -5.836395e-03     1.121207e-02    -1.1563e-02      0.098 (TRAH MIcro)
    1     dE    -5.847265e-03     1.092628e-02    -1.1581e-02      0.099 (TRAH MIcro)
    1     dE    -6.722864e-03     3.817470e-01    -2.4275e-01      0.117 (TRAH MIcro)
    1     dE    -4.221428e-03     3.059173e-02    -1.7252e+00      0.036 (TRAH MIcro)
    1     dE    -4.275262e-03     8.835944e-03    -1.7494e+00      0.036 (TRAH MIcro)
WARNING: 12 diagonal Hessian elements are negative!
    2       -491.487681863096     6.146467e-02                     0.576 (TRAH MAcro)   No
WARNING : negative HOMO - LUMO gap : -0.275816
    2     dE    -5.406339e-04     6.268199e-02    -1.0809e-03      0.018 (TRAH MIcro)
    2     dE    -1.193385e-03     3.385653e-02    -2.3803e-03      0.052 (TRAH MIcro)
    2     dE    -1.289293e-03     1.297709e-02    -2.5698e-03      0.058 (TRAH MIcro)
    2     dE    -1.301660e-03     7.380981e-03    -2.5940e-03      0.060 (TRAH MIcro)
    2     dE    -1.306076e-03     8.913981e-03    -2.6026e-03      0.061 (TRAH MIcro)
    2     dE    -8.402189e-04     1.579696e-02    -1.1743e+00      0.022 (TRAH MIcro)
    2     dE    -8.450159e-04     4.472620e-03    -1.1875e+00      0.021 (TRAH MIcro)
WARNING: 12 diagonal Hessian elements are negative!
    3       -491.488523366047     2.535057e-02                     0.691 (TRAH MAcro)   No
WARNING : negative HOMO - LUMO gap : -0.276939
    3     dE    -1.562007e-04     8.563323e-02    -3.1235e-04      0.012 (TRAH MIcro)
    3     dE    -4.153973e-04     5.259442e-02    -8.2964e-04      0.037 (TRAH MIcro)
    3     dE    -5.241368e-02     2.585226e+00    -2.0590e-01      0.691 (TRAH MIcro)
    3     dE    -1.053242e-01     2.919391e-01    -1.1196e+00      0.433 (TRAH MIcro)
    3     dE    -1.683800e-01     9.545302e-02    -1.1671e+00      0.536 (TRAH MIcro)
    3     dE    -1.699022e-01     3.119824e-02    -1.1704e+00      0.538 (TRAH MIcro)
    3     dE    -1.673979e-01     7.348061e-03    -1.1707e+00      0.534 (TRAH MIcro)
    3     dE    -1.668920e-01     2.128423e-03    -1.1707e+00      0.533 (TRAH MIcro)
WARNING: 5 diagonal Hessian elements are negative!
    4       -491.614045256389     3.594150e-01                     0.829 (TRAH MAcro)   No
WARNING : negative HOMO - LUMO gap : -0.038892
    4     dE    -1.385458e-02     5.301619e-01    -2.7521e-02      0.083 (TRAH MIcro)
    4     dE    -2.347550e-02     1.325360e-01    -4.5732e-02      0.163 (TRAH MIcro)
    4     dE    -2.455402e-02     5.804067e-02    -4.7673e-02      0.173 (TRAH MIcro)
    4     dE    -2.484751e-02     2.111694e-02    -4.8202e-02      0.176 (TRAH MIcro)
    4     dE    -2.492506e-02     2.276884e-02    -4.8316e-02      0.178 (TRAH MIcro)
    4     dE    -2.521235e-02     4.709237e-02    -4.8650e-02      0.191 (TRAH MIcro)
    4     dE    -2.965054e-02     2.109739e-01    -5.0946e-02      0.405 (TRAH MIcro)
    4     dE    -5.557490e-02     1.460992e-01    -8.4888e-02      0.829 (TRAH MIcro)
    4     dE    -5.726001e-02     5.965843e-02    -9.0095e-02      0.829 (TRAH MIcro)
    4     dE    -5.780556e-02     4.506663e-02    -9.1767e-02      0.829 (TRAH MIcro)
    4     dE    -3.124205e-02     3.098176e-02    -1.0734e-01      0.361 (TRAH MIcro)
    4     dE    -6.444147e-02     2.272157e-01    -1.1460e-01      0.829 (TRAH MIcro)
    4     dE    -2.532126e-02     7.602660e-03    -1.7553e-01      0.180 (TRAH MIcro)
    5       -491.635920025600     5.548097e-02                     0.995 (TRAH MAcro)   No
WARNING : small    HOMO - LUMO gap : 0.012609
    5     dE    -3.062902e-04     6.330657e-02    -6.1250e-04      0.011 (TRAH MIcro)
    5     dE    -3.874887e-04     3.627943e-02    -7.7478e-04      0.016 (TRAH MIcro)
    5     dE    -7.280703e-04     2.589241e-02    -1.4530e-03      0.046 (TRAH MIcro)
    5     dE    -7.904028e-04     6.907282e-03    -1.5762e-03      0.054 (TRAH MIcro)
    5     dE    -7.934278e-04     3.096305e-03    -1.5821e-03      0.055 (TRAH MIcro)
    6       -491.636767358384     6.867741e-03                     1.194 (TRAH MAcro)   No
WARNING : small    HOMO - LUMO gap : 0.009383
    6     dE    -3.093703e-06     1.113377e-02    -6.1874e-06      0.001 (TRAH MIcro)
    6     dE    -4.872976e-06     7.198726e-03    -9.7459e-06      0.002 (TRAH MIcro)
    6     dE    -1.345014e-05     5.607886e-03    -2.6899e-05      0.007 (TRAH MIcro)
    6     dE    -1.568780e-05     2.340235e-03    -3.1373e-05      0.009 (TRAH MIcro)
    6     dE    -1.595029e-05     6.327172e-04    -3.1898e-05      0.009 (TRAH MIcro)
    7       -491.636783573519     6.221448e-04                           (NR   MAcro)
WARNING : small    HOMO - LUMO gap : 0.008936
    7     dE    -5.028751e-09     5.799170e-04                           (NR   MIcro)
    7     dE    -2.559832e-08     2.982491e-04                           (NR   MIcro)
    7     dE    -3.267045e-08     1.706016e-04                           (NR   MIcro)
    7     dE    -3.498923e-08     5.868549e-05                           (NR   MIcro)
    7     dE    -3.520568e-08     2.872195e-05                           (NR   MIcro)
    7     dE    -3.523479e-08     1.041310e-05                           (NR   MIcro)
    7     dE    -3.523831e-08     2.810235e-06                           (NR   MIcro)
    8       -491.636783607730     2.824725e-06                           (NR   MAcro)
WARNING : small    HOMO - LUMO gap : 0.008922
    8     dE    -5.193957e-14     2.654353e-06                           (NR   MIcro)
    8     dE    -3.313867e-13     1.240150e-06                           (NR   MIcro)
    8     dE    -4.102801e-13     4.246388e-07                           (NR   MIcro)
    9       -491.636783607730     4.246385e-07                           (NR   MAcro)
WARNING : small    HOMO - LUMO gap : 0.008922

               *****************************************************
               *                     SUCCESS                       *
               *           SCF CONVERGED AFTER  97 CYCLES          *
               *****************************************************

Old exchange energy                            =    -12.500868931 Eh
New exchange energy                            =    -12.500865574 Eh
Exchange energy change after final integration =      0.000003357 Eh
Total energy after final integration           =   -491.636780251 Eh
Final COS-X integration done in                =    37.319 sec

----------------
TOTAL SCF ENERGY
----------------

Total Energy       :         -491.63678025 Eh          -13378.11692 eV

Components:
Nuclear Repulsion  :          511.50755919 Eh           13918.82831 eV
Electronic Energy  :        -1003.14433944 Eh          -27296.94523 eV
One Electron Energy:        -1670.80937224 Eh          -45465.03442 eV
Two Electron Energy:          667.66503281 Eh           18168.08919 eV
Max COSX asymmetry :            0.00000180 Eh               0.00005 eV

Virial components:
Potential Energy   :         -979.09789039 Eh          -26642.60808 eV
Kinetic Energy     :          487.46111014 Eh           13264.49116 eV
Virial Ratio       :            2.00856616


DFT components:
N(Alpha)           :       35.999928777317 electrons
N(Beta)            :       35.999928777317 electrons
N(Total)           :       71.999857554634 electrons
E(X)               :      -49.903986357841 Eh       
E(C)               :       -2.921155734953 Eh       
E(XC)              :      -52.825142092793 Eh       
DFET-embed. en.    :        0.000000000000 Eh       

---------------
SCF CONVERGENCE
---------------

  Last Energy change         ...    2.2737e-13  Tolerance :   1.0000e-08
  Last Orbital Gradient      ...    4.2464e-07  Tolerance :   1.0000e-05
  Last Orbital Rotation      ...    5.9762e-07

             **** THE GBW FILE WAS UPDATED (opt2.gbw) ****
             **** DENSITY opt2.scfp WAS UPDATED ****
             **** ENERGY FILE WAS UPDATED (opt2.en.tmp) ****
             **** THE GBW FILE WAS UPDATED (opt2.gbw) ****
             **** DENSITY opt2.scfp WAS UPDATED ****
----------------
ORBITAL ENERGIES
----------------

  NO   OCC          E(Eh)            E(eV) 
   0   2.0000     -19.303433      -525.2731 
   1   2.0000     -19.303049      -525.2627 
   2   2.0000     -14.703428      -400.1006 
   3   2.0000     -14.548477      -395.8842 
   4   2.0000     -10.442473      -284.1541 
   5   2.0000     -10.410114      -283.2736 
   6   2.0000     -10.377577      -282.3882 
   7   2.0000     -10.377110      -282.3755 
   8   2.0000     -10.373857      -282.2870 
   9   2.0000     -10.369223      -282.1609 
  10   2.0000      -1.365452       -37.1558 
  11   2.0000      -1.192844       -32.4589 
  12   2.0000      -1.121721       -30.5236 
  13   2.0000      -1.024451       -27.8767 
  14   2.0000      -0.956514       -26.0281 
  15   2.0000      -0.906681       -24.6720 
  16   2.0000      -0.846211       -23.0266 
  17   2.0000      -0.795166       -21.6376 
  18   2.0000      -0.768404       -20.9093 
  19   2.0000      -0.720002       -19.5923 
  20   2.0000      -0.692163       -18.8347 
  21   2.0000      -0.685328       -18.6487 
  22   2.0000      -0.683047       -18.5866 
  23   2.0000      -0.653741       -17.7892 
  24   2.0000      -0.636536       -17.3210 
  25   2.0000      -0.610013       -16.5993 
  26   2.0000      -0.605828       -16.4854 
  27   2.0000      -0.578443       -15.7402 
  28   2.0000      -0.550272       -14.9737 
  29   2.0000      -0.531998       -14.4764 
  30   2.0000      -0.502570       -13.6756 
  31   2.0000      -0.451182       -12.2773 
  32   2.0000      -0.450327       -12.2540 
  33   2.0000      -0.441418       -12.0116 
  34   2.0000      -0.437165       -11.8959 
  35   2.0000      -0.375744       -10.2245 
  36   0.0000      -0.366822        -9.9817 
  37   0.0000      -0.228052        -6.2056 
  38   0.0000      -0.174895        -4.7591 
  39   0.0000      -0.150869        -4.1053 
  40   0.0000      -0.088210        -2.4003 
  41   0.0000      -0.073211        -1.9922 
  42   0.0000      -0.033947        -0.9238 
  43   0.0000      -0.017490        -0.4759 
  44   0.0000      -0.016857        -0.4587 
  45   0.0000      -0.003825        -0.1041 
  46   0.0000       0.025271         0.6877 
  47   0.0000       0.026152         0.7116 
  48   0.0000       0.079757         2.1703 
  49   0.0000       0.105472         2.8700 
  50   0.0000       0.114172         3.1068 
  51   0.0000       0.141277         3.8444 
  52   0.0000       0.146396         3.9836 
  53   0.0000       0.150521         4.0959 
  54   0.0000       0.192982         5.2513 
  55   0.0000       0.229844         6.2544 
  56   0.0000       0.235075         6.3967 
  57   0.0000       0.246179         6.6989 
  58   0.0000       0.287214         7.8155 
  59   0.0000       0.293558         7.9881 
  60   0.0000       0.311898         8.4872 
  61   0.0000       0.312243         8.4966 
  62   0.0000       0.314815         8.5665 
  63   0.0000       0.341030         9.2799 
  64   0.0000       0.347006         9.4425 
  65   0.0000       0.361620         9.8402 
  66   0.0000       0.368220        10.0198 
  67   0.0000       0.372130        10.1262 
  68   0.0000       0.398347        10.8396 
  69   0.0000       0.432312        11.7638 
  70   0.0000       0.442307        12.0358 
  71   0.0000       0.471705        12.8357 
  72   0.0000       0.489178        13.3112 
  73   0.0000       0.511407        13.9161 
  74   0.0000       0.522164        14.2088 
  75   0.0000       0.533647        14.5213 
  76   0.0000       0.544501        14.8166 
  77   0.0000       0.555448        15.1145 
  78   0.0000       0.561893        15.2899 
  79   0.0000       0.584875        15.9153 
  80   0.0000       0.590829        16.0773 
  81   0.0000       0.620118        16.8743 
  82   0.0000       0.629146        17.1199 
  83   0.0000       0.659493        17.9457 
  84   0.0000       0.672774        18.3071 
  85   0.0000       0.696168        18.9437 
  86   0.0000       0.742728        20.2107 
  87   0.0000       0.787963        21.4416 
  88   0.0000       0.815751        22.1977 
  89   0.0000       0.830593        22.6016 
  90   0.0000       0.856274        23.3004 
  91   0.0000       0.870558        23.6891 
  92   0.0000       0.877783        23.8857 
  93   0.0000       0.935613        25.4593 
  94   0.0000       0.963780        26.2258 
  95   0.0000       1.017552        27.6890 
  96   0.0000       1.034053        28.1380 
  97   0.0000       1.052667        28.6445 
  98   0.0000       1.057944        28.7881 
  99   0.0000       1.081777        29.4366 
 100   0.0000       1.087467        29.5915 
 101   0.0000       1.104419        30.0528 
 102   0.0000       1.125384        30.6233 
 103   0.0000       1.160628        31.5823 
 104   0.0000       1.164436        31.6859 
 105   0.0000       1.193097        32.4658 
 106   0.0000       1.234139        33.5826 
 107   0.0000       1.234188        33.5840 
 108   0.0000       1.234192        33.5841 
 109   0.0000       1.248035        33.9607 
 110   0.0000       1.279668        34.8215 
 111   0.0000       1.315442        35.7950 
 112   0.0000       1.346503        36.6402 
 113   0.0000       1.414307        38.4852 
 114   0.0000       1.486036        40.4371 
 115   0.0000       1.517907        41.3043 
 116   0.0000       1.525521        41.5115 
 117   0.0000       1.551511        42.2188 
 118   0.0000       1.567474        42.6531 
 119   0.0000       1.567830        42.6628 
 120   0.0000       1.589250        43.2457 
 121   0.0000       1.600504        43.5519 
 122   0.0000       1.613982        43.9187 
 123   0.0000       1.633234        44.4426 
 124   0.0000       1.638633        44.5895 
 125   0.0000       1.646055        44.7914 
 126   0.0000       1.689821        45.9824 
 127   0.0000       1.706359        46.4324 
 128   0.0000       1.736242        47.2456 
 129   0.0000       1.785491        48.5857 
 130   0.0000       1.812956        49.3330 
 131   0.0000       1.837965        50.0136 
 132   0.0000       1.861762        50.6611 
 133   0.0000       1.902544        51.7709 
 134   0.0000       1.949961        53.0611 
 135   0.0000       1.958953        53.3058 
 136   0.0000       1.977157        53.8012 
 137   0.0000       2.021953        55.0201 
 138   0.0000       2.024682        55.0944 
 139   0.0000       2.048095        55.7315 
 140   0.0000       2.117809        57.6285 
 141   0.0000       2.128520        57.9200 
 142   0.0000       2.153573        58.6017 
 143   0.0000       2.174975        59.1841 
 144   0.0000       2.192715        59.6668 
 145   0.0000       2.233631        60.7802 
 146   0.0000       2.261448        61.5371 
 147   0.0000       2.300605        62.6027 
 148   0.0000       2.366939        64.4077 
 149   0.0000       2.382147        64.8215 
 150   0.0000       2.427760        66.0627 
 151   0.0000       2.462564        67.0098 
 152   0.0000       2.477684        67.4212 
 153   0.0000       2.492838        67.8336 
 154   0.0000       2.506986        68.2186 
 155   0.0000       2.537369        69.0453 
 156   0.0000       2.556639        69.5697 
 157   0.0000       2.565119        69.8004 
 158   0.0000       2.572057        69.9892 
 159   0.0000       2.602696        70.8229 
 160   0.0000       2.626761        71.4778 
 161   0.0000       2.693158        73.2846 
 162   0.0000       2.765614        75.2562 
 163   0.0000       2.882252        78.4301 
 164   0.0000       2.892088        78.6977 
 165   0.0000       2.908152        79.1348 
 166   0.0000       2.948086        80.2215 
 167   0.0000       3.070004        83.5391 
 168   0.0000       3.103877        84.4608 
 169   0.0000       3.149099        85.6913 
 170   0.0000       3.254374        88.5560 
 171   0.0000       3.372159        91.7611 
 172   0.0000       3.426780        93.2474 
 173   0.0000       3.635049        98.9147 
 174   0.0000       3.645870        99.2092 

                    ********************************
                    * MULLIKEN POPULATION ANALYSIS *
                    ********************************

-----------------------
MULLIKEN ATOMIC CHARGES
-----------------------
   0 C :   -0.035214
   1 C :    0.013890
   2 C :    0.066076
   3 C :    0.072961
   4 C :   -0.009781
   5 C :    0.182620
   6 H :    0.025970
   7 H :    0.053600
   8 H :    0.060239
   9 H :    0.054215
  10 H :    0.245101
  11 N :    0.100221
  12 H :    0.165008
  13 H :    0.180965
  14 N :    0.255724
  15 O :   -0.253643
  16 O :   -0.177953
Sum of atomic charges:    1.0000000

--------------------------------
MULLIKEN REDUCED ORBITAL CHARGES
--------------------------------
  0 C s       :     3.029039  s :     3.029039
      pz      :     0.908318  p :     2.944089
      px      :     1.099725
      py      :     0.936045
      dz2     :     0.005744  d :     0.062087
      dxz     :     0.006410
      dyz     :     0.015263
      dx2y2   :     0.017815
      dxy     :     0.016855
  1 C s       :     3.263733  s :     3.263733
      pz      :     0.951569  p :     2.690327
      px      :     0.860916
      py      :     0.877842
      dz2     :     0.002673  d :     0.032049
      dxz     :     0.002908
      dyz     :     0.005848
      dx2y2   :     0.008291
      dxy     :     0.012329
  2 C s       :     3.175193  s :     3.175193
      pz      :     0.907046  p :     2.723766
      px      :     0.890693
      py      :     0.926027
      dz2     :     0.002959  d :     0.034965
      dxz     :     0.003777
      dyz     :     0.006002
      dx2y2   :     0.010828
      dxy     :     0.011399
  3 C s       :     3.184237  s :     3.184237
      pz      :     0.881369  p :     2.708478
      px      :     0.930278
      py      :     0.896831
      dz2     :     0.003242  d :     0.034324
      dxz     :     0.005484
      dyz     :     0.003498
      dx2y2   :     0.011599
      dxy     :     0.010502
  4 C s       :     3.313191  s :     3.313191
      pz      :     0.871626  p :     2.662293
      px      :     0.809160
      py      :     0.981507
      dz2     :     0.002919  d :     0.034296
      dxz     :     0.003803
      dyz     :     0.006656
      dx2y2   :     0.012016
      dxy     :     0.008903
  5 C s       :     3.016278  s :     3.016278
      pz      :     1.064743  p :     2.756136
      px      :     0.895780
      py      :     0.795613
      dz2     :     0.004255  d :     0.044966
      dxz     :     0.005410
      dyz     :     0.007033
      dx2y2   :     0.011130
      dxy     :     0.017137
  6 H s       :     0.950757  s :     0.950757
      pz      :     0.005481  p :     0.023273
      px      :     0.012529
      py      :     0.005263
  7 H s       :     0.923341  s :     0.923341
      pz      :     0.004446  p :     0.023059
      px      :     0.011369
      py      :     0.007244
  8 H s       :     0.916703  s :     0.916703
      pz      :     0.003803  p :     0.023058
      px      :     0.003121
      py      :     0.016134
  9 H s       :     0.921631  s :     0.921631
      pz      :     0.004881  p :     0.024154
      px      :     0.013728
      py      :     0.005545
 10 H s       :     0.754898  s :     0.754898
      pz      :     0.000000  p :     0.000000
      px      :     0.000000
      py      :     0.000000
 11 N s       :     3.282740  s :     3.282740
      pz      :     1.432733  p :     3.600852
      px      :     1.087273
      py      :     1.080846
      dz2     :     0.001294  d :     0.016187
      dxz     :     0.000797
      dyz     :     0.003501
      dx2y2   :     0.005344
      dxy     :     0.005250
 12 H s       :     0.790538  s :     0.790538
      pz      :     0.011661  p :     0.044454
      px      :     0.021387
      py      :     0.011406
 13 H s       :     0.768192  s :     0.768192
      pz      :     0.010869  p :     0.050842
      px      :     0.026832
      py      :     0.013141
 14 N s       :     3.287485  s :     3.287485
      pz      :     1.176065  p :     3.340067
      px      :     1.114400
      py      :     1.049602
      dz2     :     0.008318  d :     0.116723
      dxz     :     0.011562
      dyz     :     0.023884
      dx2y2   :     0.034943
      dxy     :     0.038017
 15 O s       :     3.864350  s :     3.864350
      pz      :     1.490818  p :     4.367911
      px      :     1.788891
      py      :     1.088202
      dz2     :     0.002629  d :     0.021382
      dxz     :     0.000125
      dyz     :     0.006145
      dx2y2   :     0.008201
      dxy     :     0.004281
 16 O s       :     3.867165  s :     3.867165
      pz      :     1.358847  p :     4.287144
      px      :     1.308970
      py      :     1.619326
      dz2     :     0.003301  d :     0.023645
      dxz     :     0.005610
      dyz     :     0.002533
      dx2y2   :     0.004959
      dxy     :     0.007243


                     *******************************
                     * LOEWDIN POPULATION ANALYSIS *
                     *******************************

----------------------
LOEWDIN ATOMIC CHARGES
----------------------
   0 C :    0.074809
   1 C :    0.015081
   2 C :    0.031258
   3 C :    0.065176
   4 C :    0.041962
   5 C :   -0.020553
   6 H :    0.053649
   7 H :    0.060687
   8 H :    0.060095
   9 H :    0.063801
  10 H :    0.245101
  11 N :    0.155869
  12 H :    0.112571
  13 H :    0.091197
  14 N :    0.282851
  15 O :   -0.192837
  16 O :   -0.140717

-------------------------------
LOEWDIN REDUCED ORBITAL CHARGES
-------------------------------
  0 C s       :     2.841470  s :     2.841470
      pz      :     0.894018  p :     2.937062
      px      :     1.057539
      py      :     0.985505
      dz2     :     0.012344  d :     0.146659
      dxz     :     0.013867
      dyz     :     0.031592
      dx2y2   :     0.046194
      dxy     :     0.042662
  1 C s       :     2.869113  s :     2.869113
      pz      :     0.954762  p :     3.031496
      px      :     1.014369
      py      :     1.062364
      dz2     :     0.006173  d :     0.084310
      dxz     :     0.006085
      dyz     :     0.012688
      dx2y2   :     0.024835
      dxy     :     0.034530
  2 C s       :     2.864359  s :     2.864359
      pz      :     0.913280  p :     3.014327
      px      :     1.039387
      py      :     1.061660
      dz2     :     0.006879  d :     0.090057
      dxz     :     0.008118
      dyz     :     0.013209
      dx2y2   :     0.030329
      dxy     :     0.031522
  3 C s       :     2.873866  s :     2.873866
      pz      :     0.879103  p :     2.974067
      px      :     1.037729
      py      :     1.057235
      dz2     :     0.007078  d :     0.086891
      dxz     :     0.012812
      dyz     :     0.006822
      dx2y2   :     0.031416
      dxy     :     0.028763
  4 C s       :     2.868151  s :     2.868151
      pz      :     0.897241  p :     3.000772
      px      :     1.050640
      py      :     1.052891
      dz2     :     0.006780  d :     0.089115
      dxz     :     0.007800
      dyz     :     0.014892
      dx2y2   :     0.033329
      dxy     :     0.026313
  5 C s       :     2.868582  s :     2.868582
      pz      :     1.048095  p :     3.036835
      px      :     0.946938
      py      :     1.041802
      dz2     :     0.009697  d :     0.115136
      dxz     :     0.012242
      dyz     :     0.015132
      dx2y2   :     0.033053
      dxy     :     0.045013
  6 H s       :     0.876661  s :     0.876661
      pz      :     0.016884  p :     0.069691
      px      :     0.036799
      py      :     0.016008
  7 H s       :     0.871264  s :     0.871264
      pz      :     0.013608  p :     0.068049
      px      :     0.033386
      py      :     0.021055
  8 H s       :     0.870649  s :     0.870649
      pz      :     0.012114  p :     0.069256
      px      :     0.010392
      py      :     0.046750
  9 H s       :     0.862566  s :     0.862566
      pz      :     0.015158  p :     0.073633
      px      :     0.041434
      py      :     0.017041
 10 H s       :     0.754898  s :     0.754898
      pz      :     0.000000  p :     0.000000
      px      :     0.000000
      py      :     0.000000
 11 N s       :     3.032233  s :     3.032233
      pz      :     1.394466  p :     3.768677
      px      :     1.206978
      py      :     1.167233
      dz2     :     0.002621  d :     0.043221
      dxz     :     0.001844
      dyz     :     0.007041
      dx2y2   :     0.015337
      dxy     :     0.016378
 12 H s       :     0.767450  s :     0.767450
      pz      :     0.035562  p :     0.119979
      px      :     0.058313
      py      :     0.026103
 13 H s       :     0.761219  s :     0.761219
      pz      :     0.035097  p :     0.147584
      px      :     0.080863
      py      :     0.031624
 14 N s       :     3.046554  s :     3.046554
      pz      :     1.137683  p :     3.425984
      px      :     1.158808
      py      :     1.129492
      dz2     :     0.017308  d :     0.244611
      dxz     :     0.021955
      dyz     :     0.044102
      dx2y2   :     0.077434
      dxy     :     0.083811
 15 O s       :     3.611821  s :     3.611821
      pz      :     1.495362  p :     4.539727
      px      :     1.775078
      py      :     1.269287
      dz2     :     0.006386  d :     0.041289
      dxz     :     0.000170
      dyz     :     0.008716
      dx2y2   :     0.019345
      dxy     :     0.006673
 16 O s       :     3.613485  s :     3.613485
      pz      :     1.386319  p :     4.482077
      px      :     1.430815
      py      :     1.664942
      dz2     :     0.006070  d :     0.045155
      dxz     :     0.009799
      dyz     :     0.004484
      dx2y2   :     0.008914
      dxy     :     0.015888


                      *****************************
                      * MAYER POPULATION ANALYSIS *
                      *****************************

  NA   - Mulliken gross atomic population
  ZA   - Total nuclear charge
  QA   - Mulliken gross atomic charge
  VA   - Mayer's total valence
  BVA  - Mayer's bonded valence
  FA   - Mayer's free valence

  ATOM       NA         ZA         QA         VA         BVA        FA
  0 C      6.0352     6.0000    -0.0352     4.1104     4.1104    -0.0000
  1 C      5.9861     6.0000     0.0139     3.8205     3.8205    -0.0000
  2 C      5.9339     6.0000     0.0661     3.8069     3.8069     0.0000
  3 C      5.9270     6.0000     0.0730     3.7522     3.7522    -0.0000
  4 C      6.0098     6.0000    -0.0098     3.8606     3.8606    -0.0000
  5 C      5.8174     6.0000     0.1826     3.7535     3.7535    -0.0000
  6 H      0.9740     1.0000     0.0260     0.9946     0.9946    -0.0000
  7 H      0.9464     1.0000     0.0536     0.9820     0.9820     0.0000
  8 H      0.9398     1.0000     0.0602     0.9825     0.9825    -0.0000
  9 H      0.9458     1.0000     0.0542     1.0180     1.0180    -0.0000
 10 H      0.7549     1.0000     0.2451     0.9399     0.9399     0.0000
 11 N      6.8998     7.0000     0.1002     3.5348     3.5348    -0.0000
 12 H      0.8350     1.0000     0.1650     0.9848     0.9848    -0.0000
 13 H      0.8190     1.0000     0.1810     1.0328     1.0328     0.0000
 14 N      6.7443     7.0000     0.2557     3.9440     3.9440    -0.0000
 15 O      8.2536     8.0000    -0.2536     1.9417     1.9417    -0.0000
 16 O      8.1780     8.0000    -0.1780     2.0380     2.0380    -0.0000

  Mayer bond orders larger than 0.100000
B(  0-C ,  1-C ) :   1.1688 B(  0-C ,  5-C ) :   1.1490 B(  0-C , 11-N ) :   1.5361 
B(  1-C ,  2-C ) :   1.4650 B(  1-C ,  6-H ) :   0.9895 B(  1-C , 10-H ) :   0.1510 
B(  2-C ,  3-C ) :   1.2701 B(  2-C ,  7-H ) :   0.9849 B(  3-C ,  4-C ) :   1.2447 
B(  3-C ,  8-H ) :   0.9849 B(  3-C , 10-H ) :   0.2394 B(  4-C ,  5-C ) :   1.4705 
B(  4-C ,  9-H ) :   0.9795 B(  5-C , 10-H ) :   0.1105 B(  5-C , 14-N ) :   0.8743 
B( 10-H , 11-N ) :   0.2551 B( 11-N , 12-H ) :   0.9081 B( 11-N , 13-H ) :   0.8683 
B( 13-H , 15-O ) :   0.1007 B( 14-N , 15-O ) :   1.4441 B( 14-N , 16-O ) :   1.5909 
B( 15-O , 16-O ) :   0.2832 

-------
TIMINGS
-------

Total SCF time: 0 days 0 hours 14 min 49 sec 

Total time                  ....     889.065 sec
Sum of individual times     ....     866.423 sec  ( 97.5%)

Fock matrix formation       ....     856.406 sec  ( 96.3%)
  Split-RI-J                ....     113.372 sec  ( 13.2% of F)
  Chain of spheres X        ....     632.849 sec  ( 73.9% of F)
  XC integration            ....     109.900 sec  ( 12.8% of F)
    Basis function eval.    ....      34.856 sec  ( 31.7% of XC)
    Density eval.           ....      31.818 sec  ( 29.0% of XC)
    XC-Functional eval.     ....       5.982 sec  (  5.4% of XC)
    XC-Potential eval.      ....      28.430 sec  ( 25.9% of XC)
Diagonalization             ....       0.222 sec  (  0.0%)
Density matrix formation    ....       0.046 sec  (  0.0%)
Population analysis         ....       0.196 sec  (  0.0%)
Initial guess               ....       1.266 sec  (  0.1%)
Orbital Transformation      ....       0.386 sec  (  0.0%)
Orbital Orthonormalization  ....       0.000 sec  (  0.0%)
DIIS solution               ....       0.753 sec  (  0.1%)
SOSCF solution              ....       0.000 sec  (  0.0%)
Grid generation             ....       7.146 sec  (  0.8%)

Maximum memory used throughout the entire SCF-calculation: 74.7 MB


-------------------------------------------------------------------------------
                          DFT DISPERSION CORRECTION                            
                                                                               
                                 DFTD4 V2.5                                    
-------------------------------------------------------------------------------
The B3LYP functional is recognized
Active option DFTDOPT                   ...         5   

Starting D4
-------------------------   ----------------
Dispersion correction           -0.026254771
-------------------------   ----------------


-------------------------   --------------------
FINAL SINGLE POINT ENERGY      -491.663035022052
-------------------------   --------------------

------------------------------------------------------------------------------
                         ORCA SCF GRADIENT CALCULATION
------------------------------------------------------------------------------

 ... reading COSX grid (gridx3)
Gradient of the Kohn-Sham DFT energy:
Kohn-Sham wavefunction type      ... RKS
Hartree-Fock exchange scaling    ...    0.200
Number of operators              ...    1
Number of atoms                  ...   17
Basis set dimensions             ...  175
Integral neglect threshold       ... 2.5e-11
Integral primitive cutoff        ... 2.5e-12
SHARK Integral package           ... ON

Nuc. rep. gradient       (SHARK) ... done (  0.0 sec)
HCore & Overlap gradient (SHARK) ... done (  1.4 sec)
RI-J gradient            (SHARK) ... done (  6.0 sec)
COSX-gradient                    ... done ( 47.9 sec)
Exchange-correlation gradient    ... done
Dispersion correction            ... Starting D4


------------------- 
Dispersion Gradient 
------------------- 
   1  :   -0.000303144    0.000286764   -0.000116289
   2  :   -0.000537021   -0.000018486   -0.000176736
   3  :   -0.000415841   -0.000436266   -0.000114194
   4  :   -0.000132158   -0.000621968   -0.000011487
   5  :    0.000212239   -0.000577697    0.000099807
   6  :    0.000285465    0.000058656    0.000091553
   7  :   -0.000188924    0.000042889   -0.000064497
   8  :   -0.000132445   -0.000102334   -0.000037995
   9  :   -0.000003815   -0.000176045    0.000008196
  10  :    0.000151849   -0.000141623    0.000057955
  11  :   -0.000000708   -0.000000023   -0.000001093
  12  :   -0.000308393    0.000576705   -0.000134711
  13  :   -0.000245407    0.000227273   -0.000093948
  14  :    0.000142284    0.000268308    0.000032356
  15  :    0.000601100    0.000209593    0.000189994
  16  :    0.000380008    0.000390935    0.000104641
  17  :    0.000494909    0.000013320    0.000166448

  |G| =    0.001992795

done

------------------
CARTESIAN GRADIENT
------------------

   1   C   :   -0.000004861   -0.000015170   -0.000010013
[...]
     32       0.000028  -0.000021   0.000023  -0.000021  -0.000001  -0.000021
     33      -0.008355  -0.005122  -0.056357   0.017279  -0.040335  -0.012325
     34      -0.075648   0.064185  -0.065837   0.001590  -0.023500  -0.027508
     35       0.014487  -0.022809  -0.029712   0.014440  -0.028046  -0.002738
     36      -0.167407   0.048528   0.111818   0.189036   0.168749   0.026883
     37      -0.529224   0.230970   0.379714   0.481497   0.549987   0.069947
     38       0.007400  -0.024403  -0.012397   0.024919  -0.012163   0.003164
     39       0.217992  -0.059818   0.091412  -0.255653  -0.115095   0.028036
     40      -0.365282   0.165457  -0.331652   0.400691   0.068097  -0.091322
     41       0.292662  -0.098985   0.173804  -0.335358  -0.118843   0.050319
     42      -0.126807  -0.079286   0.136814  -0.068130  -0.041609  -0.014469
     43      -0.195136  -0.085988   0.153159  -0.006380  -0.048297   0.014887
     44      -0.053491  -0.043776   0.074156  -0.057106  -0.022081  -0.016845
     45       0.013050   0.007431  -0.016446  -0.000456   0.003235  -0.003861
     46       0.176403   0.087299  -0.145547   0.006820   0.055899  -0.020388
     47      -0.039581  -0.018740   0.027740  -0.002339  -0.013301   0.002543
     48       0.102673   0.054643  -0.072756   0.055159   0.038743   0.021464
     49      -0.027665  -0.014732   0.027652  -0.017324  -0.011289  -0.007640
     50       0.096777   0.051495  -0.070880   0.052690   0.036757   0.020769
                 42         43         44         45         46         47    
      0      -0.037435  -0.018936   0.012437   0.001645  -0.000717  -0.000478
      1       0.199414   0.240212   0.168234   0.001994  -0.001241  -0.000585
      2      -0.089418  -0.085165  -0.037501   0.000848  -0.000262  -0.000245
      3       0.006410  -0.031517  -0.026224  -0.055320   0.019631   0.009463
      4       0.096581  -0.243954  -0.143043   0.023547  -0.011369  -0.007443
      5      -0.022146   0.042687   0.018351  -0.054457   0.020187   0.010294
      6       0.025848  -0.033092  -0.022049   0.020173   0.036534   0.038703
      7      -0.151535   0.192927   0.105040   0.017545   0.042039   0.038702
      8       0.065727  -0.083829  -0.049126   0.012375   0.019473   0.022304
      9       0.030799  -0.030464   0.004048   0.000053   0.000804  -0.004989
     10       0.086797  -0.091236  -0.058104  -0.008437  -0.054242   0.058110
     11       0.001670  -0.000107   0.020146   0.002465   0.016251  -0.020974
     12      -0.047003   0.055176   0.013717  -0.001928  -0.006843   0.014306
     13      -0.137543   0.209104   0.180732   0.000899   0.004779  -0.008428
     14      -0.001118  -0.012323  -0.039966  -0.001920  -0.007272   0.014761
     15       0.028725   0.024846   0.043615   0.000134  -0.000127  -0.000273
     16       0.041864  -0.191170  -0.220667  -0.000277  -0.000037   0.000391
     17       0.012789   0.076226   0.100931   0.000195  -0.000099  -0.000349
     18      -0.037491   0.179706   0.092723   0.630915  -0.223525  -0.107764
     19       0.010859   0.272753   0.162741  -0.268122   0.097308   0.048251
     20      -0.035499   0.076897   0.033356   0.620962  -0.220648  -0.106763
     21      -0.144291   0.165129   0.079200  -0.229839  -0.428479  -0.420529
     22       0.118638  -0.113945  -0.053830  -0.234482  -0.445626  -0.431816
     23      -0.158523   0.175152   0.083807  -0.131112  -0.241982  -0.239078
     24      -0.076301   0.056907  -0.042609  -0.003763  -0.024738   0.029955
     25       0.070344  -0.080524  -0.082021   0.098160   0.620849  -0.655375
     26      -0.086047   0.072204  -0.013194  -0.031400  -0.199402   0.213799
     27       0.069630  -0.098987  -0.141201   0.024044   0.090571  -0.181136
     28       0.179976  -0.199973  -0.184268  -0.010012  -0.038040   0.074804
     29       0.008466  -0.028169  -0.069060   0.023613   0.089046  -0.177713
     30       0.000041   0.000089   0.000102  -0.000001   0.000001   0.000001
     31       0.000001  -0.000022   0.000026   0.000001   0.000001   0.000000
     32       0.000066   0.000139   0.000141  -0.000001   0.000000   0.000003
     33       0.018200   0.015933  -0.010809  -0.000335   0.000061   0.000003
     34      -0.206190  -0.142287  -0.020799  -0.000431   0.000154  -0.000007
     35       0.074799   0.054535  -0.003360  -0.000165   0.000008   0.000004
     36       0.284580   0.195090  -0.076750  -0.001856  -0.000798   0.000395
     37       0.499346   0.339901  -0.207243  -0.003452   0.001861   0.000475
     38       0.102221   0.070746  -0.006759  -0.000612  -0.001220   0.000204
     39      -0.345088  -0.259110   0.154959   0.004365   0.000630  -0.000054
     40       0.312254   0.289379  -0.326528   0.002689   0.001650   0.000439
     41      -0.387351  -0.306699   0.227277   0.002991   0.000069  -0.000172
     42      -0.029672   0.074056  -0.258531   0.000049  -0.000117   0.000247
     43       0.048043  -0.131596   0.405264   0.000227   0.000059  -0.000175
     44      -0.039487   0.101979  -0.340270  -0.000023  -0.000118   0.000263
     45      -0.000167   0.000147   0.018565   0.000018  -0.000002  -0.000031
     46      -0.027428   0.084747  -0.195765  -0.000077   0.000023  -0.000018
     47       0.007776  -0.024296   0.072470   0.000037  -0.000009  -0.000022
     48       0.020379  -0.068464   0.193878  -0.000013  -0.000005   0.000010
     49      -0.010962   0.036058  -0.121455  -0.000063  -0.000136   0.000244
     50       0.020776  -0.069600   0.202638   0.000007   0.000035  -0.000061
                 48         49         50    
      0       0.000050  -0.000221  -0.000076
      1      -0.000330  -0.000455  -0.001829
      2       0.000138  -0.000059   0.000457
      3       0.002096  -0.000783   0.000166
      4      -0.001420  -0.001588  -0.000099
      5       0.002214  -0.000220   0.000171
      6       0.005230   0.000155  -0.000014
      7       0.004299   0.000484   0.000195
      8       0.003281  -0.000005  -0.000068
      9       0.001475   0.000265   0.000127
     10       0.025907  -0.000141  -0.000065
     11      -0.006159   0.000270   0.000129
     12      -0.058227  -0.000008  -0.000212
     13       0.023002  -0.000465   0.000088
     14      -0.056825   0.000128  -0.000208
     15       0.000294   0.000989   0.000371
     16      -0.003346   0.000563  -0.000800
     17       0.001213   0.000691   0.000550
     18      -0.021828   0.003769  -0.000683
     19       0.009647  -0.000119   0.001219
     20      -0.021589   0.003286  -0.000939
     21      -0.047974  -0.001756  -0.000144
     22      -0.048797  -0.001918  -0.000013
     23      -0.027405  -0.000963  -0.000120
     24       0.009542   0.000135  -0.000143
     25      -0.270244   0.002467   0.000333
     26       0.085735  -0.000591  -0.000219
     27       0.654269  -0.002061   0.001092
     28      -0.261278  -0.000648   0.000201
     29       0.639351  -0.001595   0.000886
     30      -0.000002  -0.000010  -0.000006
     31      -0.000001  -0.000006   0.000004
     32      -0.000001  -0.000017  -0.000009
     33       0.000189   0.025778  -0.061725
     34       0.000182   0.055902   0.003963
     35       0.000111   0.006177  -0.054348
     36      -0.000188   0.229366   0.653780
     37       0.000119  -0.109372  -0.247813
     38      -0.000197   0.229087   0.634742
     39      -0.001933  -0.587279   0.198776
     40      -0.002385  -0.658366   0.224823
     41      -0.000982  -0.317320   0.106837
     42      -0.000722  -0.001153   0.000117
     43       0.000502  -0.004421   0.001077
     44      -0.000768   0.000279  -0.000210
     45       0.000090   0.000956  -0.000202
     46       0.000113   0.003301  -0.000830
     47       0.000045  -0.000123   0.000064
     48      -0.000067  -0.000267   0.000147
     49      -0.000733   0.001214  -0.000359
     50       0.000153  -0.000582   0.000230


-----------
IR SPECTRUM
-----------

 Mode   freq       eps      Int      T**2         TX        TY        TZ
       cm**-1   L/(mol*cm) km/mol    a.u.
----------------------------------------------------------------------------
  7:      2.92   0.000000    0.00  0.000000  ( 0.000000  0.000000  0.000000)
  8:      7.80   0.013996   70.73  0.560080  ( 0.453027 -0.032464  0.594805)
  9:     61.95   0.000005    0.03  0.000026  (-0.002500  0.000789  0.004355)
 10:    134.28   0.000697    3.52  0.001620  (-0.026191  0.008698  0.029297)
 11:    233.88   0.000466    2.36  0.000622  ( 0.015883 -0.005298 -0.018483)
 12:    299.96   0.000503    2.54  0.000523  ( 0.001656 -0.022621 -0.002904)
 13:    382.65   0.006335   32.02  0.005167  (-0.048680  0.002721 -0.052817)
 14:    400.25   0.003853   19.47  0.003004  (-0.028023 -0.003706 -0.046956)
 15:    414.01   0.000971    4.91  0.000732  ( 0.017401 -0.005739 -0.019911)
 16:    498.36   0.001098    5.55  0.000688  ( 0.016833 -0.005652 -0.019302)
 17:    543.33   0.000353    1.78  0.000203  ( 0.000484 -0.011827  0.007902)
 18:    560.73   0.015572   78.69  0.008666  (-0.044322  0.023648 -0.078374)
 19:    592.25   0.012440   62.87  0.006555  ( 0.052019 -0.017253 -0.059591)
 20:    669.72   0.002579   13.03  0.001202  ( 0.012694 -0.014691  0.028717)
 21:    676.09   0.010140   51.24  0.004680  (-0.044035  0.014557  0.050292)
 22:    741.78   0.003646   18.42  0.001534  (-0.025201  0.008385  0.028780)
 23:    776.28   0.008339   42.14  0.003352  (-0.037502  0.012485  0.042310)
 24:    797.79   0.009167   46.33  0.003586  (-0.038647  0.012918  0.043879)
 25:    840.76   0.014747   74.53  0.005474  ( 0.031249 -0.021798  0.063419)
 26:    889.32   0.005794   29.28  0.002033  ( 0.009263  0.038095 -0.022270)
 27:    895.91   0.000015    0.07  0.000005  ( 0.001257 -0.000522 -0.001812)
 28:   1004.48   0.000349    1.76  0.000108  (-0.006841  0.002292  0.007501)
 29:   1017.07   0.004451   22.49  0.001366  (-0.022751  0.008855 -0.027740)
 30:   1033.74   0.000078    0.39  0.000023  ( 0.003135 -0.001132 -0.003518)
 31:   1053.62   0.006764   34.18  0.002003  ( 0.018265 -0.011247  0.039285)
 32:   1107.02   0.006933   35.04  0.001954  ( 0.029952  0.021229  0.024628)
 33:   1163.78   0.033998  171.81  0.009117  ( 0.057049 -0.009302  0.075996)
 34:   1180.91   0.004764   24.08  0.001259  (-0.021395  0.005112 -0.027840)
 35:   1300.43   0.004465   22.56  0.001071  (-0.011512  0.016749 -0.025659)
 36:   1357.37   0.025839  130.58  0.005941  (-0.018390 -0.072185  0.019790)
 37:   1399.62   0.033314  168.35  0.007428  ( 0.031844 -0.024061  0.076385)
 38:   1416.95   0.008977   45.37  0.001977  ( 0.009390  0.040091 -0.016780)
 39:   1489.36   0.039155  197.87  0.008204  ( 0.035731 -0.020457  0.080678)
 40:   1504.70   0.005535   27.97  0.001148  (-0.023333 -0.015192 -0.019307)
 41:   1552.93   0.002410   12.18  0.000484  (-0.004418  0.017541 -0.012537)
 42:   1590.93   0.071276  360.20  0.013981  (-0.046713  0.082461 -0.070703)
 43:   1654.29   0.211586  1069.27  0.039913  (-0.098246  0.041092 -0.169034)
 44:   1700.30   0.086489  437.08  0.015874  (-0.063966  0.055119 -0.093509)
 45:   3196.98   0.000077    0.39  0.000007  ( 0.001889  0.001882  0.000600)
 46:   3211.67   0.000383    1.94  0.000037  ( 0.002710 -0.001024  0.005371)
 47:   3220.72   0.000862    4.35  0.000083  (-0.006171 -0.005746 -0.003521)
 48:   3233.74   0.000291    1.47  0.000028  ( 0.003496 -0.003710 -0.001461)
 49:   3405.50   0.293722  1484.35  0.026915  ( 0.056087 -0.085742  0.128132)
 50:   3627.95   0.096074  485.52  0.008264  ( 0.057157 -0.018904  0.068115)

* The epsilon (eps) is given for a Dirac delta lineshape.
** The dipole moment derivative (T) already includes vibrational overlap.

The first frequency considered to be a vibration is 7
The total number of vibrations considered is 44


--------------------------
THERMOCHEMISTRY AT 298.15K
--------------------------

Temperature         ... 298.15 K
Pressure            ... 1.00 atm
Total Mass          ... 139.13 AMU

Throughout the following assumptions are being made:
  (1) The electronic state is orbitally nondegenerate
  (2) There are no thermally accessible electronically excited states
  (3) Hindered rotations indicated by low frequency modes are not
      treated as such but are treated as vibrations and this may
      cause some error
  (4) All equations used are the standard statistical mechanics
      equations for an ideal gas
  (5) All vibrations are strictly harmonic

freq.       2.92  E(vib)   ...       0.59 
freq.       7.80  E(vib)   ...       0.58 
freq.      61.95  E(vib)   ...       0.51 
freq.     134.28  E(vib)   ...       0.42 
freq.     233.88  E(vib)   ...       0.32 
freq.     299.96  E(vib)   ...       0.26 
freq.     382.65  E(vib)   ...       0.20 
freq.     400.25  E(vib)   ...       0.19 
freq.     414.01  E(vib)   ...       0.19 
freq.     498.36  E(vib)   ...       0.14 
freq.     543.33  E(vib)   ...       0.12 
freq.     560.73  E(vib)   ...       0.11 
freq.     592.25  E(vib)   ...       0.10 
freq.     669.72  E(vib)   ...       0.08 
freq.     676.09  E(vib)   ...       0.08 
freq.     741.78  E(vib)   ...       0.06 
freq.     776.28  E(vib)   ...       0.05 
freq.     797.79  E(vib)   ...       0.05 
freq.     840.76  E(vib)   ...       0.04 
freq.     889.32  E(vib)   ...       0.04 
freq.     895.91  E(vib)   ...       0.03 
freq.    1004.48  E(vib)   ...       0.02 
freq.    1017.07  E(vib)   ...       0.02 
freq.    1033.74  E(vib)   ...       0.02 
freq.    1053.62  E(vib)   ...       0.02 
freq.    1107.02  E(vib)   ...       0.02 
freq.    1163.78  E(vib)   ...       0.01 
freq.    1180.91  E(vib)   ...       0.01 
freq.    1300.43  E(vib)   ...       0.01 
freq.    1357.37  E(vib)   ...       0.01 
freq.    1399.62  E(vib)   ...       0.00 
freq.    1416.95  E(vib)   ...       0.00 
freq.    1489.36  E(vib)   ...       0.00 
freq.    1504.70  E(vib)   ...       0.00 
freq.    1552.93  E(vib)   ...       0.00 
freq.    1590.93  E(vib)   ...       0.00 
freq.    1654.29  E(vib)   ...       0.00 
freq.    1700.30  E(vib)   ...       0.00 
freq.    3196.98  E(vib)   ...       0.00 
freq.    3211.67  E(vib)   ...       0.00 
freq.    3220.72  E(vib)   ...       0.00 
freq.    3233.74  E(vib)   ...       0.00 
freq.    3405.50  E(vib)   ...       0.00 
freq.    3627.95  E(vib)   ...       0.00 

------------
INNER ENERGY
------------

The inner energy is: U= E(el) + E(ZPE) + E(vib) + E(rot) + E(trans)
    E(el)   - is the total energy from the electronic structure calculation
              = E(kin-el) + E(nuc-el) + E(el-el) + E(nuc-nuc)
    E(ZPE)  - the the zero temperature vibrational energy from the frequency calculation
    E(vib)  - the the finite temperature correction to E(ZPE) due to population
              of excited vibrational states
    E(rot)  - is the rotational thermal energy
    E(trans)- is the translational thermal energy

Summary of contributions to the inner energy U:
Electronic energy                ...   -491.66464919 Eh
Zero point energy                ...      0.12038764 Eh      75.54 kcal/mol
Thermal vibrational correction   ...      0.00691261 Eh       4.34 kcal/mol
Thermal rotational correction    ...      0.00141627 Eh       0.89 kcal/mol
Thermal translational correction ...      0.00141627 Eh       0.89 kcal/mol
-----------------------------------------------------------------------
Total thermal energy                   -491.53451638 Eh


Summary of corrections to the electronic energy:
(perhaps to be used in another calculation)
Total thermal correction                  0.00974516 Eh       6.12 kcal/mol
Non-thermal (ZPE) correction              0.12038764 Eh      75.54 kcal/mol
-----------------------------------------------------------------------
Total correction                          0.13013280 Eh      81.66 kcal/mol


--------
ENTHALPY
--------

The enthalpy is H = U + kB*T
                kB is Boltzmann's constant
Total free energy                 ...   -491.53451638 Eh 
Thermal Enthalpy correction       ...      0.00094421 Eh       0.59 kcal/mol
-----------------------------------------------------------------------
Total Enthalpy                    ...   -491.53357218 Eh


Note: Only C1 symmetry has been detected, increase convergence thresholds 
      if your molecule has a higher symmetry. Symmetry factor of 1.0 is   
      used for the rotational entropy correction. 
 

Note: Rotational entropy computed according to Herzberg 
Infrared and Raman Spectra, Chapter V,1, Van Nostrand Reinhold, 1945 
Point Group:  C1, Symmetry Number:   1  
Rotational constants in cm-1:     0.050365     0.023232     0.016225 

Vibrational entropy computed according to the QRRHO of S. Grimme
Chem.Eur.J. 2012 18 9955


-------
ENTROPY
-------

The entropy contributions are T*S = T*(S(el)+S(vib)+S(rot)+S(trans))
     S(el)   - electronic entropy
     S(vib)  - vibrational entropy
     S(rot)  - rotational entropy
     S(trans)- translational entropy
The entropies will be listed as multiplied by the temperature to get
units of energy

Electronic entropy                ...      0.00000000 Eh      0.00 kcal/mol
Vibrational entropy               ...      0.01372912 Eh      8.62 kcal/mol
Rotational entropy                ...      0.01464333 Eh      9.19 kcal/mol
Translational entropy             ...      0.01933899 Eh     12.14 kcal/mol
-----------------------------------------------------------------------
Final entropy term                ...      0.04771144 Eh     29.94 kcal/mol

In case the symmetry of your molecule has not been determined correctly
or in case you have a reason to use a different symmetry number we print 
out the resulting rotational entropy values for sn=1,12 :
 --------------------------------------------------------
|  sn= 1 | S(rot)=       0.01464333 Eh      9.19 kcal/mol|
|  sn= 2 | S(rot)=       0.01398887 Eh      8.78 kcal/mol|
|  sn= 3 | S(rot)=       0.01360604 Eh      8.54 kcal/mol|
|  sn= 4 | S(rot)=       0.01333442 Eh      8.37 kcal/mol|
|  sn= 5 | S(rot)=       0.01312373 Eh      8.24 kcal/mol|
|  sn= 6 | S(rot)=       0.01295158 Eh      8.13 kcal/mol|
|  sn= 7 | S(rot)=       0.01280604 Eh      8.04 kcal/mol|
|  sn= 8 | S(rot)=       0.01267996 Eh      7.96 kcal/mol|
|  sn= 9 | S(rot)=       0.01256875 Eh      7.89 kcal/mol|
|  sn=10 | S(rot)=       0.01246927 Eh      7.82 kcal/mol|
|  sn=11 | S(rot)=       0.01237928 Eh      7.77 kcal/mol|
|  sn=12 | S(rot)=       0.01229713 Eh      7.72 kcal/mol|
 --------------------------------------------------------


-------------------
GIBBS FREE ENERGY
-------------------

The Gibbs free energy is G = H - T*S

Total enthalpy                    ...   -491.53357218 Eh 
Total entropy correction          ...     -0.04771144 Eh    -29.94 kcal/mol
-----------------------------------------------------------------------
Final Gibbs free energy         ...   -491.58128362 Eh

For completeness - the Gibbs free energy minus the electronic energy
G-E(el)                           ...      0.08336557 Eh     52.31 kcal/mol


Timings for individual modules:

Sum of individual times         ...    28997.653 sec (= 483.294 min)
GTO integral calculation        ...       99.783 sec (=   1.663 min)   0.3 %
SCF iterations                  ...    21356.279 sec (= 355.938 min)  73.6 %
SCF Gradient evaluation         ...     6091.565 sec (= 101.526 min)  21.0 %
Geometry relaxation             ...       32.647 sec (=   0.544 min)   0.1 %
Analytical frequency calculation...     1417.379 sec (=  23.623 min)   4.9 %
                             ****ORCA TERMINATED NORMALLY****
TOTAL RUN TIME: 0 days 8 hours 5 minutes 8 seconds 845 msec
