
                                 *****************
                                 * O   R   C   A *
                                 *****************

                                            #,                                       
                                            ###                                      
                                            ####                                     
                                            #####                                    
                                            ######                                   
                                           ########,                                 
                                     ,,################,,,,,                         
                               ,,#################################,,                 
                          ,,##########################################,,             
                       ,#########################################, ''#####,          
                    ,#############################################,,   '####,        
                  ,##################################################,,,,####,       
                ,###########''''           ''''###############################       
              ,#####''   ,,,,##########,,,,          '''####'''          '####       
            ,##' ,,,,###########################,,,                        '##       
           ' ,,###''''                  '''############,,,                           
         ,,##''                                '''############,,,,        ,,,,,,###''
      ,#''                                            '''#######################'''  
     '                                                          ''''####''''         
             ,#######,   #######,   ,#######,      ##                                
            ,#'     '#,  ##    ##  ,#'     '#,    #''#        ######   ,####,        
            ##       ##  ##   ,#'  ##            #'  '#       #        #'  '#        
            ##       ##  #######   ##           ,######,      #####,   #    #        
            '#,     ,#'  ##    ##  '#,     ,#' ,#      #,         ##   #,  ,#        
             '#######'   ##     ##  '#######'  #'      '#     #####' # '####'        



                  #######################################################
                  #                        -***-                        #
                  #          Department of theory and spectroscopy      #
                  #    Directorship and core code : Frank Neese         #
                  #        Max Planck Institute fuer Kohlenforschung    #
                  #                Kaiser Wilhelm Platz 1               #
                  #                 D-45470 Muelheim/Ruhr               #
                  #                      Germany                        #
                  #                                                     #
                  #                  All rights reserved                #
                  #                        -***-                        #
                  #######################################################



                         Program Version 5.0.4 -  RELEASE  -

 With contributions from (in alphabetic order):
   Daniel Aravena         : Magnetic Suceptibility
   Michael Atanasov       : Ab Initio Ligand Field Theory (pilot matlab implementation)
   Alexander A. Auer      : GIAO ZORA, VPT2 properties, NMR spectrum
   Ute Becker             : Parallelization
   Giovanni Bistoni       : ED, misc. LED, open-shell LED, HFLD
   Martin Brehm           : Molecular dynamics
   Dmytro Bykov           : SCF Hessian
   Vijay G. Chilkuri      : MRCI spin determinant printing, contributions to CSF-ICE
   Dipayan Datta          : RHF DLPNO-CCSD density
   Achintya Kumar Dutta   : EOM-CC, STEOM-CC
   Dmitry Ganyushin       : Spin-Orbit,Spin-Spin,Magnetic field MRCI
   Miquel Garcia          : C-PCM and meta-GGA Hessian, CC/C-PCM, Gaussian charge scheme
   Yang Guo               : DLPNO-NEVPT2, F12-NEVPT2, CIM, IAO-localization
   Andreas Hansen         : Spin unrestricted coupled pair/coupled cluster methods
   Benjamin Helmich-Paris : MC-RPA, TRAH-SCF, COSX integrals
   Lee Huntington         : MR-EOM, pCC
   Robert Izsak           : Overlap fitted RIJCOSX, COSX-SCS-MP3, EOM
   Marcus Kettner         : VPT2
   Christian Kollmar      : KDIIS, OOCD, Brueckner-CCSD(T), CCSD density, CASPT2, CASPT2-K
   Simone Kossmann        : Meta GGA functionals, TD-DFT gradient, OOMP2, MP2 Hessian
   Martin Krupicka        : Initial AUTO-CI
   Lucas Lang             : DCDCAS
   Marvin Lechner         : AUTO-CI (C++ implementation), FIC-MRCC
   Dagmar Lenk            : GEPOL surface, SMD
   Dimitrios Liakos       : Extrapolation schemes; Compound Job, initial MDCI parallelization
   Dimitrios Manganas     : Further ROCIS development; embedding schemes
   Dimitrios Pantazis     : SARC Basis sets
   Anastasios Papadopoulos: AUTO-CI, single reference methods and gradients
   Taras Petrenko         : DFT Hessian,TD-DFT gradient, ASA, ECA, R-Raman, ABS, FL, XAS/XES, NRVS
   Peter Pinski           : DLPNO-MP2, DLPNO-MP2 Gradient
   Christoph Reimann      : Effective Core Potentials
   Marius Retegan         : Local ZFS, SOC
   Christoph Riplinger    : Optimizer, TS searches, QM/MM, DLPNO-CCSD(T), (RO)-DLPNO pert. Triples
   Tobias Risthaus        : Range-separated hybrids, TD-DFT gradient, RPA, STAB
   Michael Roemelt        : Original ROCIS implementation
   Masaaki Saitow         : Open-shell DLPNO-CCSD energy and density
   Barbara Sandhoefer     : DKH picture change effects
   Avijit Sen             : IP-ROCIS
   Kantharuban Sivalingam : CASSCF convergence, NEVPT2, FIC-MRCI
   Bernardo de Souza      : ESD, SOC TD-DFT
   Georgi Stoychev        : AutoAux, RI-MP2 NMR, DLPNO-MP2 response
   Willem Van den Heuvel  : Paramagnetic NMR
   Boris Wezisla          : Elementary symmetry handling
   Frank Wennmohs         : Technical directorship


 We gratefully acknowledge several colleagues who have allowed us to
 interface, adapt or use parts of their codes:
   Stefan Grimme, W. Hujo, H. Kruse, P. Pracht,  : VdW corrections, initial TS optimization,
                  C. Bannwarth, S. Ehlert          DFT functionals, gCP, sTDA/sTD-DF
   Ed Valeev, F. Pavosevic, A. Kumar             : LibInt (2-el integral package), F12 methods
   Garnet Chan, S. Sharma, J. Yang, R. Olivares  : DMRG
   Ulf Ekstrom                                   : XCFun DFT Library
   Mihaly Kallay                                 : mrcc  (arbitrary order and MRCC methods)
   Jiri Pittner, Ondrej Demel                    : Mk-CCSD
   Frank Weinhold                                : gennbo (NPA and NBO analysis)
   Christopher J. Cramer and Donald G. Truhlar   : smd solvation model
   Lars Goerigk                                  : TD-DFT with DH, B97 family of functionals
   V. Asgeirsson, H. Jonsson                     : NEB implementation
   FAccTs GmbH                                   : IRC, NEB, NEB-TS, DLPNO-Multilevel, CI-OPT
                                                   MM, QMMM, 2- and 3-layer-ONIOM, Crystal-QMMM,
                                                   LR-CPCM, SF, NACMEs, symmetry and pop. for TD-DFT,
                                                   nearIR, NL-DFT gradient (VV10), updates on ESD,
                                                   ML-optimized integration grids
   S Lehtola, MJT Oliveira, MAL Marques          : LibXC Library
   Liviu Ungur et al                             : ANISO software


 Your calculation uses the libint2 library for the computation of 2-el integrals
 For citations please refer to: http://libint.valeyev.net

 Your ORCA version has been built with support for libXC version: 5.1.0
 For citations please refer to: https://tddft.org/programs/libxc/

 This ORCA versions uses:
   CBLAS   interface :  Fast vector & matrix operations
   LAPACKE interface :  Fast linear algebra routines
   Shared memory     :  Shared parallel matrices


Your calculation utilizes the atom-pairwise dispersion correction
based on tight binding partial charges (D4)
Cite in your paper:
E.Caldeweyher, C.Bannwarth, S.Grimme, J.Chem.Phys., (2017), 147, 034112.
E.Caldeweyher, S.Ehlert, A.Hansen, H.Neugebauer, S.Grimme, J.Chem.Phys., (2018), in progress.
   

================================================================================

----- Orbital basis set information -----
Your calculation utilizes the basis: def2-SVP
   F. Weigend and R. Ahlrichs, Phys. Chem. Chem. Phys. 7, 3297 (2005).

----- AuxJ basis set information -----
Your calculation utilizes the auxiliary basis: def2/J
   F. Weigend, Phys. Chem. Chem. Phys. 8, 1057 (2006).

================================================================================
                                        WARNINGS
                       Please study these warnings very carefully!
================================================================================


WARNING: Geometry Optimization
  ===> : Switching off AutoStart
         For restart on a previous wavefunction, please use MOREAD

INFO   : the flag for use of the SHARK integral package has been found!

================================================================================
                                       INPUT FILE
================================================================================
NAME = opt.inp
|  1> !B3LYP DEF2-SVP OPT FREQ D4 SOSCF
|  2> 
|  3> * xyz 0 1
|  4>    C       -3.91938        0.92796       -0.12671
|  5>    C       -5.15778        0.26664       -0.27333
|  6>    C       -5.24084       -1.12289       -0.13918
|  7>    C       -4.09642       -1.87090        0.14228
|  8>    C       -2.86478       -1.23137        0.29051
|  9>    C       -2.77472        0.15728        0.15733
| 10>    C       -3.78698        2.43865       -0.26520
| 11>    H       -6.06498        0.81312       -0.49333
| 12>    H       -6.19522       -1.62052       -0.25415
| 13>    H       -4.16415       -2.94618        0.24566
| 14>    H       -1.97789       -1.81196        0.50945
| 15>    H       -1.80883        0.63095        0.27906
| 16>    O       -5.03392        3.03815       -0.52539
| 17>    H       -5.54528        3.04794        0.32647
| 18>    O       -3.25184        2.97026        0.92637
| 19>    H       -3.14977        3.94807        0.78612
| 20>    O       -2.93503        2.72815       -1.34795
| 21>    H       -1.99718        2.60906       -1.04472
| 22> **                         ****END OF INPUT****
================================================================================

                       *****************************
                       * Geometry Optimization Run *
                       *****************************

Geometry optimization settings:
Update method            Update   .... BFGS
Choice of coordinates    CoordSys .... Z-matrix Internals
Initial Hessian          InHess   .... Almoef's Model

Convergence Tolerances:
Energy Change            TolE     ....  5.0000e-06 Eh
Max. Gradient            TolMAXG  ....  3.0000e-04 Eh/bohr
RMS Gradient             TolRMSG  ....  1.0000e-04 Eh/bohr
Max. Displacement        TolMAXD  ....  4.0000e-03 bohr
RMS Displacement         TolRMSD  ....  2.0000e-03 bohr
Strict Convergence                ....  False
------------------------------------------------------------------------------
                        ORCA OPTIMIZATION COORDINATE SETUP
------------------------------------------------------------------------------

The optimization will be done in new redundant internal coordinates
Making redundant internal coordinates   ...  (new redundants) done
Evaluating the initial hessian          ...  (Almloef) done
Evaluating the coordinates              ...  done
Calculating the B-matrix                .... done
Calculating the G-matrix                .... done
Diagonalizing the G-matrix              .... done
The first mode is                       ....   36
The number of degrees of freedom        ....   48

    -----------------------------------------------------------------
                    Redundant Internal Coordinates


    -----------------------------------------------------------------
         Definition                    Initial Value    Approx d2E/dq
    -----------------------------------------------------------------
      1. B(C   1,C   0)                  1.4116         0.577239   
      2. B(C   2,C   1)                  1.3985         0.605678   
      3. B(C   3,C   2)                  1.3959         0.611481   
      4. B(C   4,C   3)                  1.3957         0.611906   
      5. B(C   5,C   4)                  1.3979         0.606867   
      6. B(C   5,C   0)                  1.4089         0.582984   
      7. B(C   6,C   0)                  1.5228         0.383600   
      8. B(H   7,C   1)                  1.0817         0.371263   
      9. B(H   8,C   2)                  1.0824         0.370229   
     10. B(H   9,C   3)                  1.0824         0.370351   
     11. B(H  10,C   4)                  1.0824         0.370293   
     12. B(H  11,C   5)                  1.0826         0.369959   
     13. B(O  12,C   6)                  1.4078         0.524136   
     14. B(H  13,O  12)                  0.9936         0.459571   
     15. B(O  14,C   6)                  1.4103         0.519467   
     16. B(H  15,O  14)                  0.9931         0.460464   
     17. B(O  16,C   6)                  1.4078         0.524124   
     18. B(H  17,O  16)                  0.9928         0.460896   
     19. A(C   1,C   0,C   6)          122.1147         0.393567   
     20. A(C   1,C   0,C   5)          118.5202         0.423831   
     21. A(C   5,C   0,C   6)          119.3651         0.394251   
     22. A(C   2,C   1,H   7)          118.1435         0.353337   
     23. A(C   0,C   1,C   2)          120.5080         0.426738   
     24. A(C   0,C   1,H   7)          121.3484         0.350475   
     25. A(C   1,C   2,C   3)          120.2054         0.431172   
     26. A(C   3,C   2,H   8)          119.8628         0.353741   
     27. A(C   1,C   2,H   8)          119.9318         0.353170   
     28. A(C   4,C   3,H   9)          120.0201         0.353802   
     29. A(C   2,C   3,C   4)          119.9584         0.431966   
     30. A(C   2,C   3,H   9)          120.0216         0.353761   
     31. A(C   3,C   4,H  10)          119.9185         0.353793   
     32. A(C   3,C   4,C   5)          120.1269         0.431378   
     33. A(C   5,C   4,H  10)          119.9547         0.353298   
     34. A(C   4,C   5,H  11)          118.7751         0.353244   
     35. A(C   0,C   5,H  11)          120.5436         0.350853   
     36. A(C   0,C   5,C   4)          120.6812         0.427646   
     37. A(O  14,C   6,O  16)          110.0403         0.402922   
     38. A(O  12,C   6,O  16)          107.8357         0.403559   
     39. A(C   0,C   6,O  16)          109.0603         0.384533   
     40. A(O  12,C   6,O  14)          109.3741         0.402924   
     41. A(C   0,C   6,O  14)          109.2757         0.383937   
     42. A(C   0,C   6,O  12)          111.2384         0.384535   
     43. A(C   6,O  12,H  13)          107.5527         0.352172   
     44. A(C   6,O  14,H  15)          106.9082         0.351755   
     45. A(C   6,O  16,H  17)          108.1847         0.352342   
     46. D(C   2,C   1,C   0,C   5)     -0.0272         0.022882   
     47. D(C   2,C   1,C   0,C   6)    179.9986         0.022882   
     48. D(H   7,C   1,C   0,C   6)      0.1349         0.022882   
     49. D(H   7,C   1,C   0,C   5)   -179.8908         0.022882   
     50. D(C   3,C   2,C   1,C   0)      0.0227         0.025316   
     51. D(C   3,C   2,C   1,H   7)    179.8907         0.025316   
     52. D(H   8,C   2,C   1,H   7)     -0.0908         0.025316   
     53. D(H   8,C   2,C   1,C   0)   -179.9587         0.025316   
     54. D(H   9,C   3,C   2,H   8)     -0.0291         0.025831   
     55. D(H   9,C   3,C   2,C   1)    179.9894         0.025831   
     56. D(C   4,C   3,C   2,H   8)    179.9803         0.025831   
     57. D(C   4,C   3,C   2,C   1)     -0.0012         0.025831   
     58. D(C   5,C   4,C   3,H   9)    179.9941         0.025869   
     59. D(H  10,C   4,C   3,C   2)    179.9569         0.025869   
     60. D(C   5,C   4,C   3,C   2)     -0.0154         0.025869   
     61. D(H  10,C   4,C   3,H   9)     -0.0337         0.025869   
     62. D(H  11,C   5,C   4,H  10)     -0.1196         0.025421   
     63. D(C   0,C   5,C   4,H  10)   -179.9618         0.025421   
     64. D(C   0,C   5,C   4,C   3)      0.0105         0.025421   
     65. D(H  11,C   5,C   0,C   6)      0.1463         0.023362   
     66. D(H  11,C   5,C   0,C   1)   -179.8287         0.023362   
     67. D(H  11,C   5,C   4,C   3)    179.8526         0.025421   
     68. D(C   4,C   5,C   0,C   6)    179.9857         0.023362   
     69. D(C   4,C   5,C   0,C   1)      0.0106         0.023362   
     70. D(O  16,C   6,C   0,C   5)     62.1933         0.010968   
     71. D(O  16,C   6,C   0,C   1)   -117.8326         0.010968   
     72. D(O  14,C   6,C   0,C   5)    -58.1328         0.010968   
     73. D(O  14,C   6,C   0,C   1)    121.8413         0.010968   
     74. D(O  12,C   6,C   0,C   5)   -178.9941         0.010968   
     75. D(O  12,C   6,C   0,C   1)      0.9800         0.010968   
     76. D(H  13,O  12,C   6,C   0)     75.5211         0.021795   
     77. D(H  13,O  12,C   6,O  16)   -164.9346         0.021795   
     78. D(H  13,O  12,C   6,O  14)    -45.2824         0.021795   
     79. D(H  15,O  14,C   6,O  16)     58.2520         0.021392   
     80. D(H  15,O  14,C   6,O  12)    -60.0337         0.021392   
     81. D(H  15,O  14,C   6,C   0)    177.9758         0.021392   
     82. D(H  17,O  16,C   6,O  14)     40.5439         0.021794   
     83. D(H  17,O  16,C   6,O  12)    159.7733         0.021794   
     84. D(H  17,O  16,C   6,C   0)    -79.3108         0.021794   
    -----------------------------------------------------------------

Number of atoms                         .... 18
Number of degrees of freedom            .... 84

         *************************************************************
         *                GEOMETRY OPTIMIZATION CYCLE   1            *
         *************************************************************
---------------------------------
CARTESIAN COORDINATES (ANGSTROEM)
---------------------------------
  C     -3.919380    0.927960   -0.126710
  C     -5.157780    0.266640   -0.273330
  C     -5.240840   -1.122890   -0.139180
  C     -4.096420   -1.870900    0.142280
  C     -2.864780   -1.231370    0.290510
  C     -2.774720    0.157280    0.157330
  C     -3.786980    2.438650   -0.265200
  H     -6.064980    0.813120   -0.493330
  H     -6.195220   -1.620520   -0.254150
  H     -4.164150   -2.946180    0.245660
  H     -1.977890   -1.811960    0.509450
  H     -1.808830    0.630950    0.279060
  O     -5.033920    3.038150   -0.525390
  H     -5.545280    3.047940    0.326470
  O     -3.251840    2.970260    0.926370
  H     -3.149770    3.948070    0.786120
  O     -2.935030    2.728150   -1.347950
  H     -1.997180    2.609060   -1.044720

----------------------------
CARTESIAN COORDINATES (A.U.)
----------------------------
  NO LB      ZA    FRAG     MASS         X           Y           Z
   0 C     6.0000    0    12.011   -7.406555    1.753590   -0.239447
   1 C     6.0000    0    12.011   -9.746792    0.503877   -0.516519
   2 C     6.0000    0    12.011   -9.903752   -2.121955   -0.263012
   3 C     6.0000    0    12.011   -7.741112   -3.535489    0.268870
   4 C     6.0000    0    12.011   -5.413650   -2.326952    0.548984
   5 C     6.0000    0    12.011   -5.243461    0.297216    0.297311
   6 C     6.0000    0    12.011   -7.156355    4.608381   -0.501155
   7 H     1.0000    0     1.008  -11.461151    1.536574   -0.932259
   8 H     1.0000    0     1.008  -11.707269   -3.062339   -0.480274
   9 H     1.0000    0     1.008   -7.869103   -5.567473    0.464230
  10 H     1.0000    0     1.008   -3.737670   -3.424108    0.962721
  11 H     1.0000    0     1.008   -3.418193    1.192323    0.527347
  12 O     8.0000    0    15.999   -9.512730    5.741271   -0.992843
  13 H     1.0000    0     1.008  -10.479061    5.759772    0.616939
  14 O     8.0000    0    15.999   -6.145087    5.612978    1.750586
  15 H     1.0000    0     1.008   -5.952203    7.460771    1.485552
  16 O     8.0000    0    15.999   -5.546403    5.155456   -2.547256
  17 H     1.0000    0     1.008   -3.774123    4.930409   -1.974235

--------------------------------
INTERNAL COORDINATES (ANGSTROEM)
--------------------------------
 C      0   0   0     0.000000000000     0.00000000     0.00000000
 C      1   0   0     1.411550965003     0.00000000     0.00000000
 C      2   1   0     1.398459440599   120.50799481     0.00000000
 C      3   2   1     1.395863828638   120.20543662     0.00000000
 C      4   3   2     1.395674691108   119.95835777     0.00000000
 C      5   4   3     1.397925798639   120.12686042     0.00000000
 C      1   2   3     1.522791356752   122.11473637   179.99855578
 H      2   1   3     1.081689525881   121.34840147   180.13631652
 H      3   2   1     1.082448567924   119.93180727   180.04127289
 H      4   3   2     1.082359393039   120.02158209   179.98942256
 H      5   4   3     1.082401655487   119.91847303   179.95691524
 H      6   5   4     1.082647197336   118.77506581   179.85261579
 O      7   1   2     1.407820460748   111.23843683     0.98001790
 H     13   7   1     0.993604726891   107.55268269    75.52113598
 O      7   1   2     1.410256386832   109.27573571   121.84131971
 H     15   7   1     0.993076403657   106.90818511   177.97583918
 O      7   1   2     1.407826912301   109.06025391   242.16736033
 H     17   7   1     0.992820972532   108.18471144   280.68922651

---------------------------
INTERNAL COORDINATES (A.U.)
---------------------------
 C      0   0   0     0.000000000000     0.00000000     0.00000000
 C      1   0   0     2.667444747927     0.00000000     0.00000000
 C      2   1   0     2.642705352129   120.50799481     0.00000000
 C      3   2   1     2.637800356373   120.20543662     0.00000000
 C      4   3   2     2.637442938240   119.95835777     0.00000000
 C      5   4   3     2.641696914971   120.12686042     0.00000000
 C      1   2   3     2.877658623365   122.11473637   179.99855578
 H      2   1   3     2.044096965846   121.34840147   180.13631652
 H      3   2   1     2.045531347431   119.93180727   180.04127289
 H      4   3   2     2.045362831321   120.02158209   179.98942256
 H      5   4   3     2.045442695773   119.91847303   179.95691524
 H      6   5   4     2.045906702623   118.77506581   179.85261579
 O      7   1   2     2.660395116544   111.23843683     0.98001790
 H     13   7   1     1.877640819193   107.55268269    75.52113598
 O      7   1   2     2.664998349725   109.27573571   121.84131971
 H     15   7   1     1.876642432971   106.90818511   177.97583918
 O      7   1   2     2.660407308214   109.06025391   242.16736033
 H     17   7   1     1.876159738099   108.18471144   280.68922651

---------------------
BASIS SET INFORMATION
---------------------
There are 3 groups of distinct atoms

 Group   1 Type C   : 7s4p1d contracted to 3s2p1d pattern {511/31/1}
 Group   2 Type H   : 4s1p contracted to 2s1p pattern {31/1}
 Group   3 Type O   : 7s4p1d contracted to 3s2p1d pattern {511/31/1}

Atom   0C    basis set group =>   1
Atom   1C    basis set group =>   1
Atom   2C    basis set group =>   1
Atom   3C    basis set group =>   1
Atom   4C    basis set group =>   1
Atom   5C    basis set group =>   1
Atom   6C    basis set group =>   1
Atom   7H    basis set group =>   2
Atom   8H    basis set group =>   2
Atom   9H    basis set group =>   2
Atom  10H    basis set group =>   2
Atom  11H    basis set group =>   2
Atom  12O    basis set group =>   3
Atom  13H    basis set group =>   2
Atom  14O    basis set group =>   3
Atom  15H    basis set group =>   2
Atom  16O    basis set group =>   3
Atom  17H    basis set group =>   2
---------------------------------
AUXILIARY/J BASIS SET INFORMATION
---------------------------------
There are 3 groups of distinct atoms

 Group   1 Type C   : 12s5p4d2f1g contracted to 6s4p3d1f1g pattern {711111/2111/211/2/1}
 Group   2 Type H   : 5s2p1d contracted to 3s1p1d pattern {311/2/1}
 Group   3 Type O   : 12s5p4d2f1g contracted to 6s4p3d1f1g pattern {711111/2111/211/2/1}

Atom   0C    basis set group =>   1
Atom   1C    basis set group =>   1
Atom   2C    basis set group =>   1
Atom   3C    basis set group =>   1
Atom   4C    basis set group =>   1
Atom   5C    basis set group =>   1
Atom   6C    basis set group =>   1
Atom   7H    basis set group =>   2
Atom   8H    basis set group =>   2
Atom   9H    basis set group =>   2
Atom  10H    basis set group =>   2
Atom  11H    basis set group =>   2
Atom  12O    basis set group =>   3
Atom  13H    basis set group =>   2
Atom  14O    basis set group =>   3
Atom  15H    basis set group =>   2
Atom  16O    basis set group =>   3
Atom  17H    basis set group =>   2
------------------------------------------------------------------------------
                           ORCA GTO INTEGRAL CALCULATION
                           -- RI-GTO INTEGRALS CHOSEN --
------------------------------------------------------------------------------
------------------------------------------------------------------------------
                   ___                                                        
                  /   \      - P O W E R E D   B Y -                         
                 /     \                                                     
                 |  |  |   _    _      __       _____    __    __             
                 |  |  |  | |  | |    /  \     |  _  \  |  |  /  |          
                  \  \/   | |  | |   /    \    | | | |  |  | /  /          
                 / \  \   | |__| |  /  /\  \   | |_| |  |  |/  /          
                |  |  |   |  __  | /  /__\  \  |    /   |      \           
                |  |  |   | |  | | |   __   |  |    \   |  |\   \          
                \     /   | |  | | |  |  |  |  | |\  \  |  | \   \       
                 \___/    |_|  |_| |__|  |__|  |_| \__\ |__|  \__/        
                                                                              
                      - O R C A' S   B I G   F R I E N D -                    
                                      &                                       
                       - I N T E G R A L  F E E D E R -                       
                                                                              
 v1 FN, 2020, v2 2021                                                         
------------------------------------------------------------------------------


Reading SHARK input file opt.SHARKINP.tmp ... ok
----------------------
SHARK INTEGRAL PACKAGE
----------------------

Number of atoms                             ...     18
Number of basis functions                   ...    180
Number of shells                            ...     84
Maximum angular momentum                    ...      2
Integral batch strategy                     ... SHARK/LIBINT Hybrid
RI-J (if used) integral strategy            ... SPLIT-RIJ (Revised 2003 algorithm where possible)
Printlevel                                  ...      1
Contraction scheme used                     ... SEGMENTED contraction
Coulomb Range Separation                    ... NOT USED
Exchange Range Separation                   ... NOT USED
Finite Nucleus Model                        ... NOT USED
Auxiliary Coulomb fitting basis             ... AVAILABLE
   # of basis functions in Aux-J            ...    578
   # of shells in Aux-J                     ...    190
   Maximum angular momentum in Aux-J        ...      4
Auxiliary J/K fitting basis                 ... NOT available
Auxiliary Correlation fitting basis         ... NOT available
Auxiliary 'external' fitting basis          ... NOT available
Integral threshold                          ...     2.500000e-11
Primitive cut-off                           ...     2.500000e-12
Primitive pair pre-selection threshold      ...     2.500000e-12

Calculating pre-screening integrals         ... done (  0.0 sec) Dimension = 84
Organizing shell pair data                  ... done (  0.0 sec)
Shell pair information
Total number of shell pairs                 ...      3570
Shell pairs after pre-screening             ...      3283
Total number of primitive shell pairs       ...     13034
Primitive shell pairs kept                  ...      8610
          la=0 lb=0:    994 shell pairs
          la=1 lb=0:   1196 shell pairs
          la=1 lb=1:    377 shell pairs
          la=2 lb=0:    414 shell pairs
          la=2 lb=1:    253 shell pairs
          la=2 lb=2:     49 shell pairs

Calculating one electron integrals          ... done (  0.0 sec)
Calculating RI/J V-Matrix + Cholesky decomp.... done (  0.0 sec)
Calculating Nuclear repulsion               ... done (  0.0 sec) ENN=    525.456620402776 Eh

SHARK setup successfully completed in   0.3 seconds

Maximum memory used throughout the entire GTOINT-calculation: 25.7 MB
-------------------------------------------------------------------------------
                                 ORCA SCF
-------------------------------------------------------------------------------

------------
SCF SETTINGS
------------
Hamiltonian:
 Density Functional     Method          .... DFT(GTOs)
 Exchange Functional    Exchange        .... B88
   X-Alpha parameter    XAlpha          ....  0.666667
   Becke's b parameter  XBeta           ....  0.004200
 Correlation Functional Correlation     .... LYP
 LDA part of GGA corr.  LDAOpt          .... VWN-5
 Gradients option       PostSCFGGA      .... off
 Hybrid DFT is turned on
   Fraction HF Exchange ScalHFX         ....  0.200000
   Scaling of DF-GGA-X  ScalDFX         ....  0.720000
   Scaling of DF-GGA-C  ScalDFC         ....  0.810000
   Scaling of DF-LDA-C  ScalLDAC        ....  1.000000
   Perturbative correction              ....  0.000000
   Density functional embedding theory  .... OFF
   NL short-range parameter             ....  4.800000
 RI-approximation to the Coulomb term is turned on
   Number of AuxJ basis functions       .... 578
   RIJ-COSX (HFX calculated with COS-X)).... on


General Settings:
 Integral files         IntName         .... opt
 Hartree-Fock type      HFTyp           .... RHF
 Total Charge           Charge          ....    0
 Multiplicity           Mult            ....    1
 Number of Electrons    NEL             ....   74
 Basis Dimension        Dim             ....  180
 Nuclear Repulsion      ENuc            ....    525.4566204028 Eh

Convergence Acceleration:
 DIIS                   CNVDIIS         .... on
   Start iteration      DIISMaxIt       ....    12
   Startup error        DIISStart       ....  0.200000
   # of expansion vecs  DIISMaxEq       ....     5
   Bias factor          DIISBfac        ....   1.050
   Max. coefficient     DIISMaxC        ....  10.000
 Trust-Rad. Augm. Hess. CNVTRAH         .... auto
   Auto Start mean grad. ratio tolernc. ....  1.125000
   Auto Start start iteration           ....    20
   Auto Start num. interpolation iter.  ....    10
   Max. Number of Micro iterations      ....    16
   Max. Number of Macro iterations      .... Maxiter - #DIIS iter
   Number of Davidson start vectors     ....     2
   Converg. threshold I  (grad. norm)   ....   1.000e-05
   Converg. threshold II (energy diff.) ....   1.000e-08
   Grad. Scal. Fac. for Micro threshold ....   0.100
   Minimum threshold for Micro iter.    ....   0.010
   NR start threshold (gradient norm)   ....   0.001
   Initial trust radius                 ....   0.400
   Minimum AH scaling param. (alpha)    ....   1.000
   Maximum AH scaling param. (alpha)    .... 1000.000
   Orbital update algorithm             .... Taylor
   White noise on init. David. guess    .... on
   Maximum white noise                  ....   0.010
   Quad. conv. algorithm                .... NR
 SOSCF                  CNVSOSCF        .... on
   Start iteration      SOSCFMaxIt      ....   150
   Startup grad/error   SOSCFStart      ....  0.003300
 Level Shifting         CNVShift        .... on
   Level shift para.    LevelShift      ....    0.2500
   Turn off err/grad.   ShiftErr        ....    0.0010
 Zerner damping         CNVZerner       .... off
 Static damping         CNVDamp         .... on
   Fraction old density DampFac         ....    0.7000
   Max. Damping (<1)    DampMax         ....    0.9800
   Min. Damping (>=0)   DampMin         ....    0.0000
   Turn off err/grad.   DampErr         ....    0.1000
 Fernandez-Rico         CNVRico         .... off

SCF Procedure:
 Maximum # iterations   MaxIter         ....   125
 SCF integral mode      SCFMode         .... Direct
   Integral package                     .... SHARK and LIBINT hybrid scheme
 Reset frequency        DirectResetFreq ....    20
 Integral Threshold     Thresh          ....  2.500e-11 Eh
 Primitive CutOff       TCut            ....  2.500e-12 Eh

Convergence Tolerance:
 Convergence Check Mode ConvCheckMode   .... Total+1el-Energy
 Convergence forced     ConvForced      .... 0
 Energy Change          TolE            ....  1.000e-08 Eh
 1-El. energy change                    ....  1.000e-05 Eh
 Orbital Gradient       TolG            ....  1.000e-05
 Orbital Rotation angle TolX            ....  1.000e-05
 DIIS Error             TolErr          ....  5.000e-07


Diagonalization of the overlap matrix:
Smallest eigenvalue                        ... 3.067e-04
Time for diagonalization                   ...    0.009 sec
Threshold for overlap eigenvalues          ... 1.000e-08
Number of eigenvalues below threshold      ... 0
Time for construction of square roots      ...    0.004 sec
Total time needed                          ...    0.013 sec

Time for model grid setup =    0.327 sec

------------------------------
INITIAL GUESS: MODEL POTENTIAL
------------------------------
Loading Hartree-Fock densities                     ... done
Calculating cut-offs                               ... done
Initializing the effective Hamiltonian             ... done
Setting up the integral package (SHARK)            ... done
Starting the Coulomb interaction                   ... done (   0.5 sec)
Reading the grid                                   ... done
Mapping shells                                     ... done
Starting the XC term evaluation                    ... done (   0.9 sec)
  promolecular density results
     # of electrons  =     73.994654262
     EX              =    -62.948333207
     EC              =     -2.543087111
     EX+EC           =    -65.491420318
Transforming the Hamiltonian                       ... done (   0.0 sec)
Diagonalizing the Hamiltonian                      ... done (   0.0 sec)
Back transforming the eigenvectors                 ... done (   0.0 sec)
Now organizing SCF variables                       ... done
                      ------------------
                      INITIAL GUESS DONE (   1.7 sec)
                      ------------------
-------------------
DFT GRID GENERATION
-------------------

General Integration Accuracy     IntAcc      ... 4.388
Radial Grid Type                 RadialGrid  ... OptM3 with GC (2021)
Angular Grid (max. ang.)         AngularGrid ... 4 (Lebedev-302)
Angular grid pruning method      GridPruning ... 4 (adaptive)
Weight generation scheme         WeightScheme... Becke
Basis function cutoff            BFCut       ... 1.0000e-11
Integration weight cutoff        WCut        ... 1.0000e-14
Angular grids for H and He will be reduced by one unit
Partially contracted basis set               ... off
Rotationally invariant grid construction     ... off

Total number of grid points                  ...    85943
Total number of batches                      ...     1350
Average number of points per batch           ...       63
Average number of grid points per atom       ...     4775
Time for grid setup =    2.189 sec

--------------------
COSX GRID GENERATION
--------------------

GRIDX 1
-------
General Integration Accuracy     IntAcc      ... 3.816
Radial Grid Type                 RadialGrid  ... OptM3 with GC (2021)
Angular Grid (max. ang.)         AngularGrid ... 1 (Lebedev-50)
Angular grid pruning method      GridPruning ... 4 (adaptive)
Weight generation scheme         WeightScheme... Becke
Basis function cutoff            BFCut       ... 1.0000e-11
Integration weight cutoff        WCut        ... 1.0000e-14
Angular grids for H and He will be reduced by one unit
Partially contracted basis set               ... on
Rotationally invariant grid construction     ... off

Total number of grid points                  ...    10994
Total number of batches                      ...      179
Average number of points per batch           ...       61
Average number of grid points per atom       ...      611
UseSFitting                                  ... on

GRIDX 2
-------
General Integration Accuracy     IntAcc      ... 4.020
Radial Grid Type                 RadialGrid  ... OptM3 with GC (2021)
Angular Grid (max. ang.)         AngularGrid ... 2 (Lebedev-110)
Angular grid pruning method      GridPruning ... 4 (adaptive)
Weight generation scheme         WeightScheme... Becke
Basis function cutoff            BFCut       ... 1.0000e-11
Integration weight cutoff        WCut        ... 1.0000e-14
Angular grids for H and He will be reduced by one unit
Partially contracted basis set               ... on
Rotationally invariant grid construction     ... off

Total number of grid points                  ...    24049
Total number of batches                      ...      384
Average number of points per batch           ...       62
Average number of grid points per atom       ...     1336
UseSFitting                                  ... on

GRIDX 3
-------
General Integration Accuracy     IntAcc      ... 4.338
Radial Grid Type                 RadialGrid  ... OptM3 with GC (2021)
Angular Grid (max. ang.)         AngularGrid ... 3 (Lebedev-194)
Angular grid pruning method      GridPruning ... 4 (adaptive)
Weight generation scheme         WeightScheme... Becke
Basis function cutoff            BFCut       ... 1.0000e-11
Integration weight cutoff        WCut        ... 1.0000e-14
Angular grids for H and He will be reduced by one unit
Partially contracted basis set               ... on
Rotationally invariant grid construction     ... off

Total number of grid points                  ...    52807
Total number of batches                      ...      836
Average number of points per batch           ...       63
Average number of grid points per atom       ...     2934
UseSFitting                                  ... on

Time for X-Grid setup             =    2.271 sec

--------------
SCF ITERATIONS
--------------
ITER       Energy         Delta-E        Max-DP      RMS-DP      [F,P]     Damp
               ***  Starting incremental Fock matrix formation  ***
  0   -496.2802779615   0.000000000000 0.06956595  0.00284245  0.2361097 0.7000
  1   -496.4250810010  -0.144803039490 0.03957626  0.00185782  0.1070430 0.7000
                               ***Turning on DIIS***
  2   -496.4802049709  -0.055123969930 0.05539733  0.00292779  0.0351660 0.0000
  3   -496.5687296346  -0.088524663640 0.02721209  0.00116657  0.0560105 0.0000
  4   -496.5871390642  -0.018409429591 0.00872402  0.00032829  0.0095186 0.0000
                      *** Initiating the SOSCF procedure ***
                           *** Shutting down DIIS ***
                      *** Re-Reading the Fockian *** 
                      *** Removing any level shift *** 
ITER      Energy       Delta-E        Grad      Rot      Max-DP    RMS-DP
  5   -496.58798295  -0.0008438824  0.000743  0.000743  0.004047  0.000112
               *** Restarting incremental Fock matrix formation ***
  6   -496.58800799  -0.0000250452  0.000243  0.000473  0.001187  0.000054
  7   -496.58800913  -0.0000011392  0.000216  0.000364  0.000781  0.000022
  8   -496.58801136  -0.0000022276  0.000088  0.000240  0.000431  0.000014
  9   -496.58801138  -0.0000000174  0.000070  0.000110  0.000174  0.000005
 10   -496.58801160  -0.0000002235  0.000011  0.000028  0.000077  0.000003
 11   -496.58801160   0.0000000027  0.000013  0.000015  0.000030  0.000001
                  ***Gradient check signals convergence***
              ***Rediagonalizing the Fockian in SOSCF/NRSCF***

               *****************************************************
               *                     SUCCESS                       *
               *           SCF CONVERGED AFTER  12 CYCLES          *
               *****************************************************

Old exchange energy                            =    -12.745940227 Eh
New exchange energy                            =    -12.745985726 Eh
Exchange energy change after final integration =     -0.000045500 Eh
Total energy after final integration           =   -496.588057109 Eh
Final COS-X integration done in                =    14.391 sec

----------------
TOTAL SCF ENERGY
----------------

Total Energy       :         -496.58805711 Eh          -13512.84801 eV

Components:
Nuclear Repulsion  :          525.45662040 Eh           14298.40156 eV
Electronic Energy  :        -1022.04467751 Eh          -27811.24957 eV
One Electron Energy:        -1719.18146221 Eh          -46781.30590 eV
Two Electron Energy:          697.13678470 Eh           18970.05633 eV
Max COSX asymmetry :            0.00000443 Eh               0.00012 eV

Virial components:
Potential Energy   :         -988.71451046 Eh          -26904.28962 eV
Kinetic Energy     :          492.12645335 Eh           13391.44160 eV
Virial Ratio       :            2.00906597


DFT components:
N(Alpha)           :       36.999989549788 electrons
N(Beta)            :       36.999989549788 electrons
N(Total)           :       73.999979099576 electrons
E(X)               :      -50.678432895524 Eh       
E(C)               :       -2.998306328360 Eh       
E(XC)              :      -53.676739223885 Eh       
DFET-embed. en.    :        0.000000000000 Eh       

---------------
SCF CONVERGENCE
---------------

  Last Energy change         ...   -1.2083e-08  Tolerance :   1.0000e-08
  Last MAX-Density change    ...    3.9968e-15  Tolerance :   1.0000e-07
  Last RMS-Density change    ...    5.2962e-17  Tolerance :   5.0000e-09
  Last Orbital Gradient      ...    2.3206e-06  Tolerance :   1.0000e-05
  Last Orbital Rotation      ...    4.8980e-06  Tolerance :   1.0000e-05

             **** THE GBW FILE WAS UPDATED (opt.gbw) ****
             **** DENSITY opt.scfp WAS UPDATED ****
             **** ENERGY FILE WAS UPDATED (opt.en.tmp) ****
             **** THE GBW FILE WAS UPDATED (opt.gbw) ****
             **** DENSITY opt.scfp WAS UPDATED ****
----------------
ORBITAL ENERGIES
----------------

  NO   OCC          E(Eh)            E(eV) 
   0   2.0000     -19.149006      -521.0709 
   1   2.0000     -19.143908      -520.9322 
   2   2.0000     -19.140860      -520.8493 
   3   2.0000     -10.339666      -281.3566 
   4   2.0000     -10.193613      -277.3823 
   5   2.0000     -10.190921      -277.3091 
   6   2.0000     -10.189022      -277.2574 
   7   2.0000     -10.188907      -277.2543 
   8   2.0000     -10.187993      -277.2294 
   9   2.0000     -10.187552      -277.2174 
  10   2.0000      -1.087722       -29.5984 
  11   2.0000      -0.990500       -26.9529 
  12   2.0000      -0.981988       -26.7212 
  13   2.0000      -0.845733       -23.0136 
  14   2.0000      -0.750974       -20.4350 
  15   2.0000      -0.737453       -20.0671 
  16   2.0000      -0.659239       -17.9388 
  17   2.0000      -0.603537       -16.4231 
  18   2.0000      -0.594089       -16.1660 
  19   2.0000      -0.567308       -15.4372 
  20   2.0000      -0.523390       -14.2422 
  21   2.0000      -0.502177       -13.6649 
  22   2.0000      -0.472871       -12.8675 
  23   2.0000      -0.448171       -12.1954 
  24   2.0000      -0.441968       -12.0266 
  25   2.0000      -0.423562       -11.5257 
  26   2.0000      -0.422039       -11.4843 
  27   2.0000      -0.413320       -11.2470 
  28   2.0000      -0.369671       -10.0593 
  29   2.0000      -0.363137        -9.8814 
  30   2.0000      -0.347861        -9.4658 
  31   2.0000      -0.334911        -9.1134 
  32   2.0000      -0.324664        -8.8346 
  33   2.0000      -0.294613        -8.0168 
  34   2.0000      -0.290515        -7.9053 
  35   2.0000      -0.254845        -6.9347 
  36   2.0000      -0.248201        -6.7539 
  37   0.0000      -0.013425        -0.3653 
  38   0.0000      -0.008408        -0.2288 
  39   0.0000       0.033898         0.9224 
  40   0.0000       0.069252         1.8844 
  41   0.0000       0.072018         1.9597 
  42   0.0000       0.077550         2.1103 
  43   0.0000       0.109657         2.9839 
  44   0.0000       0.126170         3.4333 
  45   0.0000       0.142868         3.8876 
  46   0.0000       0.163505         4.4492 
  47   0.0000       0.164800         4.4844 
  48   0.0000       0.209742         5.7074 
  49   0.0000       0.246551         6.7090 
  50   0.0000       0.270356         7.3567 
  51   0.0000       0.287225         7.8158 
  52   0.0000       0.292432         7.9575 
  53   0.0000       0.296628         8.0716 
  54   0.0000       0.311825         8.4852 
  55   0.0000       0.340154         9.2561 
  56   0.0000       0.362787         9.8719 
  57   0.0000       0.413512        11.2522 
  58   0.0000       0.420318        11.4374 
  59   0.0000       0.433558        11.7977 
  60   0.0000       0.440403        11.9840 
  61   0.0000       0.467543        12.7225 
  62   0.0000       0.473843        12.8939 
  63   0.0000       0.491270        13.3681 
  64   0.0000       0.497536        13.5386 
  65   0.0000       0.512774        13.9533 
  66   0.0000       0.539108        14.6699 
  67   0.0000       0.541903        14.7459 
  68   0.0000       0.556512        15.1435 
  69   0.0000       0.563088        15.3224 
  70   0.0000       0.567876        15.4527 
  71   0.0000       0.595589        16.2068 
  72   0.0000       0.604815        16.4579 
  73   0.0000       0.615685        16.7537 
  74   0.0000       0.645034        17.5523 
  75   0.0000       0.659630        17.9494 
  76   0.0000       0.663686        18.0598 
  77   0.0000       0.671003        18.2589 
  78   0.0000       0.687253        18.7011 
  79   0.0000       0.698115        18.9967 
  80   0.0000       0.706861        19.2347 
  81   0.0000       0.730284        19.8720 
  82   0.0000       0.737094        20.0574 
  83   0.0000       0.750104        20.4114 
  84   0.0000       0.772571        21.0227 
  85   0.0000       0.803029        21.8515 
  86   0.0000       0.828195        22.5363 
  87   0.0000       0.847869        23.0717 
  88   0.0000       0.923694        25.1350 
  89   0.0000       0.939819        25.5738 
  90   0.0000       0.974836        26.5266 
  91   0.0000       0.989629        26.9292 
  92   0.0000       1.007074        27.4039 
  93   0.0000       1.041298        28.3352 
  94   0.0000       1.053982        28.6803 
  95   0.0000       1.111583        30.2477 
  96   0.0000       1.135605        30.9014 
  97   0.0000       1.143613        31.1193 
  98   0.0000       1.189326        32.3632 
  99   0.0000       1.215394        33.0725 
 100   0.0000       1.245831        33.9008 
 101   0.0000       1.248217        33.9657 
 102   0.0000       1.256568        34.1929 
 103   0.0000       1.279655        34.8212 
 104   0.0000       1.291781        35.1511 
 105   0.0000       1.299983        35.3743 
 106   0.0000       1.333492        36.2862 
 107   0.0000       1.394808        37.9546 
 108   0.0000       1.413768        38.4706 
 109   0.0000       1.445550        39.3354 
 110   0.0000       1.493449        40.6388 
 111   0.0000       1.499170        40.7945 
 112   0.0000       1.567118        42.6434 
 113   0.0000       1.586123        43.1606 
 114   0.0000       1.607155        43.7329 
 115   0.0000       1.639991        44.6264 
 116   0.0000       1.687076        45.9077 
 117   0.0000       1.698279        46.2125 
 118   0.0000       1.713760        46.6338 
 119   0.0000       1.721508        46.8446 
 120   0.0000       1.749278        47.6003 
 121   0.0000       1.751521        47.6613 
 122   0.0000       1.756433        47.7950 
 123   0.0000       1.760714        47.9115 
 124   0.0000       1.778850        48.4050 
 125   0.0000       1.791782        48.7569 
 126   0.0000       1.836033        49.9610 
 127   0.0000       1.846399        50.2431 
 128   0.0000       1.867934        50.8291 
 129   0.0000       1.906539        51.8796 
 130   0.0000       1.930996        52.5451 
 131   0.0000       1.950740        53.0823 
 132   0.0000       1.954171        53.1757 
 133   0.0000       1.987666        54.0871 
 134   0.0000       1.990324        54.1595 
 135   0.0000       2.003230        54.5107 
 136   0.0000       2.021911        55.0190 
 137   0.0000       2.075159        56.4680 
 138   0.0000       2.121714        57.7348 
 139   0.0000       2.134853        58.0923 
 140   0.0000       2.144243        58.3478 
 141   0.0000       2.157992        58.7219 
 142   0.0000       2.175019        59.1853 
 143   0.0000       2.181306        59.3564 
 144   0.0000       2.195089        59.7314 
 145   0.0000       2.297671        62.5228 
 146   0.0000       2.302851        62.6638 
 147   0.0000       2.309912        62.8559 
 148   0.0000       2.319727        63.1230 
 149   0.0000       2.341667        63.7200 
 150   0.0000       2.355165        64.0873 
 151   0.0000       2.505583        68.1804 
 152   0.0000       2.541505        69.1579 
 153   0.0000       2.619050        71.2680 
 154   0.0000       2.623615        71.3922 
 155   0.0000       2.643173        71.9244 
 156   0.0000       2.713970        73.8509 
 157   0.0000       2.742482        74.6267 
 158   0.0000       2.747179        74.7545 
 159   0.0000       2.835226        77.1504 
 160   0.0000       2.857412        77.7541 
 161   0.0000       2.872130        78.1546 
 162   0.0000       2.884278        78.4852 
 163   0.0000       2.900769        78.9339 
 164   0.0000       2.923868        79.5625 
 165   0.0000       2.962979        80.6268 
 166   0.0000       2.983992        81.1985 
 167   0.0000       3.016112        82.0726 
 168   0.0000       3.054503        83.1173 
 169   0.0000       3.118288        84.8529 
 170   0.0000       3.147658        85.6521 
 171   0.0000       3.171847        86.3103 
 172   0.0000       3.241404        88.2031 
 173   0.0000       3.329014        90.5871 
 174   0.0000       3.362752        91.5051 
 175   0.0000       3.416644        92.9716 
 176   0.0000       3.626467        98.6812 
 177   0.0000       3.722421       101.2922 
 178   0.0000       3.734133       101.6109 
 179   0.0000       3.754454       102.1639 

                    ********************************
                    * MULLIKEN POPULATION ANALYSIS *
                    ********************************

-----------------------
MULLIKEN ATOMIC CHARGES
-----------------------
   0 C :    0.024477
   1 C :   -0.006007
   2 C :    0.027132
   3 C :    0.028797
   4 C :    0.023856
   5 C :   -0.001063
   6 C :    0.318217
   7 H :   -0.032455
   8 H :   -0.022809
   9 H :   -0.021852
  10 H :   -0.023097
  11 H :   -0.039627
  12 O :   -0.271274
  13 H :    0.185381
  14 O :   -0.273016
  15 H :    0.170285
  16 O :   -0.270073
  17 H :    0.183126
Sum of atomic charges:    0.0000000

--------------------------------
MULLIKEN REDUCED ORBITAL CHARGES
--------------------------------
  0 C s       :     3.063799  s :     3.063799
      pz      :     0.978860  p :     2.873944
      px      :     0.932157
      py      :     0.962927
      dz2     :     0.003487  d :     0.037780
      dxz     :     0.006413
      dyz     :     0.003677
      dx2y2   :     0.013314
      dxy     :     0.010889
  1 C s       :     3.224872  s :     3.224872
      pz      :     0.979929  p :     2.747137
      px      :     0.880799
      py      :     0.886408
      dz2     :     0.002599  d :     0.033998
      dxz     :     0.003689
      dyz     :     0.005393
      dx2y2   :     0.010421
      dxy     :     0.011896
  2 C s       :     3.156343  s :     3.156343
      pz      :     0.983564  p :     2.781505
      px      :     0.861128
      py      :     0.936813
      dz2     :     0.002815  d :     0.035020
      dxz     :     0.003276
      dyz     :     0.005671
      dx2y2   :     0.011125
      dxy     :     0.012132
  3 C s       :     3.154436  s :     3.154436
      pz      :     0.981250  p :     2.781665
      px      :     0.963170
      py      :     0.837245
      dz2     :     0.002831  d :     0.035101
      dxz     :     0.006306
      dyz     :     0.002655
      dx2y2   :     0.012938
      dxy     :     0.010370
  4 C s       :     3.156681  s :     3.156681
      pz      :     0.981760  p :     2.784392
      px      :     0.877158
      py      :     0.925474
      dz2     :     0.002531  d :     0.035071
      dxz     :     0.003834
      dyz     :     0.005424
      dx2y2   :     0.010828
      dxy     :     0.012453
  5 C s       :     3.219521  s :     3.219521
      pz      :     0.984165  p :     2.747482
      px      :     0.853799
      py      :     0.909518
      dz2     :     0.002881  d :     0.034060
      dxz     :     0.003144
      dyz     :     0.005731
      dx2y2   :     0.010546
      dxy     :     0.011758
  6 C s       :     2.960544  s :     2.960544
      pz      :     0.781662  p :     2.581009
      px      :     0.829079
      py      :     0.970269
      dz2     :     0.029889  d :     0.140230
      dxz     :     0.034755
      dyz     :     0.023044
      dx2y2   :     0.028239
      dxy     :     0.024303
  7 H s       :     1.008839  s :     1.008839
      pz      :     0.005321  p :     0.023617
      px      :     0.011229
      py      :     0.007066
  8 H s       :     0.999644  s :     0.999644
      pz      :     0.004878  p :     0.023165
      px      :     0.012400
      py      :     0.005887
  9 H s       :     0.998673  s :     0.998673
      pz      :     0.004865  p :     0.023179
      px      :     0.003525
      py      :     0.014789
 10 H s       :     0.999923  s :     0.999923
      pz      :     0.005228  p :     0.023173
      px      :     0.011186
      py      :     0.006759
 11 H s       :     1.016306  s :     1.016306
      pz      :     0.005186  p :     0.023321
      px      :     0.012433
      py      :     0.005702
 12 O s       :     3.731146  s :     3.731146
      pz      :     1.446541  p :     4.527977
      px      :     1.307144
      py      :     1.774292
      dz2     :     0.003661  d :     0.012151
      dxz     :     0.003196
      dyz     :     0.001280
      dx2y2   :     0.001647
      dxy     :     0.002366
 13 H s       :     0.749735  s :     0.749735
      pz      :     0.028335  p :     0.064884
      px      :     0.019486
      py      :     0.017063
 14 O s       :     3.724282  s :     3.724282
      pz      :     1.515727  p :     4.536562
      px      :     1.777689
      py      :     1.243147
      dz2     :     0.004069  d :     0.012172
      dxz     :     0.002614
      dyz     :     0.002404
      dx2y2   :     0.002645
      dxy     :     0.000438
 15 H s       :     0.766260  s :     0.766260
      pz      :     0.012938  p :     0.063455
      px      :     0.016386
      py      :     0.034132
 16 O s       :     3.731914  s :     3.731914
      pz      :     1.526035  p :     4.526063
      px      :     1.153046
      py      :     1.846982
      dz2     :     0.003001  d :     0.012096
      dxz     :     0.004623
      dyz     :     0.002109
      dx2y2   :     0.001486
      dxy     :     0.000877
 17 H s       :     0.752216  s :     0.752216
      pz      :     0.013963  p :     0.064658
      px      :     0.032583
      py      :     0.018112


                     *******************************
                     * LOEWDIN POPULATION ANALYSIS *
                     *******************************

----------------------
LOEWDIN ATOMIC CHARGES
----------------------
   0 C :   -0.046268
   1 C :   -0.019196
   2 C :   -0.021789
   3 C :   -0.022337
   4 C :   -0.022334
   5 C :   -0.013851
   6 C :    0.132686
   7 H :    0.021350
   8 H :    0.025066
   9 H :    0.024369
  10 H :    0.024815
  11 H :    0.017580
  12 O :   -0.121638
  13 H :    0.099109
  14 O :   -0.137601
  15 H :    0.087505
  16 O :   -0.122340
  17 H :    0.094874

-------------------------------
LOEWDIN REDUCED ORBITAL CHARGES
-------------------------------
  0 C s       :     2.874973  s :     2.874973
      pz      :     0.968445  p :     3.071450
      px      :     1.075124
      py      :     1.027881
      dz2     :     0.008256  d :     0.099845
      dxz     :     0.013756
      dyz     :     0.007766
      dx2y2   :     0.037728
      dxy     :     0.032337
  1 C s       :     2.861760  s :     2.861760
      pz      :     0.972503  p :     3.068617
      px      :     1.039547
      py      :     1.056567
      dz2     :     0.006128  d :     0.088819
      dxz     :     0.007457
      dyz     :     0.011463
      dx2y2   :     0.030067
      dxy     :     0.033705
  2 C s       :     2.859475  s :     2.859475
      pz      :     0.969850  p :     3.071463
      px      :     1.042023
      py      :     1.059590
      dz2     :     0.006711  d :     0.090851
      dxz     :     0.006664
      dyz     :     0.012476
      dx2y2   :     0.031435
      dxy     :     0.033565
  3 C s       :     2.859578  s :     2.859578
      pz      :     0.969122  p :     3.071803
      px      :     1.065265
      py      :     1.037416
      dz2     :     0.006749  d :     0.090956
      dxz     :     0.014097
      dyz     :     0.005029
      dx2y2   :     0.035349
      dxy     :     0.029731
  4 C s       :     2.858927  s :     2.858927
      pz      :     0.971018  p :     3.072548
      px      :     1.045674
      py      :     1.055855
      dz2     :     0.006138  d :     0.090859
      dxz     :     0.007877
      dyz     :     0.011636
      dx2y2   :     0.030835
      dxy     :     0.034374
  5 C s       :     2.859299  s :     2.859299
      pz      :     0.973254  p :     3.064809
      px      :     1.035782
      py      :     1.055773
      dz2     :     0.006719  d :     0.089743
      dxz     :     0.006387
      dyz     :     0.012416
      dx2y2   :     0.030786
      dxy     :     0.033435
  6 C s       :     2.838771  s :     2.838771
      pz      :     0.866702  p :     2.735963
      px      :     0.856454
      py      :     1.012807
      dz2     :     0.064976  d :     0.292580
      dxz     :     0.073294
      dyz     :     0.043704
      dx2y2   :     0.063157
      dxy     :     0.047450
  7 H s       :     0.907329  s :     0.907329
      pz      :     0.016154  p :     0.071321
      px      :     0.033634
      py      :     0.021533
  8 H s       :     0.906704  s :     0.906704
      pz      :     0.014854  p :     0.068231
      px      :     0.035419
      py      :     0.017958
  9 H s       :     0.907317  s :     0.907317
      pz      :     0.014775  p :     0.068313
      px      :     0.011761
      py      :     0.041777
 10 H s       :     0.906931  s :     0.906931
      pz      :     0.015781  p :     0.068254
      px      :     0.032152
      py      :     0.020322
 11 H s       :     0.913280  s :     0.913280
      pz      :     0.015332  p :     0.069140
      px      :     0.036061
      py      :     0.017747
 12 O s       :     3.462311  s :     3.462311
      pz      :     1.523808  p :     4.636378
      px      :     1.358353
      py      :     1.754218
      dz2     :     0.006710  d :     0.022948
      dxz     :     0.006845
      dyz     :     0.001114
      dx2y2   :     0.003442
      dxy     :     0.004837
 13 H s       :     0.734014  s :     0.734014
      pz      :     0.078833  p :     0.166877
      px      :     0.044666
      py      :     0.043378
 14 O s       :     3.471370  s :     3.471370
      pz      :     1.558067  p :     4.642531
      px      :     1.764299
      py      :     1.320165
      dz2     :     0.007448  d :     0.023700
      dxz     :     0.004352
      dyz     :     0.004500
      dx2y2   :     0.006486
      dxy     :     0.000913
 15 H s       :     0.745494  s :     0.745494
      pz      :     0.035161  p :     0.167001
      px      :     0.043170
      py      :     0.088670
 16 O s       :     3.461690  s :     3.461690
      pz      :     1.579627  p :     4.637742
      px      :     1.244099
      py      :     1.814016
      dz2     :     0.004857  d :     0.022908
      dxz     :     0.009579
      dyz     :     0.002673
      dx2y2   :     0.004105
      dxy     :     0.001695
 17 H s       :     0.736890  s :     0.736890
      pz      :     0.040622  p :     0.168236
      px      :     0.080774
      py      :     0.046840


                      *****************************
                      * MAYER POPULATION ANALYSIS *
                      *****************************

  NA   - Mulliken gross atomic population
  ZA   - Total nuclear charge
  QA   - Mulliken gross atomic charge
  VA   - Mayer's total valence
  BVA  - Mayer's bonded valence
  FA   - Mayer's free valence

  ATOM       NA         ZA         QA         VA         BVA        FA
  0 C      5.9755     6.0000     0.0245     3.7459     3.7459     0.0000
  1 C      6.0060     6.0000    -0.0060     3.8924     3.8924     0.0000
  2 C      5.9729     6.0000     0.0271     3.8407     3.8407    -0.0000
  3 C      5.9712     6.0000     0.0288     3.8374     3.8374    -0.0000
  4 C      5.9761     6.0000     0.0239     3.8542     3.8542     0.0000
  5 C      6.0011     6.0000    -0.0011     3.8877     3.8877     0.0000
  6 C      5.6818     6.0000     0.3182     4.3366     4.3366     0.0000
  7 H      1.0325     1.0000    -0.0325     1.0120     1.0120    -0.0000
  8 H      1.0228     1.0000    -0.0228     0.9770     0.9770    -0.0000
  9 H      1.0219     1.0000    -0.0219     0.9769     0.9769    -0.0000
 10 H      1.0231     1.0000    -0.0231     0.9767     0.9767     0.0000
 11 H      1.0396     1.0000    -0.0396     0.9926     0.9926     0.0000
 12 O      8.2713     8.0000    -0.2713     2.1193     2.1193    -0.0000
 13 H      0.8146     1.0000     0.1854     1.0192     1.0192    -0.0000
 14 O      8.2730     8.0000    -0.2730     2.1142     2.1142    -0.0000
 15 H      0.8297     1.0000     0.1703     1.0354     1.0354     0.0000
 16 O      8.2701     8.0000    -0.2701     2.0891     2.0891    -0.0000
 17 H      0.8169     1.0000     0.1831     1.0245     1.0245    -0.0000

  Mayer bond orders larger than 0.100000
B(  0-C ,  1-C ) :   1.4179 B(  0-C ,  5-C ) :   1.3646 B(  0-C ,  6-C ) :   0.8983 
B(  1-C ,  2-C ) :   1.3704 B(  1-C ,  7-H ) :   0.9811 B(  2-C ,  3-C ) :   1.3916 
B(  2-C ,  8-H ) :   0.9840 B(  3-C ,  4-C ) :   1.3805 B(  3-C ,  9-H ) :   0.9861 
B(  4-C ,  5-C ) :   1.3945 B(  4-C , 10-H ) :   0.9847 B(  5-C , 11-H ) :   0.9863 
B(  6-C , 12-O ) :   1.0946 B(  6-C , 14-O ) :   1.1596 B(  6-C , 16-O ) :   1.0855 
B( 12-O , 13-H ) :   0.9508 B( 14-O , 15-H ) :   0.9539 B( 16-O , 17-H ) :   0.9537 


-------
TIMINGS
-------

Total SCF time: 0 days 0 hours 1 min 48 sec 

Total time                  ....     108.421 sec
Sum of individual times     ....     107.963 sec  ( 99.6%)

Fock matrix formation       ....     101.508 sec  ( 93.6%)
  Split-RI-J                ....       9.802 sec  (  9.7% of F)
  Chain of spheres X        ....      77.793 sec  ( 76.6% of F)
  XC integration            ....      13.794 sec  ( 13.6% of F)
    Basis function eval.    ....       5.313 sec  ( 38.5% of XC)
    Density eval.           ....       3.731 sec  ( 27.0% of XC)
    XC-Functional eval.     ....       1.007 sec  (  7.3% of XC)
    XC-Potential eval.      ....       2.948 sec  ( 21.4% of XC)
Diagonalization             ....       0.059 sec  (  0.1%)
Density matrix formation    ....       0.009 sec  (  0.0%)
Population analysis         ....       0.032 sec  (  0.0%)
Initial guess               ....       1.395 sec  (  1.3%)
Orbital Transformation      ....       0.000 sec  (  0.0%)
Orbital Orthonormalization  ....       0.000 sec  (  0.0%)
DIIS solution               ....       0.121 sec  (  0.1%)
SOSCF solution              ....       0.052 sec  (  0.0%)
Grid generation             ....       4.787 sec  (  4.4%)

Maximum memory used throughout the entire SCF-calculation: 76.1 MB


-------------------------------------------------------------------------------
                          DFT DISPERSION CORRECTION                            
                                                                               
                                 DFTD4 V2.5                                    
-------------------------------------------------------------------------------
The B3LYP functional is recognized
Active option DFTDOPT                   ...         5   

Starting D4
-------------------------   ----------------
Dispersion correction           -0.029722494
-------------------------   ----------------


-------------------------   --------------------
FINAL SINGLE POINT ENERGY      -496.617779602433
-------------------------   --------------------

------------------------------------------------------------------------------
                         ORCA SCF GRADIENT CALCULATION
------------------------------------------------------------------------------

 ... reading COSX grid (gridx3)
Gradient of the Kohn-Sham DFT energy:
Kohn-Sham wavefunction type      ... RKS
Hartree-Fock exchange scaling    ...    0.200
Number of operators              ...    1
Number of atoms                  ...   18
Basis set dimensions             ...  180
Integral neglect threshold       ... 2.5e-11
Integral primitive cutoff        ... 2.5e-12
SHARK Integral package           ... ON

Nuc. rep. gradient       (SHARK) ... done (  0.0 sec)
HCore & Overlap gradient (SHARK) ... done (  0.3 sec)
RI-J gradient            (SHARK) ... done (  2.4 sec)
COSX-gradient                    ... done ( 18.7 sec)
Exchange-correlation gradient    ... done
Dispersion correction            ... Starting D4


------------------- 
Dispersion Gradient 
------------------- 
   1  :    0.000000702    0.000168427   -0.000034267
   2  :   -0.000595377   -0.000297175   -0.000083369
   3  :   -0.000455652   -0.000464538   -0.000033259
   4  :   -0.000037854   -0.000547196    0.000052697
   5  :    0.000389860   -0.000521317    0.000128222
   6  :    0.000506472   -0.000346386    0.000128259
   7  :    0.000046016    0.000530502   -0.000043957
   8  :   -0.000239776    0.000012830   -0.000051390
   9  :   -0.000160898   -0.000102071   -0.000017940
  10  :   -0.000011224   -0.000175830    0.000016914
  11  :    0.000147600   -0.000118800    0.000039417
  12  :    0.000241671   -0.000037475    0.000052590
  13  :   -0.000336378    0.000494627   -0.000078483
  14  :   -0.000086218    0.000142795    0.000017844
  15  :    0.000166098    0.000525296    0.000332851
  16  :    0.000028122    0.000151549    0.000044400
  17  :    0.000305538    0.000466193   -0.000382661
  18  :    0.000091298    0.000118568   -0.000087869

  |G| =    0.001926563

done

------------------
CARTESIAN GRADIENT
------------------

   1   C   :    0.002394123    0.011654078   -0.008815494
   2   C   :   -0.011481917    0.001026638   -0.002221708
   3   C   :   -0.009231490   -0.003926501   -0.000917781
   4   C   :    0.001137393   -0.004764133    0.000659904
   5   C   :    0.005011187   -0.007237563    0.002050061
   6   C   :    0.010784623    0.003867760    0.001442898
   7   C   :    0.001488818   -0.003304183   -0.004155872
   8   H   :    0.002853144   -0.007030759    0.002013920
   9   H   :    0.006789320    0.002800031    0.001000569
  10   H   :    0.000414094    0.007633388   -0.000759986
  11   H   :   -0.006382153    0.003585816   -0.001569875
  12   H   :   -0.005643168   -0.004746991   -0.001422478
  13   O   :   -0.000152906   -0.003721138   -0.009335062
  14   H   :   -0.015907714    0.002946292    0.020041659
  15   O   :   -0.002834265   -0.011596266    0.002568426
  16   H   :    0.003334376    0.020265472    0.000022014
  17   O   :   -0.008099182   -0.007535260   -0.005404542
  18   H   :    0.025553880   -0.000070770    0.004894271

Difference to translation invariance:
           :    0.0000281637   -0.0001540904    0.0000909239

Difference to rotation invariance:
           :    0.0005557429    0.0006712133    0.0002668324

Norm of the cartesian gradient     ...    0.0563946674
RMS gradient                       ...    0.0076743422
MAX gradient                       ...    0.0255538803

-------
TIMINGS
-------

Total SCF gradient time            ...       29.913 sec

One electron gradient       ....       0.305 sec  (  1.0%)
RI-J Coulomb gradient       ....       2.368 sec  (  7.9%)
COSX gradient               ....      18.684 sec  ( 62.5%)
XC gradient                 ....       7.779 sec  ( 26.0%)

Maximum memory used throughout the entire SCFGRAD-calculation: 61.3 MB
------------------------------------------------------------------------------
                         ORCA GEOMETRY RELAXATION STEP
------------------------------------------------------------------------------

Reading the OPT-File                    .... done
Getting information on internals        .... done
Copying old internal coords+grads       .... done
Making the new internal coordinates     .... (new redundants).... done
Validating the new internal coordinates .... (new redundants).... done
Calculating the B-matrix                .... done
Calculating the G,G- and P matrices     .... done
Transforming gradient to internals      .... done
Projecting the internal gradient        .... done
Number of atoms                         ....  18
Number of internal coordinates          ....  84
Current Energy                          ....  -496.617779602 Eh
Current gradient norm                   ....     0.056394667 Eh/bohr
Maximum allowed component of the step   ....  0.300
Current trust radius                    ....  0.300
Evaluating the initial hessian          ....  (Almloef) done
Projecting the Hessian                  .... done
Forming the augmented Hessian           .... done
Diagonalizing the augmented Hessian     .... done
Last element of RFO vector              ....  0.975736137
Lowest eigenvalues of augmented Hessian:
 -0.009020886  0.011350635  0.018283498  0.021392381  0.021794544
Length of the computed step             ....  0.224394420
The final length of the internal step   ....  0.224394420
Converting the step to cartesian space:
 Initial RMS(Int)=    0.0244834384
Transforming coordinates:
 Iter   0:  RMS(Cart)=    0.0580859125 RMS(Int)=    0.6845730208
 Iter   1:  RMS(Cart)=    0.0014727226 RMS(Int)=    0.0008840606
 Iter   2:  RMS(Cart)=    0.0000781708 RMS(Int)=    0.0000406028
 Iter   3:  RMS(Cart)=    0.0000046967 RMS(Int)=    0.0000032366
 Iter   4:  RMS(Cart)=    0.0000002785 RMS(Int)=    0.0000001677
 Iter   5:  RMS(Cart)=    0.0000000170 RMS(Int)=    0.0000000137
done
Storing new coordinates                 .... done

                                .--------------------.
          ----------------------|Geometry convergence|-------------------------
          Item                value                   Tolerance       Converged
          ---------------------------------------------------------------------
          RMS gradient        0.0063855436            0.0001000000      NO
          MAX gradient        0.0256302340            0.0003000000      NO
          RMS step            0.0244834384            0.0020000000      NO
          MAX step            0.0825965016            0.0040000000      NO
          ........................................................
          Max(Bonds)      0.0289      Max(Angles)    3.45
          Max(Dihed)        4.73      Max(Improp)    0.00
          ---------------------------------------------------------------------

The optimization has not yet converged - more geometry cycles are needed


    ---------------------------------------------------------------------------
                         Redundant Internal Coordinates
                            (Angstroem and degrees)

        Definition                    Value    dE/dq     Step     New-Value
    ----------------------------------------------------------------------------
     1. B(C   1,C   0)                1.4116  0.011984 -0.0111    1.4005   
     2. B(C   2,C   1)                1.3985 -0.000133  0.0001    1.3986   
     3. B(C   3,C   2)                1.3959 -0.000344  0.0005    1.3964   
     4. B(C   4,C   3)                1.3957 -0.001640  0.0016    1.3973   
     5. B(C   5,C   4)                1.3979  0.002158 -0.0018    1.3961   
     6. B(C   5,C   0)                1.4089  0.005663 -0.0053    1.4036   
     7. B(C   6,C   0)                1.5228 -0.003419  0.0046    1.5274   
     8. B(H   7,C   1)                1.0817 -0.006352  0.0088    1.0905   
     9. B(H   8,C   2)                1.0824 -0.007386  0.0103    1.0928   
    10. B(H   9,C   3)                1.0824 -0.007691  0.0107    1.0931   
    11. B(H  10,C   4)                1.0824 -0.007472  0.0104    1.0928   
    12. B(H  11,C   5)                1.0826 -0.007265  0.0101    1.0928   
    13. B(O  12,C   6)                1.4078  0.011943 -0.0119    1.3960   
    14. B(H  13,O  12)                0.9936  0.025393 -0.0287    0.9649   
    15. B(O  14,C   6)                1.4103  0.005626 -0.0056    1.4046   
    16. B(H  15,O  14)                0.9931  0.020308 -0.0229    0.9702   
    17. B(O  16,C   6)                1.4078  0.009400 -0.0093    1.3985   
    18. B(H  17,O  16)                0.9928  0.025630 -0.0289    0.9640   
    19. A(C   1,C   0,C   6)          122.11  0.003252   -0.42    121.70   
    20. A(C   1,C   0,C   5)          118.52 -0.002628    0.28    118.80   
    21. A(C   5,C   0,C   6)          119.37 -0.000624    0.13    119.50   
    22. A(C   2,C   1,H   7)          118.14 -0.004491    0.74    118.88   
    23. A(C   0,C   1,C   2)          120.51 -0.000324    0.00    120.51   
    24. A(C   0,C   1,H   7)          121.35  0.004816   -0.74    120.61   
    25. A(C   1,C   2,C   3)          120.21 -0.000115    0.05    120.25   
    26. A(C   3,C   2,H   8)          119.86 -0.000646    0.09    119.95   
    27. A(C   1,C   2,H   8)          119.93  0.000762   -0.14    119.80   
    28. A(C   4,C   3,H   9)          120.02 -0.001349    0.15    120.17   
    29. A(C   2,C   3,C   4)          119.96  0.002816   -0.31    119.64   
    30. A(C   2,C   3,H   9)          120.02 -0.001466    0.17    120.19   
    31. A(C   3,C   4,H  10)          119.92 -0.000952    0.12    120.04   
    32. A(C   3,C   4,C   5)          120.13  0.000929   -0.09    120.04   
    33. A(C   5,C   4,H  10)          119.95  0.000023   -0.03    119.92   
    34. A(C   4,C   5,H  11)          118.78 -0.001330    0.23    119.01   
    35. A(C   0,C   5,H  11)          120.54  0.002007   -0.30    120.25   
    36. A(C   0,C   5,C   4)          120.68 -0.000676    0.06    120.74   
    37. A(O  14,C   6,O  16)          110.04 -0.003989    0.63    110.67   
    38. A(O  12,C   6,O  16)          107.84  0.015500   -3.45    104.39   
    39. A(C   0,C   6,O  16)          109.06 -0.009147    1.71    110.77   
    40. A(O  12,C   6,O  14)          109.37 -0.005702    0.96    110.34   
    41. A(C   0,C   6,O  14)          109.28  0.010716   -1.33    107.95   
    42. A(C   0,C   6,O  12)          111.24 -0.007492    1.47    112.71   
    43. A(C   6,O  12,H  13)          107.55  0.007869   -1.25    106.30   
    44. A(C   6,O  14,H  15)          106.91  0.005894   -0.94    105.97   
    45. A(C   6,O  16,H  17)          108.18  0.007289   -1.16    107.03   
    46. D(C   2,C   1,C   0,C   5)     -0.03  0.000188   -0.28     -0.31   
    47. D(C   2,C   1,C   0,C   6)    180.00  0.000496   -0.93    179.07   
    48. D(H   7,C   1,C   0,C   6)      0.13 -0.000109    0.12      0.25   
    49. D(H   7,C   1,C   0,C   5)   -179.89 -0.000416    0.77   -179.12   
    50. D(C   3,C   2,C   1,C   0)      0.02 -0.000179    0.29      0.32   
    51. D(C   3,C   2,C   1,H   7)    179.89  0.000419   -0.73    179.16   
    52. D(H   8,C   2,C   1,H   7)     -0.09  0.000345   -0.60     -0.69   
    53. D(H   8,C   2,C   1,C   0)   -179.96 -0.000253    0.42   -179.54   
    54. D(H   9,C   3,C   2,H   8)     -0.03  0.000127   -0.22     -0.25   
    55. D(H   9,C   3,C   2,C   1)    179.99  0.000053   -0.09    179.90   
    56. D(C   4,C   3,C   2,H   8)    179.98  0.000142   -0.25    179.73   
    57. D(C   4,C   3,C   2,C   1)     -0.00  0.000068   -0.13     -0.13   
    58. D(C   5,C   4,C   3,H   9)    179.99  0.000045   -0.08    179.91   
    59. D(H  10,C   4,C   3,C   2)    179.96  0.000102   -0.16    179.80   
    60. D(C   5,C   4,C   3,C   2)     -0.02  0.000030   -0.05     -0.06   
    61. D(H  10,C   4,C   3,H   9)     -0.03  0.000117   -0.19     -0.23   
    62. D(H  11,C   5,C   4,H  10)     -0.12  0.000217   -0.37     -0.49   
    63. D(C   0,C   5,C   4,H  10)   -179.96 -0.000091    0.16   -179.80   
    64. D(C   0,C   5,C   4,C   3)      0.01 -0.000019    0.05      0.06   
    65. D(H  11,C   5,C   0,C   6)      0.15 -0.000696    1.28      1.43   
    66. D(H  11,C   5,C   0,C   1)   -179.83 -0.000398    0.65   -179.18   
[...]
     14       0.025261   0.049237  -0.118444   0.023239  -0.022995  -0.031046
     15       0.048505  -0.081445   0.167148   0.055954   0.005605   0.007547
     16       0.110505   0.064821  -0.113267  -0.305048   0.002183   0.002740
     17       0.018884  -0.062838   0.127032   0.076481   0.003484   0.004720
     18       0.037967  -0.000446   0.037025  -0.001426  -0.000034   0.000172
     19      -0.026294   0.076852  -0.011072  -0.047486  -0.000072  -0.000070
     20       0.030183  -0.006524   0.027983   0.003410  -0.000022   0.000142
     21       0.153331  -0.166978  -0.024002   0.251507   0.101918  -0.167546
     22       0.061595  -0.413194  -0.272304   0.283342  -0.078060   0.127958
     23       0.099871  -0.065834   0.017177   0.139878   0.079505  -0.130661
     24       0.219904   0.122056  -0.068981   0.180354  -0.387287   0.510523
     25      -0.314254  -0.439950  -0.234387  -0.230650  -0.245355   0.321547
     26       0.189426   0.139724  -0.016234   0.152258  -0.230794   0.304475
     27       0.535604  -0.041694  -0.381264  -0.000729   0.050223  -0.001360
     28      -0.019407  -0.140093   0.019304  -0.163556   0.647467   0.028109
     29       0.364327  -0.010313  -0.260003   0.021068  -0.048606  -0.004512
     30       0.250565  -0.204479  -0.019929  -0.199246   0.355710   0.460828
     31       0.247201  -0.427894   0.265431  -0.214707  -0.269857  -0.347973
     32       0.137505  -0.083148  -0.047628  -0.106820   0.273793   0.354495
     33       0.172382   0.085011   0.016930  -0.188379  -0.068765  -0.090795
     34      -0.149616  -0.378087   0.296048   0.275487  -0.043020  -0.056424
     35       0.133937   0.103148  -0.023216  -0.160193  -0.040481  -0.053520
     36      -0.006512   0.003407  -0.003641   0.000353   0.000006  -0.000054
     37       0.005115  -0.006761  -0.001664   0.001228   0.000048  -0.000004
     38      -0.004277   0.001563  -0.003791  -0.000911  -0.000017  -0.000002
     39       0.051910  -0.042204   0.021756   0.014121   0.000072   0.000164
     40      -0.039682   0.025904  -0.013609  -0.007051  -0.000280  -0.000002
     41      -0.016551   0.009813  -0.005612  -0.001859   0.000193  -0.000047
     42      -0.008345   0.005105  -0.004687  -0.002751   0.000002  -0.000037
     43       0.012004  -0.008723   0.010499   0.004248   0.000042   0.000118
     44      -0.005397   0.002615  -0.003748  -0.001507  -0.000011  -0.000043
     45       0.109111  -0.102364   0.053355   0.041988  -0.000222  -0.000156
     46       0.014430  -0.008638   0.011732   0.003348   0.000220  -0.000119
     47       0.049945  -0.045445   0.022278   0.017521  -0.000132  -0.000095
     48      -0.005545   0.002780  -0.004250  -0.000221   0.000006  -0.000056
     49       0.003026  -0.006109  -0.004014   0.001604   0.000060  -0.000046
     50      -0.004339   0.002308  -0.001126   0.000555   0.000017  -0.000063
     51       0.012318  -0.015666   0.005196   0.006560   0.000161   0.000097
     52      -0.023260   0.018178  -0.005883  -0.004376  -0.000260   0.000093
     53       0.038026  -0.038401   0.012201   0.011786  -0.000028   0.000094
                 48         49         50         51         52         53    
      0       0.000626  -0.002262  -0.001930  -0.000094  -0.000075  -0.000198
      1       0.000788  -0.001643   0.001959  -0.000442   0.000029  -0.000013
      2       0.000323  -0.001323  -0.001626   0.000029   0.000363   0.000264
      3      -0.021922   0.051768  -0.001571  -0.000049  -0.000002  -0.000006
      4       0.015258  -0.042223   0.000680   0.000014  -0.000065   0.000052
      5      -0.016872   0.040641  -0.001156  -0.000066   0.000012  -0.000004
      6       0.023210   0.027979  -0.002401   0.000037   0.000031  -0.000006
      7       0.010401   0.020270  -0.001330  -0.000010   0.000046  -0.000055
      8       0.014381   0.016346  -0.001459   0.000026  -0.000012  -0.000024
      9       0.005609   0.000140  -0.001245  -0.000008   0.000029  -0.000029
     10       0.065021   0.018491  -0.004537  -0.000001  -0.000028   0.000045
     11      -0.004510  -0.002260  -0.000268  -0.000006   0.000023  -0.000024
     12      -0.029874  -0.006034   0.011448  -0.000002  -0.000001   0.000061
     13       0.018811   0.003222  -0.012430   0.000011  -0.000038   0.000028
     14      -0.022513  -0.004477   0.009267  -0.000019  -0.000048  -0.000024
     15       0.008664   0.003508   0.064655   0.000015  -0.000046   0.000047
     16       0.003229   0.002405   0.041807  -0.000165  -0.000031   0.000027
     17       0.005399   0.002059   0.038068   0.000047  -0.000028   0.000024
     18      -0.000120   0.000598   0.000660   0.000177   0.001666  -0.001084
     19       0.000070  -0.000482   0.000484   0.002370  -0.001360   0.001511
     20      -0.000125   0.000498   0.000408  -0.000083   0.000006  -0.001405
     21       0.248324  -0.590681   0.013264   0.000467   0.000178  -0.000099
     22      -0.191025   0.461085  -0.009722  -0.000123   0.000471  -0.000227
     23       0.193825  -0.461875   0.010314   0.000329  -0.000116  -0.000009
     24      -0.243002  -0.308052   0.024397  -0.000155  -0.000306   0.000249
     25      -0.148707  -0.196426   0.015193  -0.000024  -0.000233   0.000254
     26      -0.145461  -0.183486   0.014594  -0.000065  -0.000088   0.000157
     27      -0.056506  -0.013865   0.004314  -0.000028  -0.000028  -0.000054
     28      -0.720628  -0.196455   0.044282  -0.000095  -0.000136   0.000104
     29       0.053671   0.015697  -0.002729   0.000018   0.000076   0.000045
     30       0.314310   0.059574  -0.131580   0.000054   0.000189  -0.000251
     31      -0.233192  -0.043513   0.102809   0.000024  -0.000261   0.000284
     32       0.241281   0.045632  -0.101532   0.000033   0.000165  -0.000145
     33      -0.099697  -0.044190  -0.735369  -0.000129   0.000006  -0.000643
     34      -0.061573  -0.028573  -0.472825  -0.000454   0.000363  -0.000365
     35      -0.058799  -0.025921  -0.431597   0.000274   0.000384   0.000156
     36       0.000043  -0.000176   0.000005  -0.000285  -0.000039   0.004692
     37       0.000027   0.000065  -0.000153   0.000331   0.001392   0.021689
     38      -0.000003  -0.000017   0.000015  -0.001313  -0.002986  -0.058031
     39       0.000011   0.000475   0.000269  -0.000155  -0.003121  -0.054324
     40      -0.000280  -0.000309   0.000391  -0.007387  -0.019770  -0.361637
     41       0.000108   0.000166  -0.000518   0.019852   0.050888   0.926809
     42      -0.000003  -0.000034  -0.000227   0.000049   0.000140  -0.000437
     43       0.000016   0.000254   0.000430   0.061770   0.001423  -0.001322
     44      -0.000013  -0.000049  -0.000232  -0.002465   0.000379   0.000166
     45      -0.000480   0.000492  -0.001191   0.006888  -0.000056   0.001025
     46       0.000424  -0.000159   0.000502  -0.996614  -0.023238   0.022531
     47      -0.000305   0.000236  -0.000765   0.042895  -0.000138  -0.001503
     48       0.000056  -0.000193   0.000009  -0.001418   0.044311  -0.002371
     49       0.000082  -0.000064  -0.000176   0.000496  -0.025872   0.001287
     50       0.000064  -0.000193   0.000019   0.000617  -0.034867   0.002282
     51       0.000031   0.000658  -0.000238   0.018398  -0.720870   0.038676
     52      -0.000350  -0.000178   0.000428  -0.010046   0.426010  -0.023622
     53      -0.000082   0.000197   0.000217  -0.012300   0.539874  -0.029096


-----------
IR SPECTRUM
-----------

 Mode   freq       eps      Int      T**2         TX        TY        TZ
       cm**-1   L/(mol*cm) km/mol    a.u.
----------------------------------------------------------------------------
  6:     20.63   0.000014    0.07  0.000212  ( 0.005202 -0.003754 -0.013052)
  7:    129.56   0.000037    0.19  0.000090  (-0.006058  0.002806  0.006715)
  8:    211.64   0.000504    2.55  0.000744  (-0.014819 -0.012057  0.019456)
  9:    219.14   0.001264    6.39  0.001800  ( 0.025473 -0.005555 -0.033473)
 10:    322.70   0.003598   18.18  0.003480  ( 0.024746 -0.005368 -0.053276)
 11:    338.23   0.002742   13.86  0.002530  (-0.030393 -0.039751  0.005076)
 12:    392.17   0.005407   27.32  0.004303  (-0.010887  0.028175  0.058225)
 13:    406.43   0.031531  159.35  0.024210  ( 0.087068  0.128755  0.007181)
 14:    417.13   0.003953   19.98  0.002957  (-0.027634 -0.045094 -0.012664)
 15:    419.97   0.011067   55.93  0.008223  (-0.033929 -0.073784 -0.040350)
 16:    549.92   0.003670   18.55  0.002083  (-0.016944 -0.007209  0.041756)
 17:    585.24   0.003191   16.13  0.001702  (-0.009343  0.040173  0.000645)
 18:    608.42   0.013615   68.81  0.006983  ( 0.037800 -0.000872 -0.074524)
 19:    632.10   0.000004    0.02  0.000002  ( 0.001296  0.000201  0.000117)
 20:    649.06   0.008461   42.76  0.004068  ( 0.037413  0.050377  0.011417)
 21:    721.06   0.007435   37.58  0.003218  (-0.031992  0.004229  0.046654)
 22:    771.78   0.001553    7.85  0.000628  (-0.019334 -0.013005 -0.009216)
 23:    791.11   0.002759   13.95  0.001089  (-0.021164  0.004654  0.024878)
 24:    868.83   0.000048    0.24  0.000017  ( 0.000861 -0.000307 -0.004029)
 25:    951.96   0.000555    2.81  0.000182  (-0.009035  0.000760  0.009991)
 26:   1001.18   0.011999   60.64  0.003740  ( 0.022462  0.056512  0.006468)
 27:   1008.78   0.000243    1.23  0.000075  (-0.002760  0.002690  0.007776)
 28:   1017.57   0.000622    3.14  0.000191  ( 0.004574  0.012557  0.003487)
 29:   1030.09   0.000072    0.36  0.000022  ( 0.003386  0.001138 -0.003000)
 30:   1050.16   0.000972    4.91  0.000289  ( 0.006530  0.015695 -0.000138)
 31:   1077.66   0.032326  163.36  0.009361  ( 0.085346  0.022466 -0.039652)
 32:   1080.96   0.056459  285.32  0.016299  ( 0.028517 -0.021421 -0.122585)
 33:   1123.90   0.014614   73.85  0.004058  (-0.033860 -0.043252 -0.032256)
 34:   1169.14   0.000029    0.15  0.000008  ( 0.002197  0.001676  0.000176)
 35:   1178.75   0.010964   55.41  0.002903  (-0.034972 -0.039976 -0.009032)
 36:   1198.38   0.013359   67.51  0.003479  (-0.045177 -0.034612 -0.015488)
 37:   1310.54   0.014020   70.85  0.003338  (-0.041145  0.032069 -0.024842)
 38:   1327.45   0.001386    7.00  0.000326  (-0.009626 -0.014487 -0.004825)
 39:   1344.11   0.000440    2.22  0.000102  ( 0.009164  0.001838 -0.003838)
 40:   1371.83   0.001191    6.02  0.000271  ( 0.004807 -0.015591  0.002169)
 41:   1429.54   0.046059  232.76  0.010055  (-0.046161  0.084384 -0.028337)
 42:   1481.22   0.005676   28.68  0.001196  ( 0.028414 -0.007144  0.018369)
 43:   1527.33   0.000310    1.57  0.000063  (-0.007304 -0.000674 -0.003089)
 44:   1645.42   0.000089    0.45  0.000017  ( 0.003108  0.002150  0.001589)
 45:   1665.66   0.000116    0.59  0.000022  ( 0.001025 -0.004355  0.001302)
 46:   3170.71   0.000005    0.03  0.000001  (-0.000499 -0.000465 -0.000227)
 47:   3180.83   0.002343   11.84  0.000230  (-0.012565 -0.000143 -0.008481)
 48:   3191.93   0.003056   15.44  0.000299  (-0.001069  0.017021 -0.002814)
 49:   3202.29   0.000889    4.49  0.000087  ( 0.006577  0.005467  0.003667)
 50:   3218.80   0.000305    1.54  0.000030  ( 0.003511 -0.002900  0.002969)
 51:   3783.66   0.011680   59.02  0.000963  (-0.005473 -0.030508 -0.001617)
 52:   3823.09   0.011427   57.75  0.000933  (-0.017410  0.000804  0.025079)
 53:   3826.02   0.008559   43.26  0.000698  (-0.008750  0.001607  0.024880)

* The epsilon (eps) is given for a Dirac delta lineshape.
** The dipole moment derivative (T) already includes vibrational overlap.

The first frequency considered to be a vibration is 6
The total number of vibrations considered is 48


--------------------------
THERMOCHEMISTRY AT 298.15K
--------------------------

Temperature         ... 298.15 K
Pressure            ... 1.00 atm
Total Mass          ... 140.14 AMU

Throughout the following assumptions are being made:
  (1) The electronic state is orbitally nondegenerate
  (2) There are no thermally accessible electronically excited states
  (3) Hindered rotations indicated by low frequency modes are not
      treated as such but are treated as vibrations and this may
      cause some error
  (4) All equations used are the standard statistical mechanics
      equations for an ideal gas
  (5) All vibrations are strictly harmonic

freq.      20.63  E(vib)   ...       0.56 
freq.     129.56  E(vib)   ...       0.43 
freq.     211.64  E(vib)   ...       0.34 
freq.     219.14  E(vib)   ...       0.33 
freq.     322.70  E(vib)   ...       0.25 
freq.     338.23  E(vib)   ...       0.24 
freq.     392.17  E(vib)   ...       0.20 
freq.     406.43  E(vib)   ...       0.19 
freq.     417.13  E(vib)   ...       0.18 
freq.     419.97  E(vib)   ...       0.18 
freq.     549.92  E(vib)   ...       0.12 
freq.     585.24  E(vib)   ...       0.11 
freq.     608.42  E(vib)   ...       0.10 
freq.     632.10  E(vib)   ...       0.09 
freq.     649.06  E(vib)   ...       0.08 
freq.     721.06  E(vib)   ...       0.07 
freq.     771.78  E(vib)   ...       0.05 
freq.     791.11  E(vib)   ...       0.05 
freq.     868.83  E(vib)   ...       0.04 
freq.     951.96  E(vib)   ...       0.03 
freq.    1001.18  E(vib)   ...       0.02 
freq.    1008.78  E(vib)   ...       0.02 
freq.    1017.57  E(vib)   ...       0.02 
freq.    1030.09  E(vib)   ...       0.02 
freq.    1050.16  E(vib)   ...       0.02 
freq.    1077.66  E(vib)   ...       0.02 
freq.    1080.96  E(vib)   ...       0.02 
freq.    1123.90  E(vib)   ...       0.01 
freq.    1169.14  E(vib)   ...       0.01 
freq.    1178.75  E(vib)   ...       0.01 
freq.    1198.38  E(vib)   ...       0.01 
freq.    1310.54  E(vib)   ...       0.01 
freq.    1327.45  E(vib)   ...       0.01 
freq.    1344.11  E(vib)   ...       0.01 
freq.    1371.83  E(vib)   ...       0.01 
freq.    1429.54  E(vib)   ...       0.00 
freq.    1481.22  E(vib)   ...       0.00 
freq.    1527.33  E(vib)   ...       0.00 
freq.    1645.42  E(vib)   ...       0.00 
freq.    1665.66  E(vib)   ...       0.00 
freq.    3170.71  E(vib)   ...       0.00 
freq.    3180.83  E(vib)   ...       0.00 
freq.    3191.93  E(vib)   ...       0.00 
freq.    3202.29  E(vib)   ...       0.00 
freq.    3218.80  E(vib)   ...       0.00 
freq.    3783.66  E(vib)   ...       0.00 
freq.    3823.09  E(vib)   ...       0.00 
freq.    3826.02  E(vib)   ...       0.00 

------------
INNER ENERGY
------------

The inner energy is: U= E(el) + E(ZPE) + E(vib) + E(rot) + E(trans)
    E(el)   - is the total energy from the electronic structure calculation
              = E(kin-el) + E(nuc-el) + E(el-el) + E(nuc-nuc)
    E(ZPE)  - the the zero temperature vibrational energy from the frequency calculation
    E(vib)  - the the finite temperature correction to E(ZPE) due to population
              of excited vibrational states
    E(rot)  - is the rotational thermal energy
    E(trans)- is the translational thermal energy

Summary of contributions to the inner energy U:
Electronic energy                ...   -496.62856884 Eh
Zero point energy                ...      0.14225810 Eh      89.27 kcal/mol
Thermal vibrational correction   ...      0.00615204 Eh       3.86 kcal/mol
Thermal rotational correction    ...      0.00141627 Eh       0.89 kcal/mol
Thermal translational correction ...      0.00141627 Eh       0.89 kcal/mol
-----------------------------------------------------------------------
Total thermal energy                   -496.47732615 Eh


Summary of corrections to the electronic energy:
(perhaps to be used in another calculation)
Total thermal correction                  0.00898458 Eh       5.64 kcal/mol
Non-thermal (ZPE) correction              0.14225810 Eh      89.27 kcal/mol
-----------------------------------------------------------------------
Total correction                          0.15124269 Eh      94.91 kcal/mol


--------
ENTHALPY
--------

The enthalpy is H = U + kB*T
                kB is Boltzmann's constant
Total free energy                 ...   -496.47732615 Eh 
Thermal Enthalpy correction       ...      0.00094421 Eh       0.59 kcal/mol
-----------------------------------------------------------------------
Total Enthalpy                    ...   -496.47638194 Eh


Note: Only C1 symmetry has been detected, increase convergence thresholds 
      if your molecule has a higher symmetry. Symmetry factor of 1.0 is   
      used for the rotational entropy correction. 
 

Note: Rotational entropy computed according to Herzberg 
Infrared and Raman Spectra, Chapter V,1, Van Nostrand Reinhold, 1945 
Point Group:  C1, Symmetry Number:   1  
Rotational constants in cm-1:     0.093520     0.032173     0.027486 

Vibrational entropy computed according to the QRRHO of S. Grimme
Chem.Eur.J. 2012 18 9955


-------
ENTROPY
-------

The entropy contributions are T*S = T*(S(el)+S(vib)+S(rot)+S(trans))
     S(el)   - electronic entropy
     S(vib)  - vibrational entropy
     S(rot)  - rotational entropy
     S(trans)- translational entropy
The entropies will be listed as multiplied by the temperature to get
units of energy

Electronic entropy                ...      0.00000000 Eh      0.00 kcal/mol
Vibrational entropy               ...      0.01029951 Eh      6.46 kcal/mol
Rotational entropy                ...      0.01394860 Eh      8.75 kcal/mol
Translational entropy             ...      0.01934917 Eh     12.14 kcal/mol
-----------------------------------------------------------------------
Final entropy term                ...      0.04359728 Eh     27.36 kcal/mol

In case the symmetry of your molecule has not been determined correctly
or in case you have a reason to use a different symmetry number we print 
out the resulting rotational entropy values for sn=1,12 :
 --------------------------------------------------------
|  sn= 1 | S(rot)=       0.01394860 Eh      8.75 kcal/mol|
|  sn= 2 | S(rot)=       0.01329414 Eh      8.34 kcal/mol|
|  sn= 3 | S(rot)=       0.01291131 Eh      8.10 kcal/mol|
|  sn= 4 | S(rot)=       0.01263969 Eh      7.93 kcal/mol|
|  sn= 5 | S(rot)=       0.01242900 Eh      7.80 kcal/mol|
|  sn= 6 | S(rot)=       0.01225685 Eh      7.69 kcal/mol|
|  sn= 7 | S(rot)=       0.01211131 Eh      7.60 kcal/mol|
|  sn= 8 | S(rot)=       0.01198523 Eh      7.52 kcal/mol|
|  sn= 9 | S(rot)=       0.01187402 Eh      7.45 kcal/mol|
|  sn=10 | S(rot)=       0.01177454 Eh      7.39 kcal/mol|
|  sn=11 | S(rot)=       0.01168455 Eh      7.33 kcal/mol|
|  sn=12 | S(rot)=       0.01160240 Eh      7.28 kcal/mol|
 --------------------------------------------------------


-------------------
GIBBS FREE ENERGY
-------------------

The Gibbs free energy is G = H - T*S

Total enthalpy                    ...   -496.47638194 Eh 
Total entropy correction          ...     -0.04359728 Eh    -27.36 kcal/mol
-----------------------------------------------------------------------
Final Gibbs free energy         ...   -496.51997922 Eh

For completeness - the Gibbs free energy minus the electronic energy
G-E(el)                           ...      0.10858961 Eh     68.14 kcal/mol


Timings for individual modules:

Sum of individual times         ...     3960.371 sec (=  66.006 min)
GTO integral calculation        ...        8.676 sec (=   0.145 min)   0.2 %
SCF iterations                  ...     2434.759 sec (=  40.579 min)  61.5 %
SCF Gradient evaluation         ...      750.866 sec (=  12.514 min)  19.0 %
Geometry relaxation             ...        2.386 sec (=   0.040 min)   0.1 %
Analytical frequency calculation...      763.684 sec (=  12.728 min)  19.3 %
                             ****ORCA TERMINATED NORMALLY****
TOTAL RUN TIME: 0 days 1 hours 6 minutes 9 seconds 702 msec
