
                                 *****************
                                 * O   R   C   A *
                                 *****************

                                            #,                                       
                                            ###                                      
                                            ####                                     
                                            #####                                    
                                            ######                                   
                                           ########,                                 
                                     ,,################,,,,,                         
                               ,,#################################,,                 
                          ,,##########################################,,             
                       ,#########################################, ''#####,          
                    ,#############################################,,   '####,        
                  ,##################################################,,,,####,       
                ,###########''''           ''''###############################       
              ,#####''   ,,,,##########,,,,          '''####'''          '####       
            ,##' ,,,,###########################,,,                        '##       
           ' ,,###''''                  '''############,,,                           
         ,,##''                                '''############,,,,        ,,,,,,###''
      ,#''                                            '''#######################'''  
     '                                                          ''''####''''         
             ,#######,   #######,   ,#######,      ##                                
            ,#'     '#,  ##    ##  ,#'     '#,    #''#        ######   ,####,        
            ##       ##  ##   ,#'  ##            #'  '#       #        #'  '#        
            ##       ##  #######   ##           ,######,      #####,   #    #        
            '#,     ,#'  ##    ##  '#,     ,#' ,#      #,         ##   #,  ,#        
             '#######'   ##     ##  '#######'  #'      '#     #####' # '####'        



                  #######################################################
                  #                        -***-                        #
                  #          Department of theory and spectroscopy      #
                  #    Directorship and core code : Frank Neese         #
                  #        Max Planck Institute fuer Kohlenforschung    #
                  #                Kaiser Wilhelm Platz 1               #
                  #                 D-45470 Muelheim/Ruhr               #
                  #                      Germany                        #
                  #                                                     #
                  #                  All rights reserved                #
                  #                        -***-                        #
                  #######################################################



                         Program Version 5.0.4 -  RELEASE  -

 With contributions from (in alphabetic order):
   Daniel Aravena         : Magnetic Suceptibility
   Michael Atanasov       : Ab Initio Ligand Field Theory (pilot matlab implementation)
   Alexander A. Auer      : GIAO ZORA, VPT2 properties, NMR spectrum
   Ute Becker             : Parallelization
   Giovanni Bistoni       : ED, misc. LED, open-shell LED, HFLD
   Martin Brehm           : Molecular dynamics
   Dmytro Bykov           : SCF Hessian
   Vijay G. Chilkuri      : MRCI spin determinant printing, contributions to CSF-ICE
   Dipayan Datta          : RHF DLPNO-CCSD density
   Achintya Kumar Dutta   : EOM-CC, STEOM-CC
   Dmitry Ganyushin       : Spin-Orbit,Spin-Spin,Magnetic field MRCI
   Miquel Garcia          : C-PCM and meta-GGA Hessian, CC/C-PCM, Gaussian charge scheme
   Yang Guo               : DLPNO-NEVPT2, F12-NEVPT2, CIM, IAO-localization
   Andreas Hansen         : Spin unrestricted coupled pair/coupled cluster methods
   Benjamin Helmich-Paris : MC-RPA, TRAH-SCF, COSX integrals
   Lee Huntington         : MR-EOM, pCC
   Robert Izsak           : Overlap fitted RIJCOSX, COSX-SCS-MP3, EOM
   Marcus Kettner         : VPT2
   Christian Kollmar      : KDIIS, OOCD, Brueckner-CCSD(T), CCSD density, CASPT2, CASPT2-K
   Simone Kossmann        : Meta GGA functionals, TD-DFT gradient, OOMP2, MP2 Hessian
   Martin Krupicka        : Initial AUTO-CI
   Lucas Lang             : DCDCAS
   Marvin Lechner         : AUTO-CI (C++ implementation), FIC-MRCC
   Dagmar Lenk            : GEPOL surface, SMD
   Dimitrios Liakos       : Extrapolation schemes; Compound Job, initial MDCI parallelization
   Dimitrios Manganas     : Further ROCIS development; embedding schemes
   Dimitrios Pantazis     : SARC Basis sets
   Anastasios Papadopoulos: AUTO-CI, single reference methods and gradients
   Taras Petrenko         : DFT Hessian,TD-DFT gradient, ASA, ECA, R-Raman, ABS, FL, XAS/XES, NRVS
   Peter Pinski           : DLPNO-MP2, DLPNO-MP2 Gradient
   Christoph Reimann      : Effective Core Potentials
   Marius Retegan         : Local ZFS, SOC
   Christoph Riplinger    : Optimizer, TS searches, QM/MM, DLPNO-CCSD(T), (RO)-DLPNO pert. Triples
   Tobias Risthaus        : Range-separated hybrids, TD-DFT gradient, RPA, STAB
   Michael Roemelt        : Original ROCIS implementation
   Masaaki Saitow         : Open-shell DLPNO-CCSD energy and density
   Barbara Sandhoefer     : DKH picture change effects
   Avijit Sen             : IP-ROCIS
   Kantharuban Sivalingam : CASSCF convergence, NEVPT2, FIC-MRCI
   Bernardo de Souza      : ESD, SOC TD-DFT
   Georgi Stoychev        : AutoAux, RI-MP2 NMR, DLPNO-MP2 response
   Willem Van den Heuvel  : Paramagnetic NMR
   Boris Wezisla          : Elementary symmetry handling
   Frank Wennmohs         : Technical directorship


 We gratefully acknowledge several colleagues who have allowed us to
 interface, adapt or use parts of their codes:
   Stefan Grimme, W. Hujo, H. Kruse, P. Pracht,  : VdW corrections, initial TS optimization,
                  C. Bannwarth, S. Ehlert          DFT functionals, gCP, sTDA/sTD-DF
   Ed Valeev, F. Pavosevic, A. Kumar             : LibInt (2-el integral package), F12 methods
   Garnet Chan, S. Sharma, J. Yang, R. Olivares  : DMRG
   Ulf Ekstrom                                   : XCFun DFT Library
   Mihaly Kallay                                 : mrcc  (arbitrary order and MRCC methods)
   Jiri Pittner, Ondrej Demel                    : Mk-CCSD
   Frank Weinhold                                : gennbo (NPA and NBO analysis)
   Christopher J. Cramer and Donald G. Truhlar   : smd solvation model
   Lars Goerigk                                  : TD-DFT with DH, B97 family of functionals
   V. Asgeirsson, H. Jonsson                     : NEB implementation
   FAccTs GmbH                                   : IRC, NEB, NEB-TS, DLPNO-Multilevel, CI-OPT
                                                   MM, QMMM, 2- and 3-layer-ONIOM, Crystal-QMMM,
                                                   LR-CPCM, SF, NACMEs, symmetry and pop. for TD-DFT,
                                                   nearIR, NL-DFT gradient (VV10), updates on ESD,
                                                   ML-optimized integration grids
   S Lehtola, MJT Oliveira, MAL Marques          : LibXC Library
   Liviu Ungur et al                             : ANISO software


 Your calculation uses the libint2 library for the computation of 2-el integrals
 For citations please refer to: http://libint.valeyev.net

 Your ORCA version has been built with support for libXC version: 5.1.0
 For citations please refer to: https://tddft.org/programs/libxc/

 This ORCA versions uses:
   CBLAS   interface :  Fast vector & matrix operations
   LAPACKE interface :  Fast linear algebra routines
   Shared memory     :  Shared parallel matrices


================================================================================

----- Orbital basis set information -----
Your calculation utilizes the basis: def2-QZVPP
   F. Weigend and R. Ahlrichs, Phys. Chem. Chem. Phys. 7, 3297 (2005).

----- AuxJ basis set information -----
Your calculation utilizes the auxiliary basis: def2/J
   F. Weigend, Phys. Chem. Chem. Phys. 8, 1057 (2006).

================================================================================
                                        WARNINGS
                       Please study these warnings very carefully!
================================================================================


WARNING: your system is open-shell and RHF/RKS was chosen
  ===> : WILL SWITCH to UHF/UKS


INFO   : the flag for use of the SHARK integral package has been found!

================================================================================
                                       INPUT FILE
================================================================================
NAME = kation.inp
|  1> !B3LYP DEF2-QZVPP
|  2> 
|  3> %scf
|  4> convergence tight
|  5> end
|  6> 
|  7> * xyz 1 2
|  8>   C   -6.48685128277804      0.77688258612871      0.00000003669213
|  9>   C   -7.73381145284436      0.14568444861554     -0.00000001281082
| 10>   C   -7.78899585175133     -1.25047491000549      0.00000011071880
| 11>   C   -6.61307853819634     -2.00658591283547     -0.00000008160071
| 12>   C   -5.37350246533332     -1.36010178848815     -0.00000002916520
| 13>   C   -5.30222408891036      0.03530712324043      0.00000018545977
| 14>   H   -8.64519500876919      0.74587694922205     -0.00000005341796
| 15>   H   -8.76194889046812     -1.74856684410237      0.00000018644643
| 16>   H   -6.66266737522386     -3.09801741276813     -0.00000018313853
| 17>   H   -4.44947771966353     -1.94396554004229     -0.00000012119653
| 18>   H   -4.34031613114399      0.55064255938228      0.00000022091144
| 19>   Cl  -6.40746119491754      2.52416874165289     -0.00000025889883
| 20> **                         ****END OF INPUT****
================================================================================

                       ****************************
                       * Single Point Calculation *
                       ****************************

---------------------------------
CARTESIAN COORDINATES (ANGSTROEM)
---------------------------------
  C     -6.486851    0.776883    0.000000
  C     -7.733811    0.145684   -0.000000
  C     -7.788996   -1.250475    0.000000
  C     -6.613079   -2.006586   -0.000000
  C     -5.373502   -1.360102   -0.000000
  C     -5.302224    0.035307    0.000000
  H     -8.645195    0.745877   -0.000000
  H     -8.761949   -1.748567    0.000000
  H     -6.662667   -3.098017   -0.000000
  H     -4.449478   -1.943966   -0.000000
  H     -4.340316    0.550643    0.000000
  Cl    -6.407461    2.524169   -0.000000

----------------------------
CARTESIAN COORDINATES (A.U.)
----------------------------
  NO LB      ZA    FRAG     MASS         X           Y           Z
   0 C     6.0000    0    12.011  -12.258372    1.468095    0.000000
   1 C     6.0000    0    12.011  -14.614786    0.275304   -0.000000
   2 C     6.0000    0    12.011  -14.719069   -2.363055    0.000000
   3 C     6.0000    0    12.011  -12.496907   -3.791898   -0.000000
   4 C     6.0000    0    12.011  -10.154448   -2.570220   -0.000000
   5 C     6.0000    0    12.011  -10.019751    0.066721    0.000000
   6 H     1.0000    0     1.008  -16.337051    1.409503   -0.000000
   7 H     1.0000    0     1.008  -16.557684   -3.304312    0.000000
   8 H     1.0000    0     1.008  -12.590617   -5.854404   -0.000000
   9 H     1.0000    0     1.008   -8.408294   -3.673562   -0.000000
  10 H     1.0000    0     1.008   -8.202009    1.040564    0.000000
  11 Cl   17.0000    0    35.453  -12.108347    4.769988   -0.000000

--------------------------------
INTERNAL COORDINATES (ANGSTROEM)
--------------------------------
 C      0   0   0     0.000000000000     0.00000000     0.00000000
 C      1   0   0     1.397612519453     0.00000000     0.00000000
 C      2   1   0     1.397249538396   119.11154041     0.00000000
 C      3   2   1     1.398029104461   120.47739882     0.00000000
 C      4   3   2     1.398030959402   119.71543094     0.00000000
 C      5   4   3     1.397228198211   120.46784697     0.00000000
 H      2   1   3     1.091261207867   119.78500647   179.99999447
 H      3   2   1     1.093038512753   119.37313258   179.99999317
 H      4   3   2     1.092557445539   120.13945937   180.00001207
 H      5   4   3     1.093031843538   120.16874234   179.99999658
 H      6   5   4     1.091255025628   121.10403098   180.00000148
 Cl     1   2   3     1.749088818596   119.44956843   179.99999474

---------------------------
INTERNAL COORDINATES (A.U.)
---------------------------
 C      0   0   0     0.000000000000     0.00000000     0.00000000
 C      1   0   0     2.641104903106     0.00000000     0.00000000
 C      2   1   0     2.640418968316   119.11154041     0.00000000
 C      3   2   1     2.641892134682   120.47739882     0.00000000
 C      4   3   2     2.641895640014   119.71543094     0.00000000
 C      5   4   3     2.640378641212   120.46784697     0.00000000
 H      2   1   3     2.062184823440   119.78500647   179.99999447
 H      3   2   1     2.065543442931   119.37313258   179.99999317
 H      4   3   2     2.064634357646   120.13945937   180.00001207
 H      5   4   3     2.065530839943   120.16874234   179.99999658
 H      6   5   4     2.062173140702   121.10403098   180.00000148
 Cl     1   2   3     3.305298851050   119.44956843   179.99999474

---------------------
BASIS SET INFORMATION
---------------------
There are 3 groups of distinct atoms

 Group   1 Type C   : 15s8p3d2f1g contracted to 7s4p3d2f1g pattern {8211111/5111/111/11/1}
 Group   2 Type H   : 7s3p2d1f contracted to 4s3p2d1f pattern {4111/111/11/1}
 Group   3 Type Cl  : 20s14p4d2f1g contracted to 9s6p4d2f1g pattern {1031111111/821111/1111/11/1}

Atom   0C    basis set group =>   1
Atom   1C    basis set group =>   1
Atom   2C    basis set group =>   1
Atom   3C    basis set group =>   1
Atom   4C    basis set group =>   1
Atom   5C    basis set group =>   1
Atom   6H    basis set group =>   2
Atom   7H    basis set group =>   2
Atom   8H    basis set group =>   2
Atom   9H    basis set group =>   2
Atom  10H    basis set group =>   2
Atom  11Cl   basis set group =>   3
---------------------------------
AUXILIARY/J BASIS SET INFORMATION
---------------------------------
There are 3 groups of distinct atoms

 Group   1 Type C   : 12s5p4d2f1g contracted to 6s4p3d1f1g pattern {711111/2111/211/2/1}
 Group   2 Type H   : 5s2p1d contracted to 3s1p1d pattern {311/2/1}
 Group   3 Type Cl  : 14s5p5d2f1g contracted to 8s4p3d1f1g pattern {71111111/2111/311/2/1}

Atom   0C    basis set group =>   1
Atom   1C    basis set group =>   1
Atom   2C    basis set group =>   1
Atom   3C    basis set group =>   1
Atom   4C    basis set group =>   1
Atom   5C    basis set group =>   1
Atom   6H    basis set group =>   2
Atom   7H    basis set group =>   2
Atom   8H    basis set group =>   2
Atom   9H    basis set group =>   2
Atom  10H    basis set group =>   2
Atom  11Cl   basis set group =>   3
------------------------------------------------------------------------------
                           ORCA GTO INTEGRAL CALCULATION
                           -- RI-GTO INTEGRALS CHOSEN --
------------------------------------------------------------------------------
------------------------------------------------------------------------------
                   ___                                                        
                  /   \      - P O W E R E D   B Y -                         
                 /     \                                                     
                 |  |  |   _    _      __       _____    __    __             
                 |  |  |  | |  | |    /  \     |  _  \  |  |  /  |          
                  \  \/   | |  | |   /    \    | | | |  |  | /  /          
                 / \  \   | |__| |  /  /\  \   | |_| |  |  |/  /          
                |  |  |   |  __  | /  /__\  \  |    /   |      \           
                |  |  |   | |  | | |   __   |  |    \   |  |\   \          
                \     /   | |  | | |  |  |  |  | |\  \  |  | \   \       
                 \___/    |_|  |_| |__|  |__|  |_| \__\ |__|  \__/        
                                                                              
                      - O R C A' S   B I G   F R I E N D -                    
                                      &                                       
                       - I N T E G R A L  F E E D E R -                       
                                                                              
 v1 FN, 2020, v2 2021                                                         
------------------------------------------------------------------------------


Reading SHARK input file kation.SHARKINP.tmp ... ok
----------------------
SHARK INTEGRAL PACKAGE
----------------------

Number of atoms                             ...     12
Number of basis functions                   ...    562
Number of shells                            ...    174
Maximum angular momentum                    ...      4
Integral batch strategy                     ... SHARK/LIBINT Hybrid
RI-J (if used) integral strategy            ... SPLIT-RIJ (Revised 2003 algorithm where possible)
Printlevel                                  ...      1
Contraction scheme used                     ... SEGMENTED contraction
Coulomb Range Separation                    ... NOT USED
Exchange Range Separation                   ... NOT USED
Finite Nucleus Model                        ... NOT USED
Auxiliary Coulomb fitting basis             ... AVAILABLE
   # of basis functions in Aux-J            ...    400
   # of shells in Aux-J                     ...    132
   Maximum angular momentum in Aux-J        ...      4
Auxiliary J/K fitting basis                 ... NOT available
Auxiliary Correlation fitting basis         ... NOT available
Auxiliary 'external' fitting basis          ... NOT available
Integral threshold                          ...     2.500000e-11
Primitive cut-off                           ...     2.500000e-12
Primitive pair pre-selection threshold      ...     2.500000e-12

Calculating pre-screening integrals         ... done (  2.6 sec) Dimension = 174
Organizing shell pair data                  ... done (  1.9 sec)
Shell pair information
Total number of shell pairs                 ...     15225
Shell pairs after pre-screening             ...     13304
Total number of primitive shell pairs       ...     39681
Primitive shell pairs kept                  ...     26672
          la=0 lb=0:   2045 shell pairs
          la=1 lb=0:   2800 shell pairs
          la=1 lb=1:    961 shell pairs
          la=2 lb=0:   1930 shell pairs
          la=2 lb=1:   1312 shell pairs
          la=2 lb=2:    468 shell pairs
          la=3 lb=0:   1164 shell pairs
          la=3 lb=1:    779 shell pairs
          la=3 lb=2:    551 shell pairs
          la=3 lb=3:    174 shell pairs
          la=4 lb=0:    458 shell pairs
          la=4 lb=1:    296 shell pairs
          la=4 lb=2:    210 shell pairs
          la=4 lb=3:    128 shell pairs
          la=4 lb=4:     28 shell pairs

Calculating one electron integrals          ... done (  0.6 sec)
Calculating RI/J V-Matrix + Cholesky decomp.... done (  0.0 sec)
Calculating Nuclear repulsion               ... done (  0.0 sec) ENN=    314.439010897161 Eh

SHARK setup successfully completed in  10.4 seconds

Maximum memory used throughout the entire GTOINT-calculation: 476.7 MB
-------------------------------------------------------------------------------
                                 ORCA SCF
-------------------------------------------------------------------------------

------------
SCF SETTINGS
------------
Hamiltonian:
 Density Functional     Method          .... DFT(GTOs)
 Exchange Functional    Exchange        .... B88
   X-Alpha parameter    XAlpha          ....  0.666667
   Becke's b parameter  XBeta           ....  0.004200
 Correlation Functional Correlation     .... LYP
 LDA part of GGA corr.  LDAOpt          .... VWN-5
 Gradients option       PostSCFGGA      .... off
 Hybrid DFT is turned on
   Fraction HF Exchange ScalHFX         ....  0.200000
   Scaling of DF-GGA-X  ScalDFX         ....  0.720000
   Scaling of DF-GGA-C  ScalDFC         ....  0.810000
   Scaling of DF-LDA-C  ScalLDAC        ....  1.000000
   Perturbative correction              ....  0.000000
   Density functional embedding theory  .... OFF
   NL short-range parameter             ....  4.800000
 RI-approximation to the Coulomb term is turned on
   Number of AuxJ basis functions       .... 400
   RIJ-COSX (HFX calculated with COS-X)).... on


General Settings:
 Integral files         IntName         .... kation
 Hartree-Fock type      HFTyp           .... UHF
 Total Charge           Charge          ....    1
 Multiplicity           Mult            ....    2
 Number of Electrons    NEL             ....   57
 Basis Dimension        Dim             ....  562
 Nuclear Repulsion      ENuc            ....    314.4390108972 Eh

Convergence Acceleration:
 DIIS                   CNVDIIS         .... on
   Start iteration      DIISMaxIt       ....    12
   Startup error        DIISStart       ....  0.200000
   # of expansion vecs  DIISMaxEq       ....     5
   Bias factor          DIISBfac        ....   1.050
   Max. coefficient     DIISMaxC        ....  10.000
 Trust-Rad. Augm. Hess. CNVTRAH         .... auto
   Auto Start mean grad. ratio tolernc. ....  1.125000
   Auto Start start iteration           ....    20
   Auto Start num. interpolation iter.  ....    10
   Max. Number of Micro iterations      ....    16
   Max. Number of Macro iterations      .... Maxiter - #DIIS iter
   Number of Davidson start vectors     ....     2
   Converg. threshold I  (grad. norm)   ....   1.000e-05
   Converg. threshold II (energy diff.) ....   1.000e-08
   Grad. Scal. Fac. for Micro threshold ....   0.100
   Minimum threshold for Micro iter.    ....   0.010
   NR start threshold (gradient norm)   ....   0.001
   Initial trust radius                 ....   0.400
   Minimum AH scaling param. (alpha)    ....   1.000
   Maximum AH scaling param. (alpha)    .... 1000.000
   Orbital update algorithm             .... Taylor
   White noise on init. David. guess    .... on
   Maximum white noise                  ....   0.010
   Quad. conv. algorithm                .... NR
 SOSCF                  CNVSOSCF        .... off
 Level Shifting         CNVShift        .... on
   Level shift para.    LevelShift      ....    0.2500
   Turn off err/grad.   ShiftErr        ....    0.0010
 Zerner damping         CNVZerner       .... off
 Static damping         CNVDamp         .... on
   Fraction old density DampFac         ....    0.7000
   Max. Damping (<1)    DampMax         ....    0.9800
   Min. Damping (>=0)   DampMin         ....    0.0000
   Turn off err/grad.   DampErr         ....    0.1000
 Fernandez-Rico         CNVRico         .... off

SCF Procedure:
 Maximum # iterations   MaxIter         ....   125
 SCF integral mode      SCFMode         .... Direct
   Integral package                     .... SHARK and LIBINT hybrid scheme
 Reset frequency        DirectResetFreq ....    20
 Integral Threshold     Thresh          ....  2.500e-11 Eh
 Primitive CutOff       TCut            ....  2.500e-12 Eh

Convergence Tolerance:
 Convergence Check Mode ConvCheckMode   .... Total+1el-Energy
 Convergence forced     ConvForced      .... 0
 Energy Change          TolE            ....  1.000e-08 Eh
 1-El. energy change                    ....  1.000e-05 Eh
 DIIS Error             TolErr          ....  5.000e-07


Diagonalization of the overlap matrix:
Smallest eigenvalue                        ... 7.324e-06
Time for diagonalization                   ...    0.276 sec
Threshold for overlap eigenvalues          ... 1.000e-08
Number of eigenvalues below threshold      ... 0
Time for construction of square roots      ...    0.147 sec
Total time needed                          ...    0.425 sec

Time for model grid setup =    1.939 sec

------------------------------
INITIAL GUESS: MODEL POTENTIAL
------------------------------
Loading Hartree-Fock densities                     ... done
Calculating cut-offs                               ... done
Initializing the effective Hamiltonian             ... done
Setting up the integral package (SHARK)            ... done
Starting the Coulomb interaction                   ... done (   5.8 sec)
Reading the grid                                   ... done
Mapping shells                                     ... done
Starting the XC term evaluation                    ... done (   7.7 sec)
  promolecular density results
     # of electrons  =     57.997187881
     EX              =    -59.836600814
     EC              =     -2.068094925
     EX+EC           =    -61.904695739
Transforming the Hamiltonian                       ... done (   0.2 sec)
Diagonalizing the Hamiltonian                      ... done (   0.3 sec)
Back transforming the eigenvectors                 ... done (   0.1 sec)
Now organizing SCF variables                       ... done
                      ------------------
                      INITIAL GUESS DONE (  16.1 sec)
                      ------------------
-------------------
DFT GRID GENERATION
-------------------

General Integration Accuracy     IntAcc      ... 4.388
Radial Grid Type                 RadialGrid  ... OptM3 with GC (2021)
Angular Grid (max. ang.)         AngularGrid ... 4 (Lebedev-302)
Angular grid pruning method      GridPruning ... 4 (adaptive)
Weight generation scheme         WeightScheme... Becke
Basis function cutoff            BFCut       ... 1.0000e-11
Integration weight cutoff        WCut        ... 1.0000e-14
Angular grids for H and He will be reduced by one unit
Partially contracted basis set               ... off
Rotationally invariant grid construction     ... off

Total number of grid points                  ...    61160
Total number of batches                      ...      961
Average number of points per batch           ...       63
Average number of grid points per atom       ...     5097
Time for grid setup =    7.979 sec

--------------------
COSX GRID GENERATION
--------------------

GRIDX 1
-------
General Integration Accuracy     IntAcc      ... 3.816
Radial Grid Type                 RadialGrid  ... OptM3 with GC (2021)
Angular Grid (max. ang.)         AngularGrid ... 1 (Lebedev-50)
Angular grid pruning method      GridPruning ... 4 (adaptive)
Weight generation scheme         WeightScheme... Becke
Basis function cutoff            BFCut       ... 1.0000e-11
Integration weight cutoff        WCut        ... 1.0000e-14
Angular grids for H and He will be reduced by one unit
Partially contracted basis set               ... on
Rotationally invariant grid construction     ... off

Total number of grid points                  ...     7732
Total number of batches                      ...      127
Average number of points per batch           ...       60
Average number of grid points per atom       ...      644
UseSFitting                                  ... on

GRIDX 2
-------
General Integration Accuracy     IntAcc      ... 4.020
Radial Grid Type                 RadialGrid  ... OptM3 with GC (2021)
Angular Grid (max. ang.)         AngularGrid ... 2 (Lebedev-110)
Angular grid pruning method      GridPruning ... 4 (adaptive)
Weight generation scheme         WeightScheme... Becke
Basis function cutoff            BFCut       ... 1.0000e-11
Integration weight cutoff        WCut        ... 1.0000e-14
Angular grids for H and He will be reduced by one unit
Partially contracted basis set               ... on
Rotationally invariant grid construction     ... off

Total number of grid points                  ...    18530
Total number of batches                      ...      294
Average number of points per batch           ...       63
Average number of grid points per atom       ...     1544
UseSFitting                                  ... on

GRIDX 3
-------
General Integration Accuracy     IntAcc      ... 4.338
Radial Grid Type                 RadialGrid  ... OptM3 with GC (2021)
Angular Grid (max. ang.)         AngularGrid ... 3 (Lebedev-194)
Angular grid pruning method      GridPruning ... 4 (adaptive)
Weight generation scheme         WeightScheme... Becke
Basis function cutoff            BFCut       ... 1.0000e-11
Integration weight cutoff        WCut        ... 1.0000e-14
Angular grids for H and He will be reduced by one unit
Partially contracted basis set               ... on
Rotationally invariant grid construction     ... off

Total number of grid points                  ...    40820
Total number of batches                      ...      645
Average number of points per batch           ...       63
Average number of grid points per atom       ...     3402
UseSFitting                                  ... on

Time for X-Grid setup             =   18.525 sec

--------------
SCF ITERATIONS
--------------
ITER       Energy         Delta-E        Max-DP      RMS-DP      [F,P]     Damp
               ***  Starting incremental Fock matrix formation  ***
  0   -691.2984955765   0.000000000000 0.01768843  0.00014612  0.0704547 0.7000
  1   -691.3718655799  -0.073370003372 0.01760475  0.00010853  0.0376360 0.7000
                               ***Turning on DIIS***
  2   -691.3984878020  -0.026622222074 0.04035927  0.00020122  0.0151032 0.0000
  3   -691.4316285142  -0.033140712195 0.00894259  0.00008834  0.0275599 0.0000
  4   -691.4484406905  -0.016812176344 0.00331569  0.00003583  0.0073198 0.0000
  5   -691.4496881611  -0.001247470586 0.00119330  0.00001520  0.0027546 0.0000
  6   -691.4499242519  -0.000236090734 0.00069235  0.00000744  0.0016201 0.0000
  7   -691.4499938969  -0.000069645066 0.00141017  0.00000773  0.0008691 0.0000
               *** Restarting incremental Fock matrix formation ***
                                   *** Resetting DIIS ***
  8   -691.4500299758  -0.000036078880 0.00053288  0.00000382  0.0010752 0.0000
  9   -691.4500328707  -0.000002894907 0.00034937  0.00000218  0.0008541 0.0000
 10   -691.4500395042  -0.000006633448 0.00014382  0.00000112  0.0001777 0.0000
 11   -691.4500400551  -0.000000550964 0.00008308  0.00000076  0.0002516 0.0000
 12   -691.4500408094  -0.000000754239 0.00005129  0.00000050  0.0000619 0.0000
 13   -691.4500409279  -0.000000118533 0.00001428  0.00000016  0.0000238 0.0000
 14   -691.4500409469  -0.000000018999 0.00000779  0.00000012  0.0000132 0.0000
 15   -691.4500409456   0.000000001317 0.00000890  0.00000012  0.0000071 0.0000
 16   -691.4500409474  -0.000000001838 0.00001135  0.00000015  0.0000025 0.0000
 17   -691.4500409482  -0.000000000830 0.00001107  0.00000009  0.0000029 0.0000
                 **** Energy Check signals convergence ****

               *****************************************************
               *                     SUCCESS                       *
               *           SCF CONVERGED AFTER  18 CYCLES          *
               *****************************************************

Old exchange energy                            =    -12.014919215 Eh
New exchange energy                            =    -12.014919752 Eh
Exchange energy change after final integration =     -0.000000537 Eh
Total energy after final integration           =   -691.450041488 Eh
Final COS-X integration done in                =   337.157 sec

----------------
TOTAL SCF ENERGY
----------------

Total Energy       :         -691.45004149 Eh          -18815.31218 eV

Components:
Nuclear Repulsion  :          314.43901090 Eh            8556.32048 eV
Electronic Energy  :        -1005.88905238 Eh          -27371.63266 eV
One Electron Energy:        -1558.12316313 Eh          -42398.68678 eV
Two Electron Energy:          552.23411075 Eh           15027.05411 eV
Max COSX asymmetry :            0.00000126 Eh               0.00003 eV

Virial components:
Potential Energy   :        -1381.04790421 Eh          -37580.22402 eV
Kinetic Energy     :          689.59786272 Eh           18764.91183 eV
Virial Ratio       :            2.00268588


DFT components:
N(Alpha)           :       29.000013941098 electrons
N(Beta)            :       28.000016779025 electrons
N(Total)           :       57.000030720123 electrons
E(X)               :      -47.731823106093 Eh       
E(C)               :       -2.402306547439 Eh       
E(XC)              :      -50.134129653532 Eh       
DFET-embed. en.    :        0.000000000000 Eh       

---------------
SCF CONVERGENCE
---------------

  Last Energy change         ...   -2.3906e-09  Tolerance :   1.0000e-08
  Last MAX-Density change    ...    0.0000e+00  Tolerance :   1.0000e-07
  Last RMS-Density change    ...    0.0000e+00  Tolerance :   5.0000e-09
  Last DIIS Error            ...    1.3380e-06  Tolerance :   5.0000e-07

             **** THE GBW FILE WAS UPDATED (kation.gbw) ****
             **** DENSITY kation.scfp WAS UPDATED ****
             **** ENERGY FILE WAS UPDATED (kation.en.tmp) ****
----------------------
UHF SPIN CONTAMINATION
----------------------

Warning: in a DFT calculation there is little theoretical justification to 
         calculate <S**2> as in Hartree-Fock theory. We will do it anyways
         but you should keep in mind that the values have only limited relevance

Expectation value of <S**2>     :     0.760480
Ideal value S*(S+1) for S=0.5   :     0.750000
Deviation                       :     0.010480

             **** THE GBW FILE WAS UPDATED (kation.gbw) ****
             **** DENSITY kation.scfp WAS UPDATED ****
----------------
ORBITAL ENERGIES
----------------
                 SPIN UP ORBITALS
  NO   OCC          E(Eh)            E(eV) 
   0   1.0000    -101.760024     -2769.0310 
   1   1.0000     -10.484058      -285.2857 
   2   1.0000     -10.423741      -283.6444 
   3   1.0000     -10.409033      -283.2442 
   4   1.0000     -10.409025      -283.2440 
   5   1.0000     -10.400506      -283.0122 
   6   1.0000     -10.400495      -283.0119 
   7   1.0000      -9.688265      -263.6311 
   8   1.0000      -7.449563      -202.7129 
   9   1.0000      -7.446473      -202.6288 
  10   1.0000      -7.440014      -202.4531 
  11   1.0000      -1.115555       -30.3558 
  12   1.0000      -1.057112       -28.7655 
  13   1.0000      -0.969322       -26.3766 
  14   1.0000      -0.961349       -26.1596 
  15   1.0000      -0.833570       -22.6826 
  16   1.0000      -0.813844       -22.1458 
  17   1.0000      -0.733551       -19.9609 
  18   1.0000      -0.687474       -18.7071 
  19   1.0000      -0.671457       -18.2713 
  20   1.0000      -0.645570       -17.5668 
  21   1.0000      -0.635794       -17.3008 
  22   1.0000      -0.623941       -16.9783 
  23   1.0000      -0.573186       -15.5972 
  24   1.0000      -0.568498       -15.4696 
  25   1.0000      -0.558423       -15.1955 
  26   1.0000      -0.523629       -14.2487 
  27   1.0000      -0.481688       -13.1074 
  28   1.0000      -0.475447       -12.9376 
  29   0.0000      -0.247032        -6.7221 
  30   0.0000      -0.231453        -6.2982 
  31   0.0000      -0.185742        -5.0543 
  32   0.0000      -0.122858        -3.3431 
  33   0.0000      -0.098442        -2.6787 
  34   0.0000      -0.098378        -2.6770 
  35   0.0000      -0.086955        -2.3662 
  36   0.0000      -0.078135        -2.1262 
  37   0.0000      -0.065492        -1.7821 
  38   0.0000      -0.063819        -1.7366 
  39   0.0000      -0.044951        -1.2232 
  40   0.0000      -0.026654        -0.7253 
  41   0.0000      -0.008775        -0.2388 
  42   0.0000      -0.006647        -0.1809 
  43   0.0000       0.000137         0.0037 
  44   0.0000       0.008962         0.2439 
  45   0.0000       0.011559         0.3145 
  46   0.0000       0.024949         0.6789 
  47   0.0000       0.033159         0.9023 
  48   0.0000       0.048729         1.3260 
  49   0.0000       0.053037         1.4432 
  50   0.0000       0.059809         1.6275 
  51   0.0000       0.063375         1.7245 
  52   0.0000       0.080542         2.1917 
  53   0.0000       0.081370         2.2142 
  54   0.0000       0.092276         2.5110 
  55   0.0000       0.094238         2.5644 
  56   0.0000       0.104194         2.8353 
  57   0.0000       0.112261         3.0548 
  58   0.0000       0.132528         3.6063 
  59   0.0000       0.144919         3.9434 
  60   0.0000       0.155241         4.2243 
  61   0.0000       0.156460         4.2575 
  62   0.0000       0.156803         4.2668 
  63   0.0000       0.169118         4.6019 
  64   0.0000       0.183311         4.9881 
  65   0.0000       0.192331         5.2336 
  66   0.0000       0.229816         6.2536 
  67   0.0000       0.244863         6.6631 
  68   0.0000       0.245734         6.6868 
  69   0.0000       0.257245         7.0000 
  70   0.0000       0.269808         7.3419 
  71   0.0000       0.271350         7.3838 
  72   0.0000       0.282219         7.6796 
  73   0.0000       0.296392         8.0652 
  74   0.0000       0.313094         8.5197 
  75   0.0000       0.315728         8.5914 
  76   0.0000       0.333146         9.0654 
  77   0.0000       0.336420         9.1545 
  78   0.0000       0.342851         9.3294 
  79   0.0000       0.346483         9.4283 
  80   0.0000       0.362597         9.8668 
  81   0.0000       0.377439        10.2706 
  82   0.0000       0.394065        10.7230 
  83   0.0000       0.399519        10.8715 
  84   0.0000       0.424411        11.5488 
  85   0.0000       0.444420        12.0933 
  86   0.0000       0.447568        12.1789 
  87   0.0000       0.460386        12.5277 
  88   0.0000       0.473181        12.8759 
  89   0.0000       0.486249        13.2315 
  90   0.0000       0.508218        13.8293 
  91   0.0000       0.526591        14.3293 
  92   0.0000       0.534683        14.5495 
  93   0.0000       0.535601        14.5744 
  94   0.0000       0.553837        15.0707 
  95   0.0000       0.556224        15.1356 
  96   0.0000       0.563733        15.3399 
  97   0.0000       0.572316        15.5735 
  98   0.0000       0.574488        15.6326 
  99   0.0000       0.578466        15.7409 
 100   0.0000       0.608326        16.5534 
 101   0.0000       0.629664        17.1340 
 102   0.0000       0.642938        17.4952 
 103   0.0000       0.649562        17.6755 
 104   0.0000       0.680396        18.5145 
 105   0.0000       0.693665        18.8756 
 106   0.0000       0.697389        18.9769 
 107   0.0000       0.703426        19.1412 
 108   0.0000       0.708808        19.2876 
 109   0.0000       0.711977        19.3739 
 110   0.0000       0.722606        19.6631 
 111   0.0000       0.725532        19.7427 
 112   0.0000       0.732444        19.9308 
 113   0.0000       0.777162        21.1477 
 114   0.0000       0.797692        21.7063 
 115   0.0000       0.807457        21.9720 
 116   0.0000       0.808020        21.9873 
 117   0.0000       0.822016        22.3682 
 118   0.0000       0.823070        22.3969 
 119   0.0000       0.843922        22.9643 
 120   0.0000       0.844228        22.9726 
 121   0.0000       0.863799        23.5052 
 122   0.0000       0.888603        24.1801 
 123   0.0000       0.889794        24.2125 
 124   0.0000       0.912359        24.8265 
 125   0.0000       0.921172        25.0664 
 126   0.0000       0.928260        25.2592 
 127   0.0000       0.933897        25.4126 
 128   0.0000       0.939634        25.5687 
 129   0.0000       0.957135        26.0450 
 130   0.0000       0.957214        26.0471 
 131   0.0000       0.967948        26.3392 
 132   0.0000       1.009211        27.4620 
 133   0.0000       1.015385        27.6300 
 134   0.0000       1.029432        28.0123 
 135   0.0000       1.032708        28.1014 
 136   0.0000       1.051380        28.6095 
 137   0.0000       1.052744        28.6466 
 138   0.0000       1.084694        29.5160 
 139   0.0000       1.085873        29.5481 
 140   0.0000       1.092358        29.7246 
 141   0.0000       1.104493        30.0548 
 142   0.0000       1.147812        31.2335 
 143   0.0000       1.148217        31.2446 
 144   0.0000       1.158481        31.5239 
 145   0.0000       1.225274        33.3414 
 146   0.0000       1.241355        33.7790 
 147   0.0000       1.260983        34.3131 
 148   0.0000       1.287381        35.0314 
 149   0.0000       1.324786        36.0493 
 150   0.0000       1.325770        36.0760 
 151   0.0000       1.344708        36.5914 
 152   0.0000       1.346915        36.6514 
 153   0.0000       1.347533        36.6682 
 154   0.0000       1.392500        37.8918 
 155   0.0000       1.406779        38.2804 
 156   0.0000       1.426145        38.8074 
 157   0.0000       1.439808        39.1792 
 158   0.0000       1.443126        39.2694 
 159   0.0000       1.443882        39.2900 
 160   0.0000       1.456315        39.6284 
 161   0.0000       1.489622        40.5347 
 162   0.0000       1.504716        40.9454 
 163   0.0000       1.540677        41.9240 
 164   0.0000       1.550901        42.2022 
 165   0.0000       1.556779        42.3621 
 166   0.0000       1.565750        42.6062 
 167   0.0000       1.584146        43.1068 
 168   0.0000       1.601715        43.5849 
 169   0.0000       1.603745        43.6401 
 170   0.0000       1.612884        43.8888 
 171   0.0000       1.639611        44.6161 
 172   0.0000       1.640461        44.6392 
 173   0.0000       1.668575        45.4042 
 174   0.0000       1.672967        45.5238 
 175   0.0000       1.720854        46.8268 
 176   0.0000       1.732503        47.1438 
 177   0.0000       1.739837        47.3434 
 178   0.0000       1.749783        47.6140 
 179   0.0000       1.750147        47.6239 
 180   0.0000       1.775088        48.3026 
 181   0.0000       1.790508        48.7222 
 182   0.0000       1.793401        48.8009 
 183   0.0000       1.801788        49.0291 
 184   0.0000       1.820185        49.5297 
 185   0.0000       1.826631        49.7052 
 186   0.0000       1.829218        49.7755 
 187   0.0000       1.836367        49.9701 
 188   0.0000       1.852391        50.4061 
 189   0.0000       1.874694        51.0130 
 190   0.0000       1.909016        51.9470 
 191   0.0000       1.922030        52.3011 
 192   0.0000       1.949675        53.0534 
 193   0.0000       1.952630        53.1338 
 194   0.0000       1.978712        53.8435 
 195   0.0000       1.979353        53.8609 
 196   0.0000       1.994683        54.2781 
 197   0.0000       2.004835        54.5543 
 198   0.0000       2.021656        55.0120 
 199   0.0000       2.023205        55.0542 
 200   0.0000       2.041939        55.5640 
 201   0.0000       2.061639        56.1001 
 202   0.0000       2.071930        56.3801 
 203   0.0000       2.074458        56.4489 
 204   0.0000       2.104171        57.2574 
 205   0.0000       2.121159        57.7197 
 206   0.0000       2.127009        57.8789 
 207   0.0000       2.162546        58.8459 
 208   0.0000       2.177601        59.2555 
 209   0.0000       2.185294        59.4649 
 210   0.0000       2.206056        60.0298 
 211   0.0000       2.223724        60.5106 
 212   0.0000       2.228675        60.6453 
 213   0.0000       2.241280        60.9883 
 214   0.0000       2.242749        61.0283 
 215   0.0000       2.253550        61.3222 
 216   0.0000       2.278269        61.9949 
 217   0.0000       2.280767        62.0628 
 218   0.0000       2.286612        62.2219 
 219   0.0000       2.315026        62.9951 
 220   0.0000       2.315615        63.0111 
 221   0.0000       2.345450        63.8229 
 222   0.0000       2.355043        64.0840 
 223   0.0000       2.366613        64.3988 
 224   0.0000       2.375009        64.6273 
 225   0.0000       2.413988        65.6880 
 226   0.0000       2.423520        65.9473 
 227   0.0000       2.425773        66.0086 
 228   0.0000       2.429572        66.1120 
 229   0.0000       2.449016        66.6411 
 230   0.0000       2.455005        66.8041 
 231   0.0000       2.463463        67.0342 
 232   0.0000       2.474845        67.3439 
 233   0.0000       2.493162        67.8424 
 234   0.0000       2.496593        67.9358 
 235   0.0000       2.531490        68.8853 
 236   0.0000       2.540025        69.1176 
 237   0.0000       2.550270        69.3964 
 238   0.0000       2.560648        69.6788 
 239   0.0000       2.574459        70.0546 
 240   0.0000       2.580678        70.2238 
 241   0.0000       2.610807        71.0437 
 242   0.0000       2.620899        71.3183 
 243   0.0000       2.645674        71.9925 
 244   0.0000       2.648935        72.0812 
 245   0.0000       2.703225        73.5585 
 246   0.0000       2.731778        74.3355 
 247   0.0000       2.737006        74.4777 
 248   0.0000       2.782763        75.7228 
 249   0.0000       2.811273        76.4986 
 250   0.0000       2.822776        76.8116 
 251   0.0000       2.854702        77.6804 
 252   0.0000       2.866560        78.0031 
 253   0.0000       2.888019        78.5870 
 254   0.0000       2.904567        79.0373 
 255   0.0000       2.921581        79.5003 
 256   0.0000       2.955383        80.4201 
 257   0.0000       2.981182        81.1221 
 258   0.0000       3.015456        82.0547 
 259   0.0000       3.026598        82.3579 
 260   0.0000       3.052764        83.0699 
 261   0.0000       3.098512        84.3148 
 262   0.0000       3.107359        84.5555 
 263   0.0000       3.133924        85.2784 
 264   0.0000       3.147382        85.6446 
 265   0.0000       3.147841        85.6571 
 266   0.0000       3.149535        85.7032 
 267   0.0000       3.151999        85.7703 
 268   0.0000       3.193689        86.9047 
 269   0.0000       3.218907        87.5909 
 270   0.0000       3.229925        87.8907 
 271   0.0000       3.255129        88.5766 
 272   0.0000       3.257345        88.6369 
 273   0.0000       3.275353        89.1269 
 274   0.0000       3.289623        89.5152 
 275   0.0000       3.296994        89.7158 
 276   0.0000       3.298300        89.7513 
 277   0.0000       3.339461        90.8713 
 278   0.0000       3.349741        91.1511 
 279   0.0000       3.385447        92.1227 
 280   0.0000       3.387156        92.1692 
 281   0.0000       3.399217        92.4974 
 282   0.0000       3.422798        93.1391 
 283   0.0000       3.424197        93.1771 
 284   0.0000       3.436917        93.5233 
 285   0.0000       3.478003        94.6413 
 286   0.0000       3.498951        95.2113 
 287   0.0000       3.524267        95.9002 
 288   0.0000       3.574667        97.2716 
 289   0.0000       3.617628        98.4407 
 290   0.0000       3.631027        98.8053 
 291   0.0000       3.663150        99.6794 
 292   0.0000       3.698102       100.6305 
 293   0.0000       3.706958       100.8715 
 294   0.0000       3.715200       101.0957 
 295   0.0000       3.730392       101.5091 
 296   0.0000       3.742411       101.8362 
 297   0.0000       3.791975       103.1849 
 298   0.0000       3.809395       103.6589 
 299   0.0000       3.832251       104.2809 
 300   0.0000       3.854072       104.8746 
 301   0.0000       3.861645       105.0807 
 302   0.0000       3.891539       105.8942 
 303   0.0000       3.904590       106.2493 
 304   0.0000       3.927253       106.8660 
 305   0.0000       3.943425       107.3060 
 306   0.0000       3.957465       107.6881 
 307   0.0000       4.017810       109.3302 
 308   0.0000       4.074335       110.8683 
 309   0.0000       4.089448       111.2795 
 310   0.0000       4.133738       112.4847 
 311   0.0000       4.188603       113.9777 
 312   0.0000       4.275857       116.3520 
 313   0.0000       4.276419       116.3673 
 314   0.0000       4.344809       118.2283 
 315   0.0000       4.356748       118.5531 
 316   0.0000       4.369750       118.9069 
 317   0.0000       4.390107       119.4609 
 318   0.0000       4.475286       121.7787 
 319   0.0000       4.516235       122.8930 
 320   0.0000       4.536708       123.4501 
 321   0.0000       4.551987       123.8659 
 322   0.0000       4.605306       125.3168 
 323   0.0000       4.649476       126.5187 
 324   0.0000       4.653079       126.6167 
 325   0.0000       4.664322       126.9227 
 326   0.0000       4.700034       127.8944 
 327   0.0000       4.790270       130.3499 
 328   0.0000       4.796160       130.5102 
 329   0.0000       4.804875       130.7473 
 330   0.0000       4.829279       131.4114 
 331   0.0000       4.857518       132.1798 
 332   0.0000       4.879674       132.7827 
 333   0.0000       4.889600       133.0528 
 334   0.0000       4.889770       133.0574 
 335   0.0000       4.940646       134.4418 
 336   0.0000       4.993704       135.8856 
 337   0.0000       4.996686       135.9667 
 338   0.0000       5.005040       136.1940 
 339   0.0000       5.049762       137.4110 
 340   0.0000       5.078130       138.1829 
 341   0.0000       5.110935       139.0756 
 342   0.0000       5.132430       139.6605 
 343   0.0000       5.149271       140.1188 
 344   0.0000       5.154664       140.2655 
 345   0.0000       5.154728       140.2673 
 346   0.0000       5.162482       140.4783 
 347   0.0000       5.220756       142.0640 
 348   0.0000       5.234337       142.4336 
 349   0.0000       5.265102       143.2707 
 350   0.0000       5.307411       144.4220 
 351   0.0000       5.308697       144.4570 
 352   0.0000       5.319131       144.7409 
 353   0.0000       5.323066       144.8480 
 354   0.0000       5.412709       147.2873 
 355   0.0000       5.430548       147.7727 
 356   0.0000       5.438008       147.9757 
 357   0.0000       5.446773       148.2142 
 358   0.0000       5.489507       149.3771 
 359   0.0000       5.504010       149.7717 
 360   0.0000       5.526151       150.3742 
 361   0.0000       5.573128       151.6525 
 362   0.0000       5.595395       152.2584 
 363   0.0000       5.631251       153.2341 
 364   0.0000       5.666047       154.1810 
 365   0.0000       5.677979       154.5057 
 366   0.0000       5.680007       154.5609 
 367   0.0000       5.682104       154.6179 
 368   0.0000       5.683745       154.6626 
 369   0.0000       5.724818       155.7802 
 370   0.0000       5.740587       156.2093 
 371   0.0000       5.774805       157.1404 
 372   0.0000       5.806887       158.0134 
 373   0.0000       5.811931       158.1507 
 374   0.0000       5.834197       158.7566 
 375   0.0000       5.842330       158.9779 
 376   0.0000       5.845587       159.0665 
 377   0.0000       5.859054       159.4330 
 378   0.0000       5.879119       159.9790 
 379   0.0000       5.886573       160.1818 
 380   0.0000       5.888446       160.2328 
 381   0.0000       5.893790       160.3782 
 382   0.0000       5.902956       160.6276 
 383   0.0000       5.938333       161.5903 
 384   0.0000       5.959047       162.1539 
 385   0.0000       5.975027       162.5887 
 386   0.0000       5.992346       163.0600 
 387   0.0000       6.003053       163.3514 
 388   0.0000       6.028159       164.0345 
 389   0.0000       6.038529       164.3167 
 390   0.0000       6.041894       164.4083 
 391   0.0000       6.044934       164.4910 
 392   0.0000       6.070873       165.1968 
 393   0.0000       6.078023       165.3914 
 394   0.0000       6.087081       165.6379 
 395   0.0000       6.090595       165.7335 
 396   0.0000       6.123345       166.6247 
 397   0.0000       6.154888       167.4830 
 398   0.0000       6.156386       167.5238 
 399   0.0000       6.164506       167.7447 
 400   0.0000       6.178885       168.1360 
 401   0.0000       6.211914       169.0348 
 402   0.0000       6.250244       170.0778 
 403   0.0000       6.268249       170.5677 
 404   0.0000       6.313293       171.7934 
 405   0.0000       6.318193       171.9268 
 406   0.0000       6.329518       172.2350 
 407   0.0000       6.340730       172.5400 
 408   0.0000       6.378672       173.5725 
 409   0.0000       6.381643       173.6533 
 410   0.0000       6.383839       173.7131 
 411   0.0000       6.406236       174.3225 
 412   0.0000       6.421214       174.7301 
 413   0.0000       6.448426       175.4706 
 414   0.0000       6.459777       175.7795 
 415   0.0000       6.460903       175.8101 
 416   0.0000       6.481317       176.3656 
 417   0.0000       6.505790       177.0315 
 418   0.0000       6.507506       177.0783 
 419   0.0000       6.517960       177.3627 
 420   0.0000       6.547011       178.1532 
 421   0.0000       6.562187       178.5662 
 422   0.0000       6.564745       178.6358 
 423   0.0000       6.661424       181.2666 
 424   0.0000       6.684655       181.8987 
 425   0.0000       6.714485       182.7104 
 426   0.0000       6.720987       182.8873 
 427   0.0000       6.723923       182.9672 
 428   0.0000       6.763704       184.0497 
 429   0.0000       6.800842       185.0603 
 430   0.0000       6.809429       185.2940 
 431   0.0000       6.863266       186.7590 
 432   0.0000       6.892685       187.5595 
 433   0.0000       6.920045       188.3040 
 434   0.0000       6.932762       188.6500 
 435   0.0000       6.934752       188.7042 
 436   0.0000       7.051067       191.8693 
 437   0.0000       7.097471       193.1320 
 438   0.0000       7.099382       193.1840 
 439   0.0000       7.157698       194.7709 
 440   0.0000       7.166694       195.0157 
 441   0.0000       7.186467       195.5537 
 442   0.0000       7.199504       195.9085 
 443   0.0000       7.206141       196.0891 
 444   0.0000       7.239998       197.0104 
 445   0.0000       7.244882       197.1433 
 446   0.0000       7.261880       197.6058 
 447   0.0000       7.263789       197.6578 
 448   0.0000       7.314414       199.0353 
 449   0.0000       7.355232       200.1460 
 450   0.0000       7.364869       200.4083 
 451   0.0000       7.365903       200.4364 
 452   0.0000       7.422015       201.9633 
 453   0.0000       7.459356       202.9794 
 454   0.0000       7.467622       203.2043 
 455   0.0000       7.496104       203.9794 
 456   0.0000       7.531671       204.9472 
 457   0.0000       7.593979       206.6427 
 458   0.0000       7.614279       207.1951 
 459   0.0000       7.640229       207.9012 
 460   0.0000       7.663157       208.5251 
 461   0.0000       7.720154       210.0761 
 462   0.0000       7.723646       210.1711 
 463   0.0000       7.743254       210.7047 
 464   0.0000       7.748591       210.8499 
 465   0.0000       7.798808       212.2164 
 466   0.0000       7.876242       214.3234 
 467   0.0000       7.892489       214.7655 
 468   0.0000       7.913716       215.3432 
 469   0.0000       7.917829       215.4551 
 470   0.0000       7.949465       216.3159 
 471   0.0000       7.960901       216.6271 
 472   0.0000       7.962130       216.6606 
 473   0.0000       7.982008       217.2015 
 474   0.0000       7.997229       217.6157 
 475   0.0000       8.031617       218.5514 
 476   0.0000       8.034710       218.6356 
 477   0.0000       8.038231       218.7314 
 478   0.0000       8.071040       219.6242 
 479   0.0000       8.083046       219.9509 
 480   0.0000       8.090146       220.1441 
 481   0.0000       8.095761       220.2969 
 482   0.0000       8.139482       221.4866 
 483   0.0000       8.144343       221.6188 
 484   0.0000       8.164175       222.1585 
 485   0.0000       8.189170       222.8386 
 486   0.0000       8.193407       222.9539 
 487   0.0000       8.219721       223.6700 
 488   0.0000       8.230340       223.9589 
 489   0.0000       8.313364       226.2181 
 490   0.0000       8.316169       226.2945 
 491   0.0000       8.347390       227.1440 
 492   0.0000       8.374933       227.8935 
 493   0.0000       8.436334       229.5643 
 494   0.0000       8.441784       229.7126 
 495   0.0000       8.447239       229.8611 
 496   0.0000       8.477599       230.6872 
 497   0.0000       8.521034       231.8691 
 498   0.0000       8.524548       231.9648 
 499   0.0000       8.550009       232.6576 
 500   0.0000       8.640707       235.1256 
 501   0.0000       8.649539       235.3659 
 502   0.0000       8.664422       235.7709 
 503   0.0000       8.693073       236.5505 
 504   0.0000       8.751877       238.1507 
 505   0.0000       8.771205       238.6766 
 506   0.0000       8.869764       241.3585 
 507   0.0000       9.101887       247.6749 
 508   0.0000       9.182393       249.8656 
 509   0.0000       9.243117       251.5180 
 510   0.0000       9.314102       253.4496 
 511   0.0000       9.401836       255.8370 
 512   0.0000       9.455699       257.3027 
 513   0.0000       9.463612       257.5180 
 514   0.0000       9.511091       258.8099 
 515   0.0000       9.556645       260.0495 
 516   0.0000       9.567935       260.3568 
 517   0.0000       9.604882       261.3621 
 518   0.0000       9.629521       262.0326 
 519   0.0000       9.761411       265.6215 
 520   0.0000       9.775385       266.0018 
 521   0.0000       9.800103       266.6744 
 522   0.0000       9.823072       267.2994 
 523   0.0000       9.858504       268.2635 
 524   0.0000       9.997450       272.0444 
 525   0.0000      10.008813       272.3537 
 526   0.0000      10.016281       272.5569 
 527   0.0000      10.050687       273.4931 
 528   0.0000      10.272670       279.5336 
 529   0.0000      10.409381       283.2536 
 530   0.0000      10.415123       283.4099 
 531   0.0000      10.436050       283.9794 
 532   0.0000      10.460635       284.6483 
 533   0.0000      10.508570       285.9527 
 534   0.0000      10.575754       287.7809 
 535   0.0000      10.653320       289.8916 
 536   0.0000      10.795865       293.7704 
 537   0.0000      11.015506       299.7472 
 538   0.0000      11.398419       310.1668 
 539   0.0000      11.843543       322.2792 
 540   0.0000      12.352805       336.1369 
 541   0.0000      12.451151       338.8131 
 542   0.0000      12.619477       343.3934 
 543   0.0000      12.900240       351.0334 
 544   0.0000      27.590393       750.7727 
 545   0.0000      28.063200       763.6385 
 546   0.0000      28.260398       769.0045 
 547   0.0000      28.553471       776.9794 
 548   0.0000      28.740601       782.0715 
 549   0.0000      28.841898       784.8279 
 550   0.0000      29.049167       790.4680 
 551   0.0000      41.456437      1128.0870 
 552   0.0000      41.473767      1128.5586 
 553   0.0000      41.585204      1131.5909 
 554   0.0000      98.295245      2674.7496 
 555   0.0000     146.659090      3990.7967 
 556   0.0000     147.113582      4003.1641 
 557   0.0000     147.302313      4008.2997 
 558   0.0000     147.583633      4015.9548 
 559   0.0000     147.743774      4020.3125 
 560   0.0000     148.071545      4029.2316 
 561   0.0000     525.659452     14303.9209 

                 SPIN DOWN ORBITALS
  NO   OCC          E(Eh)            E(eV) 
   0   1.0000    -101.758032     -2768.9768 
   1   1.0000     -10.479487      -285.1613 
   2   1.0000     -10.418370      -283.4983 
   3   1.0000     -10.407807      -283.2108 
   4   1.0000     -10.407798      -283.2106 
   5   1.0000     -10.400744      -283.0186 
   6   1.0000     -10.400731      -283.0183 
   7   1.0000      -9.686460      -263.5820 
   8   1.0000      -7.448588      -202.6864 
   9   1.0000      -7.440184      -202.4577 
  10   1.0000      -7.438909      -202.4230 
  11   1.0000      -1.105610       -30.0852 
  12   1.0000      -1.048357       -28.5272 
  13   1.0000      -0.966926       -26.3114 
  14   1.0000      -0.946028       -25.7427 
  15   1.0000      -0.828898       -22.5555 
  16   1.0000      -0.807092       -21.9621 
  17   1.0000      -0.730842       -19.8872 
  18   1.0000      -0.684194       -18.6179 
  19   1.0000      -0.667656       -18.1678 
  20   1.0000      -0.641586       -17.4584 
  21   1.0000      -0.635404       -17.2902 
  22   1.0000      -0.597355       -16.2548 
  23   1.0000      -0.571393       -15.5484 
  24   1.0000      -0.566157       -15.4059 
  25   1.0000      -0.527933       -14.3658 
  26   1.0000      -0.519798       -14.1444 
  27   1.0000      -0.470226       -12.7955 
  28   0.0000      -0.402311       -10.9474 
  29   0.0000      -0.220072        -5.9885 
  30   0.0000      -0.217293        -5.9129 
  31   0.0000      -0.179756        -4.8914 
  32   0.0000      -0.121478        -3.3056 
  33   0.0000      -0.098343        -2.6761 
  34   0.0000      -0.097216        -2.6454 
  35   0.0000      -0.076429        -2.0797 
  36   0.0000      -0.072221        -1.9652 
  37   0.0000      -0.065055        -1.7702 
  38   0.0000      -0.061223        -1.6659 
  39   0.0000      -0.041236        -1.1221 
  40   0.0000      -0.025350        -0.6898 
  41   0.0000      -0.008662        -0.2357 
  42   0.0000      -0.005696        -0.1550 
  43   0.0000       0.005034         0.1370 
  44   0.0000       0.011883         0.3233 
  45   0.0000       0.012224         0.3326 
  46   0.0000       0.027227         0.7409 
  47   0.0000       0.033960         0.9241 
  48   0.0000       0.049735         1.3534 
  49   0.0000       0.055557         1.5118 
  50   0.0000       0.064759         1.7622 
  51   0.0000       0.066469         1.8087 
  52   0.0000       0.083091         2.2610 
  53   0.0000       0.087308         2.3758 
  54   0.0000       0.093353         2.5403 
  55   0.0000       0.097921         2.6646 
  56   0.0000       0.109279         2.9736 
  57   0.0000       0.113328         3.0838 
  58   0.0000       0.139370         3.7924 
  59   0.0000       0.151608         4.1255 
  60   0.0000       0.156989         4.2719 
  61   0.0000       0.159603         4.3430 
  62   0.0000       0.160737         4.3739 
  63   0.0000       0.169805         4.6206 
  64   0.0000       0.183992         5.0067 
  65   0.0000       0.197609         5.3772 
  66   0.0000       0.230601         6.2750 
  67   0.0000       0.245571         6.6823 
  68   0.0000       0.248407         6.7595 
  69   0.0000       0.257757         7.0139 
  70   0.0000       0.273999         7.4559 
  71   0.0000       0.277166         7.5421 
  72   0.0000       0.282513         7.6876 
  73   0.0000       0.299673         8.1545 
  74   0.0000       0.315857         8.5949 
  75   0.0000       0.317152         8.6302 
  76   0.0000       0.334341         9.0979 
  77   0.0000       0.343515         9.3475 
  78   0.0000       0.343569         9.3490 
  79   0.0000       0.347562         9.4576 
  80   0.0000       0.365522         9.9464 
  81   0.0000       0.378600        10.3022 
  82   0.0000       0.399307        10.8657 
  83   0.0000       0.404380        11.0037 
  84   0.0000       0.427341        11.6285 
  85   0.0000       0.446986        12.1631 
  86   0.0000       0.452237        12.3060 
  87   0.0000       0.462364        12.5816 
  88   0.0000       0.474618        12.9150 
  89   0.0000       0.491397        13.3716 
  90   0.0000       0.511911        13.9298 
  91   0.0000       0.528600        14.3839 
  92   0.0000       0.535641        14.5755 
  93   0.0000       0.539534        14.6815 
  94   0.0000       0.559067        15.2130 
  95   0.0000       0.559163        15.2156 
  96   0.0000       0.573645        15.6097 
  97   0.0000       0.574177        15.6241 
  98   0.0000       0.579977        15.7820 
  99   0.0000       0.580266        15.7899 
 100   0.0000       0.616129        16.7657 
 101   0.0000       0.631269        17.1777 
 102   0.0000       0.648090        17.6354 
 103   0.0000       0.649885        17.6843 
 104   0.0000       0.681327        18.5398 
 105   0.0000       0.698783        19.0148 
 106   0.0000       0.699485        19.0340 
 107   0.0000       0.705995        19.2111 
 108   0.0000       0.712898        19.3989 
 109   0.0000       0.716968        19.5097 
 110   0.0000       0.723665        19.6919 
 111   0.0000       0.725943        19.7539 
 112   0.0000       0.734252        19.9800 
 113   0.0000       0.777200        21.1487 
 114   0.0000       0.804126        21.8814 
 115   0.0000       0.810796        22.0629 
 116   0.0000       0.813367        22.1328 
 117   0.0000       0.823833        22.4176 
 118   0.0000       0.826298        22.4847 
 119   0.0000       0.845911        23.0184 
 120   0.0000       0.847950        23.0739 
 121   0.0000       0.865585        23.5538 
 122   0.0000       0.889938        24.2164 
 123   0.0000       0.891631        24.2625 
 124   0.0000       0.919787        25.0287 
 125   0.0000       0.927987        25.2518 
 126   0.0000       0.934290        25.4233 
 127   0.0000       0.936318        25.4785 
 128   0.0000       0.942914        25.6580 
 129   0.0000       0.958780        26.0897 
 130   0.0000       0.962949        26.2032 
 131   0.0000       0.970799        26.4168 
 132   0.0000       1.011466        27.5234 
 133   0.0000       1.018807        27.7231 
 134   0.0000       1.031809        28.0769 
 135   0.0000       1.041204        28.3326 
 136   0.0000       1.054896        28.7052 
 137   0.0000       1.056001        28.7352 
 138   0.0000       1.087566        29.5942 
 139   0.0000       1.088745        29.6263 
 140   0.0000       1.096100        29.8264 
 141   0.0000       1.108780        30.1714 
 142   0.0000       1.151143        31.3242 
 143   0.0000       1.156000        31.4563 
 144   0.0000       1.160420        31.5766 
 145   0.0000       1.234294        33.5868 
 146   0.0000       1.243738        33.8438 
 147   0.0000       1.262282        34.3484 
 148   0.0000       1.291209        35.1356 
 149   0.0000       1.329943        36.1896 
 150   0.0000       1.329973        36.1904 
 151   0.0000       1.347313        36.6623 
 152   0.0000       1.347658        36.6716 
 153   0.0000       1.352711        36.8091 
 154   0.0000       1.394678        37.9511 
 155   0.0000       1.410136        38.3717 
 156   0.0000       1.428876        38.8817 
 157   0.0000       1.440606        39.2009 
 158   0.0000       1.448915        39.4270 
 159   0.0000       1.450000        39.4565 
 160   0.0000       1.463641        39.8277 
 161   0.0000       1.491251        40.5790 
 162   0.0000       1.505470        40.9659 
 163   0.0000       1.542189        41.9651 
 164   0.0000       1.556705        42.3601 
 165   0.0000       1.561665        42.4951 
 166   0.0000       1.574292        42.8387 
 167   0.0000       1.592390        43.3311 
 168   0.0000       1.605683        43.6929 
 169   0.0000       1.610128        43.8138 
 170   0.0000       1.614014        43.9196 
 171   0.0000       1.641805        44.6758 
 172   0.0000       1.642865        44.7046 
 173   0.0000       1.670654        45.4608 
 174   0.0000       1.680156        45.7194 
 175   0.0000       1.724166        46.9169 
 176   0.0000       1.736911        47.2637 
 177   0.0000       1.747186        47.5433 
 178   0.0000       1.750098        47.6226 
 179   0.0000       1.757849        47.8335 
 180   0.0000       1.778157        48.3861 
 181   0.0000       1.794478        48.8302 
 182   0.0000       1.799788        48.9747 
 183   0.0000       1.809268        49.2327 
 184   0.0000       1.822022        49.5797 
 185   0.0000       1.831883        49.8481 
 186   0.0000       1.835739        49.9530 
 187   0.0000       1.837896        50.0117 
 188   0.0000       1.855187        50.4822 
 189   0.0000       1.881683        51.2032 
 190   0.0000       1.912423        52.0397 
 191   0.0000       1.926916        52.4340 
 192   0.0000       1.954589        53.1871 
 193   0.0000       1.955277        53.2058 
 194   0.0000       1.981389        53.9163 
 195   0.0000       1.982975        53.9595 
 196   0.0000       1.997745        54.3614 
 197   0.0000       2.005445        54.5709 
 198   0.0000       2.026149        55.1343 
 199   0.0000       2.026702        55.1494 
 200   0.0000       2.044078        55.6222 
 201   0.0000       2.064612        56.1809 
 202   0.0000       2.078175        56.5500 
 203   0.0000       2.078421        56.5567 
 204   0.0000       2.108417        57.3730 
 205   0.0000       2.124760        57.8177 
 206   0.0000       2.128406        57.9169 
 207   0.0000       2.167116        58.9702 
 208   0.0000       2.184741        59.4498 
 209   0.0000       2.191829        59.6427 
 210   0.0000       2.208866        60.1063 
 211   0.0000       2.232840        60.7587 
 212   0.0000       2.234998        60.8174 
 213   0.0000       2.242823        61.0303 
 214   0.0000       2.246373        61.1269 
 215   0.0000       2.258736        61.4633 
 216   0.0000       2.281709        62.0885 
 217   0.0000       2.289812        62.3090 
 218   0.0000       2.293699        62.4147 
 219   0.0000       2.318487        63.0892 
 220   0.0000       2.319609        63.1198 
 221   0.0000       2.347766        63.8860 
 222   0.0000       2.357970        64.1636 
 223   0.0000       2.369164        64.4682 
 224   0.0000       2.382470        64.8303 
 225   0.0000       2.415608        65.7320 
 226   0.0000       2.425410        65.9988 
 227   0.0000       2.431480        66.1639 
 228   0.0000       2.433450        66.2175 
 229   0.0000       2.450464        66.6805 
 230   0.0000       2.458362        66.8954 
 231   0.0000       2.466506        67.1170 
 232   0.0000       2.482771        67.5596 
 233   0.0000       2.494985        67.8920 
 234   0.0000       2.500687        68.0471 
 235   0.0000       2.532657        68.9171 
 236   0.0000       2.543868        69.2222 
 237   0.0000       2.556666        69.5704 
 238   0.0000       2.562662        69.7336 
 239   0.0000       2.576678        70.1150 
 240   0.0000       2.583303        70.2952 
 241   0.0000       2.613316        71.1119 
 242   0.0000       2.622567        71.3637 
 243   0.0000       2.649415        72.0942 
 244   0.0000       2.650289        72.1180 
 245   0.0000       2.705499        73.6204 
 246   0.0000       2.737691        74.4964 
 247   0.0000       2.741695        74.6053 
 248   0.0000       2.787806        75.8601 
 249   0.0000       2.817536        76.6691 
 250   0.0000       2.825864        76.8957 
 251   0.0000       2.856279        77.7233 
 252   0.0000       2.872808        78.1731 
 253   0.0000       2.888946        78.6122 
 254   0.0000       2.905768        79.0700 
 255   0.0000       2.930715        79.7488 
 256   0.0000       2.959500        80.5321 
 257   0.0000       2.986920        81.2782 
 258   0.0000       3.022091        82.2353 
 259   0.0000       3.031519        82.4918 
 260   0.0000       3.057110        83.1882 
 261   0.0000       3.099720        84.3477 
 262   0.0000       3.111832        84.6772 
 263   0.0000       3.139644        85.4340 
 264   0.0000       3.149304        85.6969 
 265   0.0000       3.155496        85.8654 
 266   0.0000       3.156533        85.8936 
 267   0.0000       3.156794        85.9007 
 268   0.0000       3.199004        87.0493 
 269   0.0000       3.227278        87.8187 
 270   0.0000       3.231274        87.9274 
 271   0.0000       3.257526        88.6418 
 272   0.0000       3.261316        88.7449 
 273   0.0000       3.285043        89.3906 
 274   0.0000       3.291722        89.5723 
 275   0.0000       3.298906        89.7678 
 276   0.0000       3.300620        89.8144 
 277   0.0000       3.347212        91.0823 
 278   0.0000       3.354017        91.2674 
 279   0.0000       3.395733        92.4026 
 280   0.0000       3.396691        92.4287 
 281   0.0000       3.401258        92.5529 
 282   0.0000       3.430748        93.3554 
 283   0.0000       3.434108        93.4468 
 284   0.0000       3.445928        93.7685 
 285   0.0000       3.486294        94.8669 
 286   0.0000       3.505943        95.4016 
 287   0.0000       3.529112        96.0320 
 288   0.0000       3.576099        97.3106 
 289   0.0000       3.620976        98.5318 
 290   0.0000       3.642616        99.1206 
 291   0.0000       3.664662        99.7205 
 292   0.0000       3.710599       100.9705 
 293   0.0000       3.710840       100.9771 
 294   0.0000       3.721969       101.2799 
 295   0.0000       3.739959       101.7695 
 296   0.0000       3.749896       102.0399 
 297   0.0000       3.799021       103.3766 
 298   0.0000       3.814372       103.7943 
 299   0.0000       3.836683       104.4015 
 300   0.0000       3.861425       105.0747 
 301   0.0000       3.862755       105.1109 
 302   0.0000       3.897080       106.0449 
 303   0.0000       3.906431       106.2994 
 304   0.0000       3.930041       106.9418 
 305   0.0000       3.951686       107.5309 
 306   0.0000       3.961130       107.7878 
 307   0.0000       4.019806       109.3845 
 308   0.0000       4.078796       110.9897 
 309   0.0000       4.092880       111.3729 
 310   0.0000       4.140802       112.6770 
 311   0.0000       4.195257       114.1588 
 312   0.0000       4.279531       116.4520 
 313   0.0000       4.279649       116.4552 
 314   0.0000       4.354843       118.5013 
 315   0.0000       4.359857       118.6377 
 316   0.0000       4.371967       118.9673 
 317   0.0000       4.391844       119.5082 
 318   0.0000       4.479006       121.8800 
 319   0.0000       4.522752       123.0704 
 320   0.0000       4.542613       123.6108 
 321   0.0000       4.553493       123.9069 
 322   0.0000       4.614007       125.5535 
 323   0.0000       4.655466       126.6817 
 324   0.0000       4.661472       126.8451 
 325   0.0000       4.671133       127.1080 
 326   0.0000       4.703207       127.9808 
 327   0.0000       4.794456       130.4638 
 328   0.0000       4.800571       130.6302 
 329   0.0000       4.817084       131.0795 
 330   0.0000       4.830758       131.4516 
 331   0.0000       4.860958       132.2734 
 332   0.0000       4.883191       132.8784 
 333   0.0000       4.895457       133.2122 
 334   0.0000       4.902432       133.4020 
 335   0.0000       4.948972       134.6684 
 336   0.0000       4.997413       135.9865 
 337   0.0000       5.000891       136.0812 
 338   0.0000       5.014587       136.4539 
 339   0.0000       5.056342       137.5901 
 340   0.0000       5.086068       138.3989 
 341   0.0000       5.115763       139.2070 
 342   0.0000       5.135084       139.7327 
 343   0.0000       5.156120       140.3052 
 344   0.0000       5.158567       140.3717 
 345   0.0000       5.163010       140.4926 
 346   0.0000       5.163189       140.4975 
 347   0.0000       5.227058       142.2355 
 348   0.0000       5.241566       142.6303 
 349   0.0000       5.268549       143.3645 
 350   0.0000       5.311207       144.5253 
 351   0.0000       5.311209       144.5253 
 352   0.0000       5.322234       144.8254 
 353   0.0000       5.328311       144.9907 
 354   0.0000       5.422047       147.5414 
 355   0.0000       5.431746       147.8053 
 356   0.0000       5.444527       148.1531 
 357   0.0000       5.451605       148.3457 
 358   0.0000       5.496120       149.5570 
 359   0.0000       5.508583       149.8962 
 360   0.0000       5.531841       150.5291 
 361   0.0000       5.576917       151.7556 
 362   0.0000       5.603131       152.4689 
 363   0.0000       5.633821       153.3041 
 364   0.0000       5.671350       154.3253 
 365   0.0000       5.683183       154.6473 
 366   0.0000       5.688494       154.7918 
 367   0.0000       5.689419       154.8169 
 368   0.0000       5.689608       154.8221 
 369   0.0000       5.727905       155.8642 
 370   0.0000       5.747573       156.3994 
 371   0.0000       5.778034       157.2283 
 372   0.0000       5.810601       158.1145 
 373   0.0000       5.816634       158.2787 
 374   0.0000       5.843577       159.0118 
 375   0.0000       5.846064       159.0795 
 376   0.0000       5.849695       159.1783 
 377   0.0000       5.862217       159.5190 
 378   0.0000       5.883599       160.1009 
 379   0.0000       5.888977       160.2472 
 380   0.0000       5.889870       160.2715 
 381   0.0000       5.902037       160.6026 
 382   0.0000       5.905705       160.7024 
 383   0.0000       5.942311       161.6985 
 384   0.0000       5.961544       162.2219 
 385   0.0000       5.979934       162.7223 
 386   0.0000       5.999723       163.2608 
 387   0.0000       6.015472       163.6893 
 388   0.0000       6.030627       164.1017 
 389   0.0000       6.043977       164.4650 
 390   0.0000       6.048310       164.5829 
 391   0.0000       6.049830       164.6242 
 392   0.0000       6.076729       165.3562 
 393   0.0000       6.080863       165.4687 
 394   0.0000       6.097436       165.9197 
 395   0.0000       6.097750       165.9282 
 396   0.0000       6.131671       166.8513 
 397   0.0000       6.159207       167.6005 
 398   0.0000       6.170155       167.8984 
 399   0.0000       6.172203       167.9542 
 400   0.0000       6.183184       168.2530 
 401   0.0000       6.213155       169.0686 
 402   0.0000       6.254453       170.1923 
 403   0.0000       6.278211       170.8388 
 404   0.0000       6.317585       171.9102 
 405   0.0000       6.329871       172.2445 
 406   0.0000       6.331970       172.3017 
 407   0.0000       6.347521       172.7248 
 408   0.0000       6.384004       173.7176 
 409   0.0000       6.385368       173.7547 
 410   0.0000       6.388567       173.8417 
 411   0.0000       6.413185       174.5116 
 412   0.0000       6.428279       174.9224 
 413   0.0000       6.460213       175.7913 
 414   0.0000       6.463038       175.8682 
[...]
      dx2y2   :     0.203618
      dxy     :     0.143889
      f0      :     0.006018  f :     0.111427
      f+1     :     0.007552
      f-1     :     0.006548
      f+2     :     0.003824
      f-2     :     0.021384
      f+3     :     0.048785
      f-3     :     0.017315
      g0      :     0.000346  g :     0.011157
      g+1     :     0.001483
      g-1     :     0.000585
      g+2     :     0.001223
      g-2     :     0.001258
      g+3     :     0.000057
      g-3     :     0.000734
      g+4     :     0.003406
      g-4     :     0.002066
  4 C s       :     2.597325  s :     2.597325
      pz      :     0.710404  p :     2.659997
      px      :     0.968787
      py      :     0.980806
      dz2     :     0.037804  d :     0.470828
      dxz     :     0.035475
      dyz     :     0.053078
      dx2y2   :     0.154743
      dxy     :     0.189727
      f0      :     0.006788  f :     0.107701
      f+1     :     0.007039
      f-1     :     0.007388
      f+2     :     0.014359
      f-2     :     0.006191
      f+3     :     0.048249
      f-3     :     0.017688
      g0      :     0.000359  g :     0.011175
      g+1     :     0.000724
      g-1     :     0.001017
      g+2     :     0.001284
      g-2     :     0.001238
      g+3     :     0.000040
      g-3     :     0.000886
      g+4     :     0.002710
      g-4     :     0.002917
  5 C s       :     2.600405  s :     2.600405
      pz      :     0.706193  p :     2.671446
      px      :     0.961463
      py      :     1.003790
      dz2     :     0.040581  d :     0.484765
      dxz     :     0.035552
      dyz     :     0.064426
      dx2y2   :     0.154768
      dxy     :     0.189438
      f0      :     0.007303  f :     0.109386
      f+1     :     0.007251
      f-1     :     0.007820
      f+2     :     0.013029
      f-2     :     0.009611
      f+3     :     0.045504
      f-3     :     0.018869
      g0      :     0.000381  g :     0.011362
      g+1     :     0.000798
      g-1     :     0.001157
      g+2     :     0.001135
      g-2     :     0.001367
      g+3     :     0.000078
      g-3     :     0.000921
      g+4     :     0.002296
      g-4     :     0.003230
  6 H s       :     0.772321  s :     0.772321
      pz      :     0.044490  p :     0.180834
      px      :     0.079920
      py      :     0.056424
      dz2     :     0.004903  d :     0.062305
      dxz     :     0.012736
      dyz     :     0.006130
      dx2y2   :     0.022283
      dxy     :     0.016254
      f0      :     0.000953  f :     0.009129
      f+1     :     0.000784
      f-1     :     0.000451
      f+2     :     0.000250
      f-2     :     0.001376
      f+3     :     0.003268
      f-3     :     0.002047
  7 H s       :     0.772297  s :     0.772297
      pz      :     0.044041  p :     0.179604
      px      :     0.084818
      py      :     0.050745
      dz2     :     0.004859  d :     0.061564
      dxz     :     0.014316
      dyz     :     0.004248
      dx2y2   :     0.020475
      dxy     :     0.017666
      f0      :     0.000936  f :     0.009026
      f+1     :     0.000831
      f-1     :     0.000390
      f+2     :     0.000512
      f-2     :     0.001068
      f+3     :     0.003253
      f-3     :     0.002034
  8 H s       :     0.770513  s :     0.770513
      pz      :     0.035706  p :     0.174842
      px      :     0.040367
      py      :     0.098769
      dz2     :     0.004912  d :     0.060133
      dxz     :     0.000302
      dyz     :     0.015569
      dx2y2   :     0.015300
      dxy     :     0.024050
      f0      :     0.000803  f :     0.008927
      f+1     :     0.000245
      f-1     :     0.000998
      f+2     :     0.001333
      f-2     :     0.000049
      f+3     :     0.003430
      f-3     :     0.002069
  9 H s       :     0.772296  s :     0.772296
      pz      :     0.044042  p :     0.179605
      px      :     0.080395
      py      :     0.055168
      dz2     :     0.004859  d :     0.061565
      dxz     :     0.012870
      dyz     :     0.005695
      dx2y2   :     0.021790
      dxy     :     0.016351
      f0      :     0.000936  f :     0.009026
      f+1     :     0.000773
      f-1     :     0.000449
      f+2     :     0.000278
      f-2     :     0.001303
      f+3     :     0.003261
      f-3     :     0.002026
 10 H s       :     0.772319  s :     0.772319
      pz      :     0.044491  p :     0.180840
      px      :     0.084605
      py      :     0.051744
      dz2     :     0.004903  d :     0.062308
      dxz     :     0.014235
      dyz     :     0.004631
      dx2y2   :     0.021048
      dxy     :     0.017490
      f0      :     0.000953  f :     0.009130
      f+1     :     0.000844
      f-1     :     0.000391
      f+2     :     0.000480
      f-2     :     0.001146
      f+3     :     0.003280
      f-3     :     0.002035
 11 Cls       :     5.515179  s :     5.515179
      pz      :     3.569927  p :    10.589016
      px      :     3.790282
      py      :     3.228808
      dz2     :     0.017145  d :     0.128397
      dxz     :     0.000687
      dyz     :     0.029785
      dx2y2   :     0.049806
      dxy     :     0.030975
      f0      :     0.003253  f :     0.035349
      f+1     :     0.000850
      f-1     :     0.004885
      f+2     :     0.005111
      f-2     :     0.000303
      f+3     :     0.012025
      f-3     :     0.008923
      g0      :     0.000168  g :     0.003541
      g+1     :     0.000007
      g-1     :     0.000435
      g+2     :     0.000380
      g-2     :     0.000168
      g+3     :     0.000038
      g-3     :     0.000351
      g+4     :     0.000774
      g-4     :     0.001219

SPIN
  0 C s       :     0.004454  s :     0.004454
      pz      :     0.185091  p :     0.187661
      px      :     0.001269
      py      :     0.001302
      dz2     :    -0.000576  d :     0.019217
      dxz     :     0.004937
      dyz     :     0.014565
      dx2y2   :     0.000275
      dxy     :     0.000014
      f0      :    -0.000597  f :     0.006483
      f+1     :    -0.000219
      f-1     :    -0.000196
      f+2     :     0.006508
      f-2     :     0.000902
      f+3     :     0.000063
      f-3     :     0.000021
      g0      :    -0.000004  g :     0.000296
      g+1     :     0.000064
      g-1     :     0.000296
      g+2     :    -0.000006
      g-2     :    -0.000032
      g+3     :    -0.000003
      g-3     :    -0.000020
      g+4     :     0.000004
      g-4     :    -0.000002
  1 C s       :     0.000832  s :     0.000832
      pz      :     0.059858  p :     0.058661
      px      :    -0.001371
      py      :     0.000174
      dz2     :    -0.000305  d :     0.019876
      dxz     :     0.011797
      dyz     :     0.008136
      dx2y2   :     0.000046
      dxy     :     0.000202
      f0      :     0.000295  f :     0.007216
      f+1     :    -0.000097
      f-1     :    -0.000070
      f+2     :     0.004217
      f-2     :     0.002829
      f+3     :    -0.000063
      f-3     :     0.000104
      g0      :    -0.000004  g :     0.000589
      g+1     :     0.000344
      g-1     :     0.000141
      g+2     :    -0.000002
      g-2     :    -0.000019
      g+3     :     0.000041
      g-3     :     0.000076
      g+4     :     0.000011
      g-4     :     0.000001
  2 C s       :    -0.000675  s :    -0.000675
      pz      :     0.005499  p :     0.001591
      px      :    -0.002206
      py      :    -0.001703
      dz2     :     0.000032  d :     0.036844
      dxz     :     0.011118
      dyz     :     0.024288
      dx2y2   :     0.000525
      dxy     :     0.000882
      f0      :     0.000841  f :     0.009903
      f+1     :    -0.000015
      f-1     :    -0.000024
      f+2     :     0.003811
      f-2     :     0.004954
      f+3     :     0.000096
      f-3     :     0.000239
      g0      :    -0.000004  g :     0.000844
      g+1     :     0.000275
      g-1     :     0.000383
      g+2     :     0.000006
      g-2     :    -0.000015
      g+3     :     0.000009
      g-3     :     0.000147
      g+4     :     0.000025
      g-4     :     0.000019
  3 C s       :     0.005059  s :     0.005059
      pz      :     0.232342  p :     0.238998
      px      :     0.003250
      py      :     0.003406
      dz2     :    -0.001292  d :    -0.006158
      dxz     :    -0.002146
      dyz     :    -0.001768
      dx2y2   :    -0.000595
      dxy     :    -0.000357
      f0      :    -0.001028  f :    -0.001596
      f+1     :    -0.000247
      f-1     :    -0.000287
      f+2     :     0.000865
      f-2     :    -0.000616
      f+3     :    -0.000041
      f-3     :    -0.000242
      g0      :    -0.000003  g :    -0.000206
      g+1     :    -0.000075
      g-1     :     0.000018
      g+2     :    -0.000021
      g-2     :    -0.000021
      g+3     :    -0.000001
      g-3     :    -0.000069
      g+4     :    -0.000019
      g-4     :    -0.000014
  4 C s       :    -0.000676  s :    -0.000676
      pz      :     0.005436  p :     0.001526
      px      :    -0.002445
      py      :    -0.001466
      dz2     :     0.000032  d :     0.036851
      dxz     :     0.014037
      dyz     :     0.021375
      dx2y2   :     0.000656
      dxy     :     0.000750
      f0      :     0.000842  f :     0.009906
      f+1     :    -0.000018
      f-1     :    -0.000021
      f+2     :     0.005303
      f-2     :     0.003466
      f+3     :     0.000114
      f-3     :     0.000222
      g0      :    -0.000004  g :     0.000844
      g+1     :     0.000329
      g-1     :     0.000328
      g+2     :     0.000004
      g-2     :    -0.000013
      g+3     :     0.000015
      g-3     :     0.000142
      g+4     :     0.000029
      g-4     :     0.000014
  5 C s       :     0.000834  s :     0.000834
      pz      :     0.059933  p :     0.058738
      px      :    -0.001123
      py      :    -0.000072
      dz2     :    -0.000306  d :     0.019870
      dxz     :     0.009817
      dyz     :     0.010110
      dx2y2   :    -0.000146
      dxy     :     0.000395
      f0      :     0.000294  f :     0.007213
      f+1     :    -0.000096
      f-1     :    -0.000071
      f+2     :     0.002891
      f-2     :     0.004153
      f+3     :    -0.000093
      f-3     :     0.000135
      g0      :    -0.000004  g :     0.000589
      g+1     :     0.000298
      g-1     :     0.000187
      g+2     :     0.000001
      g-2     :    -0.000022
      g+3     :     0.000020
      g-3     :     0.000097
      g+4     :     0.000009
      g-4     :     0.000003
  6 H s       :    -0.001692  s :    -0.001692
      pz      :     0.004243  p :     0.004456
      px      :     0.000184
      py      :     0.000029
      dz2     :    -0.000008  d :     0.002094
      dxz     :     0.001828
      dyz     :     0.000275
      dx2y2   :    -0.000069
      dxy     :     0.000068
      f0      :     0.000104  f :     0.000294
      f+1     :    -0.000002
      f-1     :    -0.000002
      f+2     :     0.000075
      f-2     :     0.000125
      f+3     :    -0.000014
      f-3     :     0.000008
  7 H s       :    -0.000164  s :    -0.000164
      pz      :    -0.000022  p :    -0.000458
      px      :    -0.000192
      py      :    -0.000245
      dz2     :    -0.000005  d :    -0.000041
      dxz     :     0.000381
      dyz     :    -0.000235
      dx2y2   :    -0.000116
      dxy     :    -0.000065
      f0      :     0.000001  f :    -0.000016
      f+1     :    -0.000001
      f-1     :    -0.000001
      f+2     :     0.000051
      f-2     :    -0.000037
      f+3     :    -0.000027
      f-3     :    -0.000002
  8 H s       :    -0.005761  s :    -0.005761
      pz      :     0.017821  p :     0.019858
      px      :     0.000041
      py      :     0.001996
      dz2     :    -0.000021  d :     0.008306
      dxz     :     0.000014
      dyz     :     0.007768
      dx2y2   :     0.000388
      dxy     :     0.000157
      f0      :     0.000408  f :     0.001166
      f+1     :    -0.000001
      f-1     :    -0.000008
      f+2     :     0.000699
      f-2     :     0.000006
      f+3     :     0.000032
      f-3     :     0.000030
  9 H s       :    -0.000163  s :    -0.000163
      pz      :    -0.000028  p :    -0.000465
      px      :    -0.000211
      py      :    -0.000225
      dz2     :    -0.000005  d :    -0.000044
      dxz     :     0.000419
      dyz     :    -0.000276
      dx2y2   :    -0.000144
      dxy     :    -0.000037
      f0      :     0.000001  f :    -0.000016
      f+1     :    -0.000001
      f-1     :    -0.000001
      f+2     :     0.000046
      f-2     :    -0.000032
      f+3     :    -0.000029
      f-3     :     0.000000
 10 H s       :    -0.001693  s :    -0.001693
      pz      :     0.004249  p :     0.004463
      px      :     0.000237
      py      :    -0.000023
      dz2     :    -0.000008  d :     0.002097
      dxz     :     0.001956
      dyz     :     0.000149
      dx2y2   :    -0.000042
      dxy     :     0.000041
      f0      :     0.000104  f :     0.000294
      f+1     :    -0.000002
      f-1     :    -0.000002
      f+2     :     0.000113
      f-2     :     0.000088
      f+3     :    -0.000013
      f-3     :     0.000006
 11 Cls       :     0.001722  s :     0.001722
      pz      :     0.222500  p :     0.219265
      px      :     0.000985
      py      :    -0.004220
      dz2     :     0.000930  d :     0.015534
      dxz     :     0.000048
      dyz     :     0.014473
      dx2y2   :     0.000183
      dxy     :    -0.000099
      f0      :     0.001833  f :     0.004838
      f+1     :     0.000049
      f-1     :    -0.000099
      f+2     :     0.002903
      f-2     :     0.000037
      f+3     :    -0.000016
      f-3     :     0.000131
      g0      :     0.000006  g :     0.000542
      g+1     :     0.000001
      g-1     :     0.000279
      g+2     :     0.000013
      g-2     :    -0.000005
      g+3     :     0.000006
      g-3     :     0.000228
      g+4     :     0.000015
      g-4     :    -0.000000


                      *****************************
                      * MAYER POPULATION ANALYSIS *
                      *****************************

  NA   - Mulliken gross atomic population
  ZA   - Total nuclear charge
  QA   - Mulliken gross atomic charge
  VA   - Mayer's total valence
  BVA  - Mayer's bonded valence
  FA   - Mayer's free valence

  ATOM       NA         ZA         QA         VA         BVA        FA
  0 C      5.8381     6.0000     0.1619     3.7479     3.6774     0.0705
  1 C      5.9757     6.0000     0.0243     3.6807     3.6725     0.0082
  2 C      6.0030     6.0000    -0.0030     3.7788     3.7769     0.0018
  3 C      5.9488     6.0000     0.0512     3.7546     3.6511     0.1035
  4 C      6.0030     6.0000    -0.0030     3.7800     3.7781     0.0018
  5 C      5.9744     6.0000     0.0256     3.6804     3.6722     0.0082
  6 H      0.8715     1.0000     0.1285     0.9858     0.9858     0.0000
  7 H      0.8774     1.0000     0.1226     0.9866     0.9866     0.0000
  8 H      0.8682     1.0000     0.1318     0.9804     0.9801     0.0003
  9 H      0.8770     1.0000     0.1230     0.9866     0.9866     0.0000
 10 H      0.8720     1.0000     0.1280     0.9861     0.9861     0.0000
 11 Cl    16.8910    17.0000     0.1090     1.5581     1.4939     0.0642

  Mayer bond orders larger than 0.100000
B(  0-C ,  1-C ) :   1.1063 B(  0-C ,  5-C ) :   1.1065 B(  0-C , 11-Cl) :   1.2796 
B(  1-C ,  2-C ) :   1.4193 B(  1-C ,  6-H ) :   0.9415 B(  2-C ,  3-C ) :   1.2022 
B(  2-C ,  7-H ) :   0.9478 B(  3-C ,  4-C ) :   1.2029 B(  3-C ,  8-H ) :   0.9469 
B(  4-C ,  5-C ) :   1.4197 B(  4-C ,  9-H ) :   0.9479 B(  5-C , 10-H ) :   0.9411 


-------
TIMINGS
-------

Total SCF time: 0 days 0 hours 58 min 6 sec 

Total time                  ....    3486.563 sec
Sum of individual times     ....    3372.572 sec  ( 96.7%)

Fock matrix formation       ....    3274.088 sec  ( 93.9%)
  Split-RI-J                ....     165.828 sec  (  5.1% of F)
  Chain of spheres X        ....    2401.284 sec  ( 73.3% of F)
  XC integration            ....     555.475 sec  ( 17.0% of F)
    Basis function eval.    ....      62.489 sec  ( 11.2% of XC)
    Density eval.           ....     206.964 sec  ( 37.3% of XC)
    XC-Functional eval.     ....       6.047 sec  (  1.1% of XC)
    XC-Potential eval.      ....     244.686 sec  ( 44.0% of XC)
Diagonalization             ....      13.680 sec  (  0.4%)
Density matrix formation    ....       0.764 sec  (  0.0%)
Population analysis         ....       1.043 sec  (  0.0%)
Initial guess               ....      14.130 sec  (  0.4%)
Orbital Transformation      ....       0.000 sec  (  0.0%)
Orbital Orthonormalization  ....       0.000 sec  (  0.0%)
DIIS solution               ....      40.424 sec  (  1.2%)
Grid generation             ....      28.443 sec  (  0.8%)

Maximum memory used throughout the entire SCF-calculation: 592.3 MB

-------------------------   --------------------
FINAL SINGLE POINT ENERGY      -691.450041487604
-------------------------   --------------------


                            ***************************************
                            *     ORCA property calculations      *
                            ***************************************

                                    ---------------------
                                    Active property flags
                                    ---------------------
   (+) Dipole Moment


------------------------------------------------------------------------------
                       ORCA ELECTRIC PROPERTIES CALCULATION
------------------------------------------------------------------------------

Dipole Moment Calculation                       ... on
Quadrupole Moment Calculation                   ... off
Polarizability Calculation                      ... off
GBWName                                         ... kation.gbw
Electron density                                ... kation.scfp
The origin for moment calculation is the CENTER OF MASS  = (-12.294410,  0.671545 -0.000000)

-------------
DIPOLE MOMENT
-------------
                                X             Y             Z
Electronic contribution:      0.38424       8.46520      -0.00000
Nuclear contribution   :     -0.44175      -9.73233       0.00000
                        -----------------------------------------
Total Dipole Moment    :     -0.05751      -1.26713       0.00000
                        -----------------------------------------
Magnitude (a.u.)       :      1.26844
Magnitude (Debye)      :      3.22411



--------------------
Rotational spectrum 
--------------------
 
Rotational constants in cm-1:     0.188469     0.051636     0.040531 
Rotational constants in MHz :  5650.172228  1548.005627  1215.098957 

 Dipole components along the rotational axes: 
x,y,z [a.u.] :    -1.268438    -0.000006     0.000000 
x,y,z [Debye]:    -3.224114    -0.000014     0.000001 

 

Timings for individual modules:

Sum of individual times         ...     3498.410 sec (=  58.307 min)
GTO integral calculation        ...       10.926 sec (=   0.182 min)   0.3 %
SCF iterations                  ...     3487.484 sec (=  58.125 min)  99.7 %
                             ****ORCA TERMINATED NORMALLY****
TOTAL RUN TIME: 0 days 0 hours 58 minutes 23 seconds 592 msec
