
                                 *****************
                                 * O   R   C   A *
                                 *****************

                                            #,                                       
                                            ###                                      
                                            ####                                     
                                            #####                                    
                                            ######                                   
                                           ########,                                 
                                     ,,################,,,,,                         
                               ,,#################################,,                 
                          ,,##########################################,,             
                       ,#########################################, ''#####,          
                    ,#############################################,,   '####,        
                  ,##################################################,,,,####,       
                ,###########''''           ''''###############################       
              ,#####''   ,,,,##########,,,,          '''####'''          '####       
            ,##' ,,,,###########################,,,                        '##       
           ' ,,###''''                  '''############,,,                           
         ,,##''                                '''############,,,,        ,,,,,,###''
      ,#''                                            '''#######################'''  
     '                                                          ''''####''''         
             ,#######,   #######,   ,#######,      ##                                
            ,#'     '#,  ##    ##  ,#'     '#,    #''#        ######   ,####,        
            ##       ##  ##   ,#'  ##            #'  '#       #        #'  '#        
            ##       ##  #######   ##           ,######,      #####,   #    #        
            '#,     ,#'  ##    ##  '#,     ,#' ,#      #,         ##   #,  ,#        
             '#######'   ##     ##  '#######'  #'      '#     #####' # '####'        



                  #######################################################
                  #                        -***-                        #
                  #          Department of theory and spectroscopy      #
                  #    Directorship and core code : Frank Neese         #
                  #        Max Planck Institute fuer Kohlenforschung    #
                  #                Kaiser Wilhelm Platz 1               #
                  #                 D-45470 Muelheim/Ruhr               #
                  #                      Germany                        #
                  #                                                     #
                  #                  All rights reserved                #
                  #                        -***-                        #
                  #######################################################



                         Program Version 5.0.4 -  RELEASE  -

 With contributions from (in alphabetic order):
   Daniel Aravena         : Magnetic Suceptibility
   Michael Atanasov       : Ab Initio Ligand Field Theory (pilot matlab implementation)
   Alexander A. Auer      : GIAO ZORA, VPT2 properties, NMR spectrum
   Ute Becker             : Parallelization
   Giovanni Bistoni       : ED, misc. LED, open-shell LED, HFLD
   Martin Brehm           : Molecular dynamics
   Dmytro Bykov           : SCF Hessian
   Vijay G. Chilkuri      : MRCI spin determinant printing, contributions to CSF-ICE
   Dipayan Datta          : RHF DLPNO-CCSD density
   Achintya Kumar Dutta   : EOM-CC, STEOM-CC
   Dmitry Ganyushin       : Spin-Orbit,Spin-Spin,Magnetic field MRCI
   Miquel Garcia          : C-PCM and meta-GGA Hessian, CC/C-PCM, Gaussian charge scheme
   Yang Guo               : DLPNO-NEVPT2, F12-NEVPT2, CIM, IAO-localization
   Andreas Hansen         : Spin unrestricted coupled pair/coupled cluster methods
   Benjamin Helmich-Paris : MC-RPA, TRAH-SCF, COSX integrals
   Lee Huntington         : MR-EOM, pCC
   Robert Izsak           : Overlap fitted RIJCOSX, COSX-SCS-MP3, EOM
   Marcus Kettner         : VPT2
   Christian Kollmar      : KDIIS, OOCD, Brueckner-CCSD(T), CCSD density, CASPT2, CASPT2-K
   Simone Kossmann        : Meta GGA functionals, TD-DFT gradient, OOMP2, MP2 Hessian
   Martin Krupicka        : Initial AUTO-CI
   Lucas Lang             : DCDCAS
   Marvin Lechner         : AUTO-CI (C++ implementation), FIC-MRCC
   Dagmar Lenk            : GEPOL surface, SMD
   Dimitrios Liakos       : Extrapolation schemes; Compound Job, initial MDCI parallelization
   Dimitrios Manganas     : Further ROCIS development; embedding schemes
   Dimitrios Pantazis     : SARC Basis sets
   Anastasios Papadopoulos: AUTO-CI, single reference methods and gradients
   Taras Petrenko         : DFT Hessian,TD-DFT gradient, ASA, ECA, R-Raman, ABS, FL, XAS/XES, NRVS
   Peter Pinski           : DLPNO-MP2, DLPNO-MP2 Gradient
   Christoph Reimann      : Effective Core Potentials
   Marius Retegan         : Local ZFS, SOC
   Christoph Riplinger    : Optimizer, TS searches, QM/MM, DLPNO-CCSD(T), (RO)-DLPNO pert. Triples
   Tobias Risthaus        : Range-separated hybrids, TD-DFT gradient, RPA, STAB
   Michael Roemelt        : Original ROCIS implementation
   Masaaki Saitow         : Open-shell DLPNO-CCSD energy and density
   Barbara Sandhoefer     : DKH picture change effects
   Avijit Sen             : IP-ROCIS
   Kantharuban Sivalingam : CASSCF convergence, NEVPT2, FIC-MRCI
   Bernardo de Souza      : ESD, SOC TD-DFT
   Georgi Stoychev        : AutoAux, RI-MP2 NMR, DLPNO-MP2 response
   Willem Van den Heuvel  : Paramagnetic NMR
   Boris Wezisla          : Elementary symmetry handling
   Frank Wennmohs         : Technical directorship


 We gratefully acknowledge several colleagues who have allowed us to
 interface, adapt or use parts of their codes:
   Stefan Grimme, W. Hujo, H. Kruse, P. Pracht,  : VdW corrections, initial TS optimization,
                  C. Bannwarth, S. Ehlert          DFT functionals, gCP, sTDA/sTD-DF
   Ed Valeev, F. Pavosevic, A. Kumar             : LibInt (2-el integral package), F12 methods
   Garnet Chan, S. Sharma, J. Yang, R. Olivares  : DMRG
   Ulf Ekstrom                                   : XCFun DFT Library
   Mihaly Kallay                                 : mrcc  (arbitrary order and MRCC methods)
   Jiri Pittner, Ondrej Demel                    : Mk-CCSD
   Frank Weinhold                                : gennbo (NPA and NBO analysis)
   Christopher J. Cramer and Donald G. Truhlar   : smd solvation model
   Lars Goerigk                                  : TD-DFT with DH, B97 family of functionals
   V. Asgeirsson, H. Jonsson                     : NEB implementation
   FAccTs GmbH                                   : IRC, NEB, NEB-TS, DLPNO-Multilevel, CI-OPT
                                                   MM, QMMM, 2- and 3-layer-ONIOM, Crystal-QMMM,
                                                   LR-CPCM, SF, NACMEs, symmetry and pop. for TD-DFT,
                                                   nearIR, NL-DFT gradient (VV10), updates on ESD,
                                                   ML-optimized integration grids
   S Lehtola, MJT Oliveira, MAL Marques          : LibXC Library
   Liviu Ungur et al                             : ANISO software


 Your calculation uses the libint2 library for the computation of 2-el integrals
 For citations please refer to: http://libint.valeyev.net

 Your ORCA version has been built with support for libXC version: 5.1.0
 For citations please refer to: https://tddft.org/programs/libxc/

 This ORCA versions uses:
   CBLAS   interface :  Fast vector & matrix operations
   LAPACKE interface :  Fast linear algebra routines
   Shared memory     :  Shared parallel matrices


================================================================================

----- Orbital basis set information -----
Your calculation utilizes the basis: def2-SVP
   F. Weigend and R. Ahlrichs, Phys. Chem. Chem. Phys. 7, 3297 (2005).

----- AuxJ basis set information -----
Your calculation utilizes the auxiliary basis: def2/J
   F. Weigend, Phys. Chem. Chem. Phys. 8, 1057 (2006).

================================================================================
                                        WARNINGS
                       Please study these warnings very carefully!
================================================================================


WARNING: Geometry Optimization
  ===> : Switching off AutoStart
         For restart on a previous wavefunction, please use MOREAD

INFO   : the flag for use of the SHARK integral package has been found!

================================================================================
                                       INPUT FILE
================================================================================
NAME = benzen_infrared_spectra.inp
|  1> !BP86 DEF2-SVP OPT FREQ
|  2> 
|  3> * xyz 0 1
|  4>   C      -4.127240      1.598090      0.000000
|  5>   C      -5.236140      0.753090      0.000000
|  6>   C      -5.058790     -0.629750      0.000000
|  7>   C      -3.772550     -1.167590      0.000000
|  8>   C      -2.663650     -0.322590      0.000000
|  9>   C      -2.840990      1.060250      0.000000
| 10>   H      -4.265550      2.676550      0.000000
| 11>   H      -1.976170      1.719260      0.000000
| 12>   H      -1.660520     -0.742040      0.000000
| 13>   H      -3.634240     -2.246050      0.000000
| 14>   H      -5.923620     -1.288760      0.000000
| 15>   H      -6.239270      1.172540      0.000000
| 16> **                         ****END OF INPUT****
================================================================================

                       *****************************
                       * Geometry Optimization Run *
                       *****************************

Geometry optimization settings:
Update method            Update   .... BFGS
Choice of coordinates    CoordSys .... Z-matrix Internals
Initial Hessian          InHess   .... Almoef's Model

Convergence Tolerances:
Energy Change            TolE     ....  5.0000e-06 Eh
Max. Gradient            TolMAXG  ....  3.0000e-04 Eh/bohr
RMS Gradient             TolRMSG  ....  1.0000e-04 Eh/bohr
Max. Displacement        TolMAXD  ....  4.0000e-03 bohr
RMS Displacement         TolRMSD  ....  2.0000e-03 bohr
Strict Convergence                ....  False
------------------------------------------------------------------------------
                        ORCA OPTIMIZATION COORDINATE SETUP
------------------------------------------------------------------------------

The optimization will be done in new redundant internal coordinates
Making redundant internal coordinates   ...  (new redundants) done
Evaluating the initial hessian          ...  (Almloef) done
Evaluating the coordinates              ...  done
Calculating the B-matrix                .... done
Calculating the G-matrix                .... done
Diagonalizing the G-matrix              .... done
The first mode is                       ....   24
The number of degrees of freedom        ....   30

    -----------------------------------------------------------------
                    Redundant Internal Coordinates


    -----------------------------------------------------------------
         Definition                    Initial Value    Approx d2E/dq
    -----------------------------------------------------------------
      1. B(C   1,C   0)                  1.3942         0.615319   
      2. B(C   2,C   1)                  1.3942         0.615307   
      3. B(C   3,C   2)                  1.3942         0.615318   
      4. B(C   4,C   3)                  1.3942         0.615319   
      5. B(C   5,C   4)                  1.3942         0.615309   
      6. B(C   5,C   0)                  1.3942         0.615297   
      7. B(H   6,C   0)                  1.0873         0.363699   
      8. B(H   7,C   5)                  1.0873         0.363698   
      9. B(H   8,C   4)                  1.0873         0.363698   
     10. B(H   9,C   3)                  1.0873         0.363699   
     11. B(H  10,C   2)                  1.0873         0.363687   
     12. B(H  11,C   1)                  1.0873         0.363698   
     13. A(C   1,C   0,C   5)          120.0000         0.432882   
     14. A(C   1,C   0,H   6)          119.9998         0.353050   
     15. A(C   5,C   0,H   6)          120.0002         0.353048   
     16. A(C   0,C   1,H  11)          120.0002         0.353050   
     17. A(C   0,C   1,C   2)          119.9997         0.432883   
     18. A(C   2,C   1,H  11)          120.0001         0.353049   
     19. A(C   3,C   2,H  10)          120.0000         0.353048   
     20. A(C   1,C   2,C   3)          120.0005         0.432883   
     21. A(C   1,C   2,H  10)          119.9995         0.353047   
     22. A(C   4,C   3,H   9)          119.9998         0.353050   
     23. A(C   2,C   3,H   9)          120.0004         0.353050   
     24. A(C   2,C   3,C   4)          119.9998         0.432884   
     25. A(C   5,C   4,H   8)          119.9997         0.353049   
     26. A(C   3,C   4,H   8)          120.0002         0.353050   
     27. A(C   3,C   4,C   5)          120.0001         0.432883   
     28. A(C   0,C   5,C   4)          119.9999         0.432880   
     29. A(C   4,C   5,H   7)          120.0002         0.353049   
     30. A(C   0,C   5,H   7)          119.9998         0.353048   
     31. D(H  11,C   1,C   0,C   5)    180.0000         0.026175   
     32. D(H  11,C   1,C   0,H   6)      0.0000         0.026175   
     33. D(C   2,C   1,C   0,H   6)    180.0000         0.026175   
     34. D(C   2,C   1,C   0,C   5)      0.0000         0.026175   
     35. D(H  10,C   2,C   1,C   0)    180.0000         0.026174   
     36. D(C   3,C   2,C   1,C   0)      0.0000         0.026174   
     37. D(C   3,C   2,C   1,H  11)    180.0000         0.026174   
     38. D(H  10,C   2,C   1,H  11)      0.0000         0.026174   
     39. D(H   9,C   3,C   2,H  10)      0.0000         0.026175   
     40. D(H   9,C   3,C   2,C   1)    180.0000         0.026175   
     41. D(C   4,C   3,C   2,H  10)    180.0000         0.026175   
     42. D(C   4,C   3,C   2,C   1)      0.0000         0.026175   
     43. D(H   8,C   4,C   3,C   2)    180.0000         0.026175   
     44. D(C   5,C   4,C   3,H   9)    180.0000         0.026175   
     45. D(C   5,C   4,C   3,C   2)      0.0000         0.026175   
     46. D(H   8,C   4,C   3,H   9)      0.0000         0.026175   
     47. D(H   7,C   5,C   4,H   8)      0.0000         0.026175   
     48. D(C   0,C   5,C   4,H   8)    180.0000         0.026175   
     49. D(C   0,C   5,C   4,C   3)      0.0000         0.026175   
     50. D(H   7,C   5,C   0,H   6)      0.0000         0.026174   
     51. D(H   7,C   5,C   0,C   1)    180.0000         0.026174   
     52. D(H   7,C   5,C   4,C   3)    180.0000         0.026175   
     53. D(C   4,C   5,C   0,H   6)    180.0000         0.026174   
     54. D(C   4,C   5,C   0,C   1)      0.0000         0.026174   
    -----------------------------------------------------------------

Number of atoms                         .... 12
Number of degrees of freedom            .... 54

         *************************************************************
         *                GEOMETRY OPTIMIZATION CYCLE   1            *
         *************************************************************
---------------------------------
CARTESIAN COORDINATES (ANGSTROEM)
---------------------------------
  C     -4.127240    1.598090    0.000000
  C     -5.236140    0.753090    0.000000
  C     -5.058790   -0.629750    0.000000
  C     -3.772550   -1.167590    0.000000
  C     -2.663650   -0.322590    0.000000
  C     -2.840990    1.060250    0.000000
  H     -4.265550    2.676550    0.000000
  H     -1.976170    1.719260    0.000000
  H     -1.660520   -0.742040    0.000000
  H     -3.634240   -2.246050    0.000000
  H     -5.923620   -1.288760    0.000000
  H     -6.239270    1.172540    0.000000

----------------------------
CARTESIAN COORDINATES (A.U.)
----------------------------
  NO LB      ZA    FRAG     MASS         X           Y           Z
   0 C     6.0000    0    12.011   -7.799353    3.019952    0.000000
   1 C     6.0000    0    12.011   -9.894871    1.423134    0.000000
   2 C     6.0000    0    12.011   -9.559728   -1.190055    0.000000
   3 C     6.0000    0    12.011   -7.129086   -2.206425    0.000000
   4 C     6.0000    0    12.011   -5.033569   -0.609607    0.000000
   5 C     6.0000    0    12.011   -5.368693    2.003582    0.000000
   6 H     1.0000    0     1.008   -8.060721    5.057946    0.000000
   7 H     1.0000    0     1.008   -3.734420    3.248931    0.000000
   8 H     1.0000    0     1.008   -3.137928   -1.402252    0.000000
   9 H     1.0000    0     1.008   -6.867718   -4.244419    0.000000
  10 H     1.0000    0     1.008  -11.194020   -2.435403    0.000000
  11 H     1.0000    0     1.008  -11.790512    2.215779    0.000000

--------------------------------
INTERNAL COORDINATES (ANGSTROEM)
--------------------------------
 C      0   0   0     0.000000000000     0.00000000     0.00000000
 C      1   0   0     1.394160754719     0.00000000     0.00000000
 C      2   1   0     1.394166234027   119.99967529     0.00000000
 C      3   2   1     1.394161110919   120.00051591     0.00000000
 C      4   3   2     1.394160754719   119.99980880     0.00000000
 C      5   4   3     1.394164961975   120.00008292     0.00000000
 H      1   2   3     1.087292797594   119.99983709   180.00000085
 H      6   5   4     1.087293802291   120.00020724   180.00000000
 H      5   4   3     1.087293934224   120.00018946   180.00000085
 H      4   3   2     1.087292797594   120.00035411   180.00000085
 H      3   2   1     1.087301756184   119.99948022   180.00000085
 H      2   1   3     1.087293934224   120.00018946   180.00000000

---------------------------
INTERNAL COORDINATES (A.U.)
---------------------------
 C      0   0   0     0.000000000000     0.00000000     0.00000000
 C      1   0   0     2.634582013081     0.00000000     0.00000000
 C      2   1   0     2.634592367471   119.99967529     0.00000000
 C      3   2   1     2.634582686201   120.00051591     0.00000000
 C      4   3   2     2.634582013081   119.99980880     0.00000000
 C      5   4   3     2.634589963642   120.00008292     0.00000000
 H      1   2   3     2.054685614838   119.99983709   180.00000085
 H      6   5   4     2.054687513440   120.00020724   180.00000000
 H      5   4   3     2.054687762757   120.00018946   180.00000085
 H      4   3   2     2.054685614838   120.00035411   180.00000085
 H      3   2   1     2.054702544119   119.99948022   180.00000085
 H      2   1   3     2.054687762757   120.00018946   180.00000000

---------------------
BASIS SET INFORMATION
---------------------
There are 2 groups of distinct atoms

 Group   1 Type C   : 7s4p1d contracted to 3s2p1d pattern {511/31/1}
 Group   2 Type H   : 4s1p contracted to 2s1p pattern {31/1}

Atom   0C    basis set group =>   1
Atom   1C    basis set group =>   1
Atom   2C    basis set group =>   1
Atom   3C    basis set group =>   1
Atom   4C    basis set group =>   1
Atom   5C    basis set group =>   1
Atom   6H    basis set group =>   2
Atom   7H    basis set group =>   2
Atom   8H    basis set group =>   2
Atom   9H    basis set group =>   2
Atom  10H    basis set group =>   2
Atom  11H    basis set group =>   2
---------------------------------
AUXILIARY/J BASIS SET INFORMATION
---------------------------------
There are 2 groups of distinct atoms

 Group   1 Type C   : 12s5p4d2f1g contracted to 6s4p3d1f1g pattern {711111/2111/211/2/1}
 Group   2 Type H   : 5s2p1d contracted to 3s1p1d pattern {311/2/1}

Atom   0C    basis set group =>   1
Atom   1C    basis set group =>   1
Atom   2C    basis set group =>   1
Atom   3C    basis set group =>   1
Atom   4C    basis set group =>   1
Atom   5C    basis set group =>   1
Atom   6H    basis set group =>   2
Atom   7H    basis set group =>   2
Atom   8H    basis set group =>   2
Atom   9H    basis set group =>   2
Atom  10H    basis set group =>   2
Atom  11H    basis set group =>   2
------------------------------------------------------------------------------
                           ORCA GTO INTEGRAL CALCULATION
                           -- RI-GTO INTEGRALS CHOSEN --
------------------------------------------------------------------------------
------------------------------------------------------------------------------
                   ___                                                        
                  /   \      - P O W E R E D   B Y -                         
                 /     \                                                     
                 |  |  |   _    _      __       _____    __    __             
                 |  |  |  | |  | |    /  \     |  _  \  |  |  /  |          
                  \  \/   | |  | |   /    \    | | | |  |  | /  /          
                 / \  \   | |__| |  /  /\  \   | |_| |  |  |/  /          
                |  |  |   |  __  | /  /__\  \  |    /   |      \           
                |  |  |   | |  | | |   __   |  |    \   |  |\   \          
                \     /   | |  | | |  |  |  |  | |\  \  |  | \   \       
                 \___/    |_|  |_| |__|  |__|  |_| \__\ |__|  \__/        
                                                                              
                      - O R C A' S   B I G   F R I E N D -                    
                                      &                                       
                       - I N T E G R A L  F E E D E R -                       
                                                                              
 v1 FN, 2020, v2 2021                                                         
------------------------------------------------------------------------------


Reading SHARK input file benzen_infrared_spectra.SHARKINP.tmp ... ok
----------------------
SHARK INTEGRAL PACKAGE
----------------------

Number of atoms                             ...     12
Number of basis functions                   ...    114
Number of shells                            ...     54
Maximum angular momentum                    ...      2
Integral batch strategy                     ... SHARK/LIBINT Hybrid
RI-J (if used) integral strategy            ... SPLIT-RIJ (Revised 2003 algorithm where possible)
Printlevel                                  ...      1
Contraction scheme used                     ... SEGMENTED contraction
Coulomb Range Separation                    ... NOT USED
Exchange Range Separation                   ... NOT USED
Finite Nucleus Model                        ... NOT USED
Auxiliary Coulomb fitting basis             ... AVAILABLE
   # of basis functions in Aux-J            ...    360
   # of shells in Aux-J                     ...    120
   Maximum angular momentum in Aux-J        ...      4
Auxiliary J/K fitting basis                 ... NOT available
Auxiliary Correlation fitting basis         ... NOT available
Auxiliary 'external' fitting basis          ... NOT available
Integral threshold                          ...     2.500000e-11
Primitive cut-off                           ...     2.500000e-12
Primitive pair pre-selection threshold      ...     2.500000e-12

Calculating pre-screening integrals         ... done (  0.0 sec) Dimension = 54
Organizing shell pair data                  ... done (  0.0 sec)
Shell pair information
Total number of shell pairs                 ...      1485
Shell pairs after pre-screening             ...      1467
Total number of primitive shell pairs       ...      5349
Primitive shell pairs kept                  ...      4140
          la=0 lb=0:    456 shell pairs
          la=1 lb=0:    534 shell pairs
          la=1 lb=1:    168 shell pairs
          la=2 lb=0:    180 shell pairs
          la=2 lb=1:    108 shell pairs
          la=2 lb=2:     21 shell pairs

Calculating one electron integrals          ... done (  0.0 sec)
Calculating RI/J V-Matrix + Cholesky decomp.... done (  0.0 sec)
Calculating Nuclear repulsion               ... done (  0.0 sec) ENN=    203.482178309162 Eh

SHARK setup successfully completed in   0.2 seconds

Maximum memory used throughout the entire GTOINT-calculation: 13.6 MB
-------------------------------------------------------------------------------
                                 ORCA SCF
-------------------------------------------------------------------------------

------------
SCF SETTINGS
------------
Hamiltonian:
 Density Functional     Method          .... DFT(GTOs)
 Exchange Functional    Exchange        .... B88
   X-Alpha parameter    XAlpha          ....  0.666667
   Becke's b parameter  XBeta           ....  0.004200
 Correlation Functional Correlation     .... P86
 LDA part of GGA corr.  LDAOpt          .... PW91-LDA
 Gradients option       PostSCFGGA      .... off
   Density functional embedding theory  .... OFF
   NL short-range parameter             ....  4.400000
 RI-approximation to the Coulomb term is turned on
   Number of AuxJ basis functions       .... 360


General Settings:
 Integral files         IntName         .... benzen_infrared_spectra
 Hartree-Fock type      HFTyp           .... RHF
 Total Charge           Charge          ....    0
 Multiplicity           Mult            ....    1
 Number of Electrons    NEL             ....   42
 Basis Dimension        Dim             ....  114
 Nuclear Repulsion      ENuc            ....    203.4821783092 Eh

Convergence Acceleration:
 DIIS                   CNVDIIS         .... on
   Start iteration      DIISMaxIt       ....    12
   Startup error        DIISStart       ....  0.200000
   # of expansion vecs  DIISMaxEq       ....     5
   Bias factor          DIISBfac        ....   1.050
   Max. coefficient     DIISMaxC        ....  10.000
 Trust-Rad. Augm. Hess. CNVTRAH         .... auto
   Auto Start mean grad. ratio tolernc. ....  1.125000
   Auto Start start iteration           ....    20
   Auto Start num. interpolation iter.  ....    10
   Max. Number of Micro iterations      ....    16
   Max. Number of Macro iterations      .... Maxiter - #DIIS iter
   Number of Davidson start vectors     ....     2
   Converg. threshold I  (grad. norm)   ....   1.000e-05
   Converg. threshold II (energy diff.) ....   1.000e-08
   Grad. Scal. Fac. for Micro threshold ....   0.100
   Minimum threshold for Micro iter.    ....   0.010
   NR start threshold (gradient norm)   ....   0.001
   Initial trust radius                 ....   0.400
   Minimum AH scaling param. (alpha)    ....   1.000
   Maximum AH scaling param. (alpha)    .... 1000.000
   Orbital update algorithm             .... Taylor
   White noise on init. David. guess    .... on
   Maximum white noise                  ....   0.010
   Quad. conv. algorithm                .... NR
 SOSCF                  CNVSOSCF        .... on
   Start iteration      SOSCFMaxIt      ....   150
   Startup grad/error   SOSCFStart      ....  0.003300
 Level Shifting         CNVShift        .... on
   Level shift para.    LevelShift      ....    0.2500
   Turn off err/grad.   ShiftErr        ....    0.0010
 Zerner damping         CNVZerner       .... off
 Static damping         CNVDamp         .... on
   Fraction old density DampFac         ....    0.7000
   Max. Damping (<1)    DampMax         ....    0.9800
   Min. Damping (>=0)   DampMin         ....    0.0000
   Turn off err/grad.   DampErr         ....    0.1000
 Fernandez-Rico         CNVRico         .... off

SCF Procedure:
 Maximum # iterations   MaxIter         ....   125
 SCF integral mode      SCFMode         .... Direct
   Integral package                     .... SHARK and LIBINT hybrid scheme
 Reset frequency        DirectResetFreq ....    20
 Integral Threshold     Thresh          ....  2.500e-11 Eh
 Primitive CutOff       TCut            ....  2.500e-12 Eh

Convergence Tolerance:
 Convergence Check Mode ConvCheckMode   .... Total+1el-Energy
 Convergence forced     ConvForced      .... 0
 Energy Change          TolE            ....  1.000e-08 Eh
 1-El. energy change                    ....  1.000e-05 Eh
 Orbital Gradient       TolG            ....  1.000e-05
 Orbital Rotation angle TolX            ....  1.000e-05
 DIIS Error             TolErr          ....  5.000e-07


Diagonalization of the overlap matrix:
Smallest eigenvalue                        ... 3.141e-04
Time for diagonalization                   ...    0.003 sec
Threshold for overlap eigenvalues          ... 1.000e-08
Number of eigenvalues below threshold      ... 0
Time for construction of square roots      ...    0.003 sec
Total time needed                          ...    0.006 sec

Time for model grid setup =    0.119 sec

------------------------------
INITIAL GUESS: MODEL POTENTIAL
------------------------------
Loading Hartree-Fock densities                     ... done
Calculating cut-offs                               ... done
Initializing the effective Hamiltonian             ... done
Setting up the integral package (SHARK)            ... done
Starting the Coulomb interaction                   ... done (   0.1 sec)
Reading the grid                                   ... done
Mapping shells                                     ... done
Starting the XC term evaluation                    ... done (   0.2 sec)
  promolecular density results
     # of electrons  =     41.996734249
     EX              =    -32.606761098
     EC              =     -1.491967191
     EX+EC           =    -34.098728289
Transforming the Hamiltonian                       ... done (   0.0 sec)
Diagonalizing the Hamiltonian                      ... done (   0.0 sec)
Back transforming the eigenvectors                 ... done (   0.0 sec)
Now organizing SCF variables                       ... done
                      ------------------
                      INITIAL GUESS DONE (   0.4 sec)
                      ------------------
-------------------
DFT GRID GENERATION
-------------------

General Integration Accuracy     IntAcc      ... 4.388
Radial Grid Type                 RadialGrid  ... OptM3 with GC (2021)
Angular Grid (max. ang.)         AngularGrid ... 4 (Lebedev-302)
Angular grid pruning method      GridPruning ... 4 (adaptive)
Weight generation scheme         WeightScheme... Becke
Basis function cutoff            BFCut       ... 1.0000e-11
Integration weight cutoff        WCut        ... 1.0000e-14
Angular grids for H and He will be reduced by one unit
Partially contracted basis set               ... off
Rotationally invariant grid construction     ... off

Total number of grid points                  ...    55560
Total number of batches                      ...      872
Average number of points per batch           ...       63
Average number of grid points per atom       ...     4630
Time for grid setup =    0.557 sec

--------------
SCF ITERATIONS
--------------
ITER       Energy         Delta-E        Max-DP      RMS-DP      [F,P]     Damp
               ***  Starting incremental Fock matrix formation  ***
  0   -231.9637803395   0.000000000000 0.04693070  0.00249391  0.1160290 0.7000
  1   -232.0175533549  -0.053773015407 0.03008087  0.00177312  0.0541699 0.7000
                               ***Turning on DIIS***
  2   -232.0384483856  -0.020895030709 0.04258085  0.00284399  0.0200332 0.0000
  3   -232.0669887618  -0.028540376166 0.01977414  0.00136889  0.0388799 0.0000
  4   -232.0766258276  -0.009637065851 0.00555051  0.00032484  0.0073881 0.0000
                      *** Initiating the SOSCF procedure ***
                           *** Shutting down DIIS ***
                      *** Re-Reading the Fockian *** 
                      *** Removing any level shift *** 
ITER      Energy       Delta-E        Grad      Rot      Max-DP    RMS-DP
  5   -232.07704423  -0.0004184060  0.000753  0.000753  0.001985  0.000130
               *** Restarting incremental Fock matrix formation ***
  6   -232.07706564  -0.0000214078  0.000306  0.000709  0.001203  0.000083
  7   -232.07706632  -0.0000006796  0.000219  0.000186  0.000290  0.000021
  8   -232.07706726  -0.0000009418  0.000056  0.000082  0.000247  0.000015
  9   -232.07706731  -0.0000000470  0.000024  0.000027  0.000058  0.000004
                  ***Gradient check signals convergence***
              ***Rediagonalizing the Fockian in SOSCF/NRSCF***

               *****************************************************
               *                     SUCCESS                       *
               *           SCF CONVERGED AFTER  10 CYCLES          *
               *****************************************************


----------------
TOTAL SCF ENERGY
----------------

Total Energy       :         -232.07706733 Eh           -6315.13806 eV

Components:
Nuclear Repulsion  :          203.48217831 Eh            5537.03157 eV
Electronic Energy  :         -435.55924563 Eh          -11852.16963 eV
One Electron Energy:         -713.95015094 Eh          -19427.57129 eV
Two Electron Energy:          278.39090531 Eh            7575.40166 eV

Virial components:
Potential Energy   :         -461.46281244 Eh          -12557.04151 eV
Kinetic Energy     :          229.38574512 Eh            6241.90346 eV
Virial Ratio       :            2.01173274


DFT components:
N(Alpha)           :       20.999983235173 electrons
N(Beta)            :       20.999983235173 electrons
N(Total)           :       41.999966470347 electrons
E(X)               :      -33.231904468645 Eh       
E(C)               :       -1.499950548000 Eh       
E(XC)              :      -34.731855016645 Eh       
DFET-embed. en.    :        0.000000000000 Eh       

---------------
SCF CONVERGENCE
---------------

  Last Energy change         ...   -1.5763e-08  Tolerance :   1.0000e-08
  Last MAX-Density change    ...    1.0487e-05  Tolerance :   1.0000e-07
  Last RMS-Density change    ...    5.4018e-07  Tolerance :   5.0000e-09
  Last Orbital Gradient      ...    2.2579e-06  Tolerance :   1.0000e-05
  Last Orbital Rotation      ...    6.5144e-06  Tolerance :   1.0000e-05

             **** THE GBW FILE WAS UPDATED (benzen_infrared_spectra.gbw) ****
             **** DENSITY benzen_infrared_spectra.scfp WAS UPDATED ****
             **** ENERGY FILE WAS UPDATED (benzen_infrared_spectra.en.tmp) ****
             **** THE GBW FILE WAS UPDATED (benzen_infrared_spectra.gbw) ****
             **** DENSITY benzen_infrared_spectra.scfp WAS UPDATED ****
----------------
ORBITAL ENERGIES
----------------

  NO   OCC          E(Eh)            E(eV) 
   0   2.0000      -9.915697      -269.8198 
   1   2.0000      -9.915613      -269.8175 
   2   2.0000      -9.915608      -269.8174 
   3   2.0000      -9.915370      -269.8109 
   4   2.0000      -9.915365      -269.8108 
   5   2.0000      -9.915330      -269.8099 
   6   2.0000      -0.773328       -21.0433 
   7   2.0000      -0.670313       -18.2401 
   8   2.0000      -0.670307       -18.2400 
   9   2.0000      -0.539843       -14.6899 
  10   2.0000      -0.539842       -14.6898 
  11   2.0000      -0.472821       -12.8661 
  12   2.0000      -0.407528       -11.0894 
  13   2.0000      -0.401197       -10.9171 
  14   2.0000      -0.376026       -10.2322 
  15   2.0000      -0.376020       -10.2320 
  16   2.0000      -0.332523        -9.0484 
  17   2.0000      -0.303284        -8.2528 
  18   2.0000      -0.303283        -8.2528 
  19   2.0000      -0.231666        -6.3040 
  20   2.0000      -0.231660        -6.3038 
  21   0.0000      -0.039484        -1.0744 
  22   0.0000      -0.039482        -1.0744 
  23   0.0000       0.040001         1.0885 
  24   0.0000       0.083289         2.2664 
  25   0.0000       0.083293         2.2665 
  26   0.0000       0.105056         2.8587 
  27   0.0000       0.120964         3.2916 
  28   0.0000       0.120981         3.2921 
  29   0.0000       0.142094         3.8666 
  30   0.0000       0.252154         6.8615 
  31   0.0000       0.252157         6.8615 
  32   0.0000       0.263474         7.1695 
  33   0.0000       0.263479         7.1696 
  34   0.0000       0.329696         8.9715 
  35   0.0000       0.371794        10.1170 
  36   0.0000       0.382949        10.4206 
  37   0.0000       0.382964        10.4210 
  38   0.0000       0.399856        10.8806 
  39   0.0000       0.426171        11.5967 
  40   0.0000       0.428274        11.6539 
  41   0.0000       0.462452        12.5840 
  42   0.0000       0.462456        12.5841 
  43   0.0000       0.495550        13.4846 
  44   0.0000       0.495951        13.4955 
  45   0.0000       0.495965        13.4959 
  46   0.0000       0.557751        15.1772 
  47   0.0000       0.557755        15.1773 
  48   0.0000       0.593869        16.1600 
  49   0.0000       0.593873        16.1601 
  50   0.0000       0.628611        17.1054 
  51   0.0000       0.628626        17.1058 
  52   0.0000       0.629468        17.1287 
  53   0.0000       0.679126        18.4799 
  54   0.0000       0.679136        18.4802 
  55   0.0000       0.689088        18.7510 
  56   0.0000       0.696337        18.9483 
  57   0.0000       0.726227        19.7617 
  58   0.0000       0.726241        19.7620 
  59   0.0000       0.789491        21.4831 
  60   0.0000       0.844617        22.9832 
  61   0.0000       0.975513        26.5450 
  62   0.0000       0.975560        26.5463 
  63   0.0000       1.092533        29.7293 
  64   0.0000       1.181873        32.1604 
  65   0.0000       1.181877        32.1605 
  66   0.0000       1.186770        32.2936 
  67   0.0000       1.218731        33.1633 
  68   0.0000       1.218743        33.1637 
  69   0.0000       1.241864        33.7928 
  70   0.0000       1.241867        33.7929 
  71   0.0000       1.466467        39.9046 
  72   0.0000       1.577080        42.9145 
  73   0.0000       1.581840        43.0441 
  74   0.0000       1.606385        43.7119 
  75   0.0000       1.670921        45.4681 
  76   0.0000       1.681566        45.7577 
  77   0.0000       1.681567        45.7578 
  78   0.0000       1.687848        45.9287 
  79   0.0000       1.687850        45.9287 
  80   0.0000       1.694303        46.1043 
  81   0.0000       1.694308        46.1045 
  82   0.0000       1.761077        47.9213 
  83   0.0000       1.761081        47.9214 
  84   0.0000       1.859781        50.6072 
  85   0.0000       1.910847        51.9968 
  86   0.0000       1.910849        51.9969 
  87   0.0000       1.914492        52.0960 
  88   0.0000       1.918456        52.2038 
  89   0.0000       1.918459        52.2039 
  90   0.0000       2.049672        55.7744 
  91   0.0000       2.068457        56.2856 
  92   0.0000       2.068471        56.2859 
  93   0.0000       2.069919        56.3254 
  94   0.0000       2.222282        60.4714 
  95   0.0000       2.222283        60.4714 
  96   0.0000       2.235584        60.8333 
  97   0.0000       2.235586        60.8334 
  98   0.0000       2.273763        61.8722 
  99   0.0000       2.273767        61.8724 
 100   0.0000       2.483858        67.5892 
 101   0.0000       2.525031        68.7096 
 102   0.0000       2.525032        68.7096 
 103   0.0000       2.567320        69.8603 
 104   0.0000       2.651148        72.1414 
 105   0.0000       2.651152        72.1415 
 106   0.0000       2.651912        72.1622 
 107   0.0000       2.784450        75.7687 
 108   0.0000       2.784453        75.7688 
 109   0.0000       2.816061        76.6289 
 110   0.0000       3.046595        82.9021 
 111   0.0000       3.046602        82.9022 
 112   0.0000       3.169612        86.2495 
 113   0.0000       3.582706        97.4904 

                    ********************************
                    * MULLIKEN POPULATION ANALYSIS *
                    ********************************

-----------------------
MULLIKEN ATOMIC CHARGES
-----------------------
   0 C :    0.004803
   1 C :    0.004805
   2 C :    0.004899
   3 C :    0.004806
   4 C :    0.004801
   5 C :    0.004908
   6 H :   -0.004835
   7 H :   -0.004853
   8 H :   -0.004825
   9 H :   -0.004835
  10 H :   -0.004850
  11 H :   -0.004825
Sum of atomic charges:    0.0000000

--------------------------------
MULLIKEN REDUCED ORBITAL CHARGES
--------------------------------
  0 C s       :     3.166957  s :     3.166957
      pz      :     0.986589  p :     2.795375
      px      :     0.962498
      py      :     0.846288
      dz2     :     0.002240  d :     0.032865
      dxz     :     0.006135
      dyz     :     0.002206
      dx2y2   :     0.012473
      dxy     :     0.009812
  1 C s       :     3.166971  s :     3.166971
      pz      :     0.986585  p :     2.795358
      px      :     0.862211
      py      :     0.946562
      dz2     :     0.002240  d :     0.032865
      dxz     :     0.002744
      dyz     :     0.005596
      dx2y2   :     0.011122
      dxy     :     0.011163
  2 C s       :     3.166934  s :     3.166934
      pz      :     0.986586  p :     2.795302
      px      :     0.888427
      py      :     0.920289
      dz2     :     0.002240  d :     0.032865
      dxz     :     0.003632
      dyz     :     0.004709
      dx2y2   :     0.009832
      dxy     :     0.012452
  3 C s       :     3.166955  s :     3.166955
      pz      :     0.986592  p :     2.795373
      px      :     0.962499
      py      :     0.846283
      dz2     :     0.002240  d :     0.032866
      dxz     :     0.006135
      dyz     :     0.002206
      dx2y2   :     0.012473
      dxy     :     0.009812
  4 C s       :     3.166971  s :     3.166971
      pz      :     0.986585  p :     2.795362
      px      :     0.862215
      py      :     0.946562
      dz2     :     0.002240  d :     0.032865
      dxz     :     0.002744
      dyz     :     0.005596
      dx2y2   :     0.011122
      dxy     :     0.011163
  5 C s       :     3.166934  s :     3.166934
      pz      :     0.986585  p :     2.795293
      px      :     0.888424
      py      :     0.920284
      dz2     :     0.002240  d :     0.032864
      dxz     :     0.003632
      dyz     :     0.004709
      dx2y2   :     0.009832
      dxy     :     0.012452
  6 H s       :     0.982480  s :     0.982480
      pz      :     0.005072  p :     0.022355
      px      :     0.003880
      py      :     0.013403
  7 H s       :     0.982498  s :     0.982498
      pz      :     0.005072  p :     0.022355
      px      :     0.009947
      py      :     0.007336
  8 H s       :     0.982471  s :     0.982471
      pz      :     0.005072  p :     0.022355
      px      :     0.012097
      py      :     0.005185
  9 H s       :     0.982480  s :     0.982480
      pz      :     0.005072  p :     0.022355
      px      :     0.003880
      py      :     0.013403
 10 H s       :     0.982495  s :     0.982495
      pz      :     0.005072  p :     0.022355
      px      :     0.009947
      py      :     0.007336
 11 H s       :     0.982471  s :     0.982471
      pz      :     0.005072  p :     0.022355
      px      :     0.012097
      py      :     0.005185


                     *******************************
                     * LOEWDIN POPULATION ANALYSIS *
                     *******************************

----------------------
LOEWDIN ATOMIC CHARGES
----------------------
   0 C :   -0.029361
   1 C :   -0.029362
   2 C :   -0.029360
   3 C :   -0.029365
   4 C :   -0.029362
   5 C :   -0.029357
   6 H :    0.029361
   7 H :    0.029358
   8 H :    0.029364
   9 H :    0.029361
  10 H :    0.029359
  11 H :    0.029365

-------------------------------
LOEWDIN REDUCED ORBITAL CHARGES
-------------------------------
  0 C s       :     2.863506  s :     2.863506
      pz      :     0.968069  p :     3.076806
      px      :     1.068845
      py      :     1.039892
      dz2     :     0.005867  d :     0.089049
      dxz     :     0.013425
      dyz     :     0.003872
      dx2y2   :     0.035745
      dxy     :     0.030140
  1 C s       :     2.863507  s :     2.863507
      pz      :     0.968067  p :     3.076806
      px      :     1.043864
      py      :     1.064876
      dz2     :     0.005867  d :     0.089049
      dxz     :     0.005181
      dyz     :     0.012116
      dx2y2   :     0.032900
      dxy     :     0.032985
  2 C s       :     2.863509  s :     2.863509
      pz      :     0.968069  p :     3.076801
      px      :     1.050397
      py      :     1.058335
      dz2     :     0.005867  d :     0.089050
      dxz     :     0.007339
      dyz     :     0.009958
      dx2y2   :     0.030184
      dxy     :     0.035703
  3 C s       :     2.863504  s :     2.863504
      pz      :     0.968072  p :     3.076810
      px      :     1.068847
      py      :     1.039892
      dz2     :     0.005867  d :     0.089051
      dxz     :     0.013425
      dyz     :     0.003872
      dx2y2   :     0.035746
      dxy     :     0.030141
  4 C s       :     2.863506  s :     2.863506
      pz      :     0.968066  p :     3.076806
      px      :     1.043863
      py      :     1.064876
      dz2     :     0.005867  d :     0.089049
      dxz     :     0.005181
      dyz     :     0.012116
      dx2y2   :     0.032900
      dxy     :     0.032985
  5 C s       :     2.863509  s :     2.863509
      pz      :     0.968069  p :     3.076799
      px      :     1.050396
      py      :     1.058335
      dz2     :     0.005867  d :     0.089049
      dxz     :     0.007339
      dyz     :     0.009958
      dx2y2   :     0.030183
      dxy     :     0.035703
  6 H s       :     0.902710  s :     0.902710
      pz      :     0.014635  p :     0.067929
      px      :     0.012199
      py      :     0.041096
  7 H s       :     0.902713  s :     0.902713
      pz      :     0.014635  p :     0.067929
      px      :     0.030608
      py      :     0.022686
  8 H s       :     0.902707  s :     0.902707
      pz      :     0.014634  p :     0.067929
      px      :     0.037135
      py      :     0.016160
  9 H s       :     0.902710  s :     0.902710
      pz      :     0.014635  p :     0.067929
      px      :     0.012199
      py      :     0.041096
 10 H s       :     0.902713  s :     0.902713
      pz      :     0.014634  p :     0.067927
      px      :     0.030608
      py      :     0.022686
 11 H s       :     0.902707  s :     0.902707
      pz      :     0.014634  p :     0.067929
      px      :     0.037135
      py      :     0.016160


                      *****************************
                      * MAYER POPULATION ANALYSIS *
                      *****************************

  NA   - Mulliken gross atomic population
  ZA   - Total nuclear charge
  QA   - Mulliken gross atomic charge
  VA   - Mayer's total valence
  BVA  - Mayer's bonded valence
  FA   - Mayer's free valence

  ATOM       NA         ZA         QA         VA         BVA        FA
  0 C      5.9952     6.0000     0.0048     3.8530     3.8530     0.0000
  1 C      5.9952     6.0000     0.0048     3.8530     3.8530     0.0000
  2 C      5.9951     6.0000     0.0049     3.8529     3.8529    -0.0000
  3 C      5.9952     6.0000     0.0048     3.8530     3.8530    -0.0000
  4 C      5.9952     6.0000     0.0048     3.8530     3.8530     0.0000
  5 C      5.9951     6.0000     0.0049     3.8529     3.8529     0.0000
  6 H      1.0048     1.0000    -0.0048     0.9782     0.9782     0.0000
  7 H      1.0049     1.0000    -0.0049     0.9782     0.9782    -0.0000
  8 H      1.0048     1.0000    -0.0048     0.9782     0.9782     0.0000
  9 H      1.0048     1.0000    -0.0048     0.9782     0.9782     0.0000
 10 H      1.0048     1.0000    -0.0048     0.9782     0.9782    -0.0000
 11 H      1.0048     1.0000    -0.0048     0.9782     0.9782     0.0000

  Mayer bond orders larger than 0.100000
B(  0-C ,  1-C ) :   1.3907 B(  0-C ,  5-C ) :   1.3906 B(  0-C ,  6-H ) :   0.9807 
B(  1-C ,  2-C ) :   1.3906 B(  1-C , 11-H ) :   0.9807 B(  2-C ,  3-C ) :   1.3906 
B(  2-C , 10-H ) :   0.9807 B(  3-C ,  4-C ) :   1.3907 B(  3-C ,  9-H ) :   0.9807 
B(  4-C ,  5-C ) :   1.3906 B(  4-C ,  8-H ) :   0.9807 B(  5-C ,  7-H ) :   0.9807 


-------
TIMINGS
-------

Total SCF time: 0 days 0 hours 0 min 11 sec 

Total time                  ....      11.038 sec
Sum of individual times     ....      10.805 sec  ( 97.9%)

Fock matrix formation       ....       9.751 sec  ( 88.3%)
  Split-RI-J                ....       2.067 sec  ( 21.2% of F)
  XC integration            ....       7.655 sec  ( 78.5% of F)
    Basis function eval.    ....       2.841 sec  ( 37.1% of XC)
    Density eval.           ....       1.941 sec  ( 25.4% of XC)
    XC-Functional eval.     ....       0.654 sec  (  8.5% of XC)
    XC-Potential eval.      ....       1.700 sec  ( 22.2% of XC)
Diagonalization             ....       0.024 sec  (  0.2%)
Density matrix formation    ....       0.003 sec  (  0.0%)
Population analysis         ....       0.026 sec  (  0.2%)
Initial guess               ....       0.265 sec  (  2.4%)
Orbital Transformation      ....       0.000 sec  (  0.0%)
Orbital Orthonormalization  ....       0.000 sec  (  0.0%)
DIIS solution               ....       0.042 sec  (  0.4%)
SOSCF solution              ....       0.018 sec  (  0.2%)
Grid generation             ....       0.676 sec  (  6.1%)

Maximum memory used throughout the entire SCF-calculation: 30.1 MB

-------------------------   --------------------
FINAL SINGLE POINT ENERGY      -232.077067325525
-------------------------   --------------------

------------------------------------------------------------------------------
                         ORCA SCF GRADIENT CALCULATION
------------------------------------------------------------------------------

Gradient of the Kohn-Sham DFT energy:
Kohn-Sham wavefunction type      ... RKS
Hartree-Fock exchange scaling    ...    0.000
Number of operators              ...    1
Number of atoms                  ...   12
Basis set dimensions             ...  114
Integral neglect threshold       ... 2.5e-11
Integral primitive cutoff        ... 2.5e-12
SHARK Integral package           ... ON

Nuc. rep. gradient       (SHARK) ... done (  0.0 sec)
HCore & Overlap gradient (SHARK) ... done (  0.1 sec)
RI-J gradient            (SHARK) ... done (  0.7 sec)
Exchange-correlation gradient    ... done

------------------
CARTESIAN GRADIENT
------------------

   1   C   :    0.000236022   -0.001857328    0.000000000
   2   C   :    0.001761111   -0.000743696   -0.000000000
   3   C   :    0.001507918    0.001134140   -0.000000000
   4   C   :   -0.000241279    0.001858993   -0.000000000
   5   C   :   -0.001764214    0.000743421    0.000000000
   6   C   :   -0.001494866   -0.001132950   -0.000000000
   7   H   :    0.001222938   -0.009551770   -0.000000000
   8   H   :   -0.007655239   -0.005836096    0.000000000
   9   H   :   -0.008881291    0.003709935    0.000000000
  10   H   :   -0.001222995    0.009551555    0.000000000
  11   H   :    0.007650644    0.005833306    0.000000000
  12   H   :    0.008881251   -0.003709508    0.000000000

Difference to translation invariance:
           :    0.0000000000   -0.0000000000    0.0000000000

Difference to rotation invariance:
           :   -0.0000000018   -0.0000000002    0.0000359655

Norm of the cartesian gradient     ...    0.0240286870
RMS gradient                       ...    0.0040047812
MAX gradient                       ...    0.0095517703

-------
TIMINGS
-------

Total SCF gradient time            ...        5.612 sec

One electron gradient       ....       0.107 sec  (  1.9%)
RI-J Coulomb gradient       ....       0.745 sec  ( 13.3%)
XC gradient                 ....       4.666 sec  ( 83.1%)

Maximum memory used throughout the entire SCFGRAD-calculation: 23.8 MB
------------------------------------------------------------------------------
                         ORCA GEOMETRY RELAXATION STEP
------------------------------------------------------------------------------

Reading the OPT-File                    .... done
Getting information on internals        .... done
Copying old internal coords+grads       .... done
Making the new internal coordinates     .... (new redundants).... done
Validating the new internal coordinates .... (new redundants).... done
Calculating the B-matrix                .... done
Calculating the G,G- and P matrices     .... done
Transforming gradient to internals      .... done
Projecting the internal gradient        .... done
Number of atoms                         ....  12
Number of internal coordinates          ....  54
Current Energy                          ....  -232.077067326 Eh
Current gradient norm                   ....     0.024028687 Eh/bohr
Maximum allowed component of the step   ....  0.300
Current trust radius                    ....  0.300
Evaluating the initial hessian          ....  (Almloef) done
Projecting the Hessian                  .... done
Forming the augmented Hessian           .... done
Diagonalizing the augmented Hessian     .... done
Last element of RFO vector              ....  0.996903752
Lowest eigenvalues of augmented Hessian:
 -0.002804094  0.026173979  0.026174233  0.026174481  0.026174786
Length of the computed step             ....  0.078875695
The final length of the internal step   ....  0.078875695
Converting the step to cartesian space:
 Initial RMS(Int)=    0.0107336226
Transforming coordinates:
 Iter   0:  RMS(Cart)=    0.0198433848 RMS(Int)=    2.2622307264
 Iter   1:  RMS(Cart)=    0.0000002041 RMS(Int)=    0.0000001164
 Iter   2:  RMS(Cart)=    0.0000000021 RMS(Int)=    0.0000000012
done
Storing new coordinates                 .... done

                                .--------------------.
          ----------------------|Geometry convergence|-------------------------
          Item                value                   Tolerance       Converged
          ---------------------------------------------------------------------
          RMS gradient        0.0050029028            0.0001000000      NO
          MAX gradient        0.0115258707            0.0003000000      NO
          RMS step            0.0107336226            0.0020000000      NO
          MAX step            0.0262746370            0.0040000000      NO
          ........................................................
          Max(Bonds)      0.0139      Max(Angles)    0.00
          Max(Dihed)        0.00      Max(Improp)    0.00
          ---------------------------------------------------------------------

The optimization has not yet converged - more geometry cycles are needed


    ---------------------------------------------------------------------------
                         Redundant Internal Coordinates
                            (Angstroem and degrees)

        Definition                    Value    dE/dq     Step     New-Value
    ----------------------------------------------------------------------------
     1. B(C   1,C   0)                1.3942 -0.011512  0.0099    1.4040   
     2. B(C   2,C   1)                1.3942 -0.011510  0.0099    1.4040   
     3. B(C   3,C   2)                1.3942 -0.011526  0.0099    1.4040   
     4. B(C   4,C   3)                1.3942 -0.011513  0.0099    1.4040   
     5. B(C   5,C   4)                1.3942 -0.011511  0.0099    1.4040   
     6. B(C   5,C   0)                1.3942 -0.011520  0.0099    1.4040   
     7. B(H   6,C   0)                1.0873 -0.009630  0.0139    1.1012   
     8. B(H   7,C   5)                1.0873 -0.009626  0.0139    1.1012   
     9. B(H   8,C   4)                1.0873 -0.009625  0.0139    1.1012   
    10. B(H   9,C   3)                1.0873 -0.009630  0.0139    1.1012   
    11. B(H  10,C   2)                1.0873 -0.009621  0.0139    1.1012   
    12. B(H  11,C   1)                1.0873 -0.009625  0.0139    1.1012   
    13. A(C   1,C   0,C   5)          120.00 -0.000010    0.00    120.00   
    14. A(C   1,C   0,H   6)          120.00  0.000004   -0.00    120.00   
    15. A(C   5,C   0,H   6)          120.00  0.000006   -0.00    120.00   
    16. A(C   0,C   1,H  11)          120.00 -0.000014    0.00    120.00   
    17. A(C   0,C   1,C   2)          120.00  0.000018   -0.00    120.00   
    18. A(C   2,C   1,H  11)          120.00 -0.000004    0.00    120.00   
    19. A(C   3,C   2,H  10)          120.00  0.000008   -0.00    120.00   
    20. A(C   1,C   2,C   3)          120.00 -0.000008    0.00    120.00   
    21. A(C   1,C   2,H  10)          120.00  0.000000    0.00    120.00   
    22. A(C   4,C   3,H   9)          120.00  0.000004   -0.00    120.00   
    23. A(C   2,C   3,H   9)          120.00  0.000006   -0.00    120.00   
    24. A(C   2,C   3,C   4)          120.00 -0.000009    0.00    120.00   
    25. A(C   5,C   4,H   8)          120.00 -0.000005    0.00    120.00   
    26. A(C   3,C   4,H   8)          120.00 -0.000014    0.00    120.00   
    27. A(C   3,C   4,C   5)          120.00  0.000020   -0.00    120.00   
    28. A(C   0,C   5,C   4)          120.00 -0.000011    0.00    120.00   
    29. A(C   4,C   5,H   7)          120.00  0.000002   -0.00    120.00   
    30. A(C   0,C   5,H   7)          120.00  0.000008   -0.00    120.00   
    31. D(H  11,C   1,C   0,C   5)    180.00 -0.000000    0.00    180.00   
    32. D(H  11,C   1,C   0,H   6)      0.00 -0.000000    0.00      0.00   
    33. D(C   2,C   1,C   0,H   6)    180.00 -0.000000    0.00    180.00   
    34. D(C   2,C   1,C   0,C   5)      0.00 -0.000000    0.00      0.00   
    35. D(H  10,C   2,C   1,C   0)    180.00 -0.000000    0.00    180.00   
    36. D(C   3,C   2,C   1,C   0)      0.00  0.000000   -0.00     -0.00   
    37. D(C   3,C   2,C   1,H  11)    180.00  0.000000   -0.00    180.00   
    38. D(H  10,C   2,C   1,H  11)      0.00  0.000000   -0.00     -0.00   
    39. D(H   9,C   3,C   2,H  10)      0.00  0.000000   -0.00     -0.00   
    40. D(H   9,C   3,C   2,C   1)    180.00 -0.000000    0.00    180.00   
    41. D(C   4,C   3,C   2,H  10)    180.00  0.000000   -0.00    180.00   
    42. D(C   4,C   3,C   2,C   1)      0.00 -0.000000    0.00      0.00   
    43. D(H   8,C   4,C   3,C   2)    180.00 -0.000000    0.00    180.00   
    44. D(C   5,C   4,C   3,H   9)    180.00  0.000000   -0.00    180.00   
    45. D(C   5,C   4,C   3,C   2)      0.00 -0.000000    0.00      0.00   
    46. D(H   8,C   4,C   3,H   9)      0.00  0.000000   -0.00     -0.00   
    47. D(H   7,C   5,C   4,H   8)      0.00 -0.000000    0.00      0.00   
    48. D(C   0,C   5,C   4,H   8)    180.00  0.000000   -0.00    180.00   
    49. D(C   0,C   5,C   4,C   3)      0.00  0.000000   -0.00     -0.00   
    50. D(H   7,C   5,C   0,H   6)      0.00  0.000000   -0.00     -0.00   
    51. D(H   7,C   5,C   0,C   1)    180.00  0.000000   -0.00    180.00   
    52. D(H   7,C   5,C   4,C   3)    180.00 -0.000000    0.00    180.00   
    53. D(C   4,C   5,C   0,H   6)    180.00 -0.000000    0.00    180.00   
    54. D(C   4,C   5,C   0,C   1)      0.00 -0.000000    0.00      0.00   
    ----------------------------------------------------------------------------

         *************************************************************
         *                GEOMETRY OPTIMIZATION CYCLE   2            *
         *************************************************************
---------------------------------
CARTESIAN COORDINATES (ANGSTROEM)
---------------------------------
  C     -4.128501    1.607851    0.000000
  C     -5.245262    0.756907    0.000000
  C     -5.066632   -0.635704    0.000000
  C     -3.771289   -1.177353    0.000000
  C     -2.654528   -0.326407   -0.000000
  C     -2.833153    1.066203    0.000000
  H     -4.268561    2.700105   -0.000000
  H     -1.957291    1.733654    0.000000
  H     -1.638572   -0.751207   -0.000000
  H     -3.631228   -2.269606   -0.000000
  H     -5.942498   -1.303151    0.000000
  H     -6.261217    1.181707   -0.000000

----------------------------
CARTESIAN COORDINATES (A.U.)
----------------------------
  NO LB      ZA    FRAG     MASS         X           Y           Z
   0 C     6.0000    0    12.011   -7.801736    3.038399    0.000000
   1 C     6.0000    0    12.011   -9.912108    1.430347    0.000000
   2 C     6.0000    0    12.011   -9.574546   -1.201307    0.000000
   3 C     6.0000    0    12.011   -7.126703   -2.224874    0.000000
   4 C     6.0000    0    12.011   -5.016331   -0.616820   -0.000000
   5 C     6.0000    0    12.011   -5.353884    2.014832    0.000000
   6 H     1.0000    0     1.008   -8.066410    5.102459   -0.000000
   7 H     1.0000    0     1.008   -3.698744    3.276131    0.000000
   8 H     1.0000    0     1.008   -3.096452   -1.419575   -0.000000
   9 H     1.0000    0     1.008   -6.862026   -4.288933   -0.000000
  10 H     1.0000    0     1.008  -11.229693   -2.462598    0.000000
  11 H     1.0000    0     1.008  -11.831986    2.233103   -0.000000

--------------------------------
INTERNAL COORDINATES (ANGSTROEM)
--------------------------------
 C      0   0   0     0.000000000000     0.00000000     0.00000000
 C      1   0   0     1.404016177630     0.00000000     0.00000000
 C      2   1   0     1.404020618354   119.99711475     0.00000000
 C      3   2   1     1.404028588204   120.00168989     0.00000000
 C      4   3   2     1.404016744405   120.00115728     0.00000000
 C      5   4   3     1.404019525859   119.99734364     0.00000000
 H      1   2   3     1.101196736652   119.99935148   180.00000000
 H      6   5   4     1.101192603743   119.99999013   180.00000085
 H      5   4   3     1.101191110993   120.00228423   180.00000000
 H      4   3   2     1.101196438552   119.99951747   180.00000085
 H      3   2   1     1.101193242234   119.99950527   180.00000000
 H      2   1   3     1.101190819527   120.00225746   180.00000000

---------------------------
INTERNAL COORDINATES (A.U.)
---------------------------
 C      0   0   0     0.000000000000     0.00000000     0.00000000
 C      1   0   0     2.653206063315     0.00000000     0.00000000
 C      2   1   0     2.653214455068   119.99711475     0.00000000
 C      3   2   1     2.653229515901   120.00168989     0.00000000
 C      4   3   2     2.653207134366   120.00115728     0.00000000
 C      5   4   3     2.653212390552   119.99734364     0.00000000
 H      1   2   3     2.080960251841   119.99935148   180.00000000
 H      6   5   4     2.080952441775   119.99999013   180.00000085
 H      5   4   3     2.080949620886   120.00228423   180.00000000
 H      4   3   2     2.080959688512   119.99951747   180.00000085
 H      3   2   1     2.080953648347   119.99950527   180.00000000
 H      2   1   3     2.080949070093   120.00225746   180.00000000

------------------------------------------------------------------------------
                   ___                                                        
                  /   \      - P O W E R E D   B Y -                         
                 /     \                                                     
                 |  |  |   _    _      __       _____    __    __             
                 |  |  |  | |  | |    /  \     |  _  \  |  |  /  |          
                  \  \/   | |  | |   /    \    | | | |  |  | /  /          
                 / \  \   | |__| |  /  /\  \   | |_| |  |  |/  /          
                |  |  |   |  __  | /  /__\  \  |    /   |      \           
                |  |  |   | |  | | |   __   |  |    \   |  |\   \          
                \     /   | |  | | |  |  |  |  | |\  \  |  | \   \       
                 \___/    |_|  |_| |__|  |__|  |_| \__\ |__|  \__/        
                                                                              
                      - O R C A' S   B I G   F R I E N D -                    
                                      &                                       
                       - I N T E G R A L  F E E D E R -                       
                                                                              
 v1 FN, 2020, v2 2021                                                         
------------------------------------------------------------------------------


Reading SHARK input file benzen_infrared_spectra.SHARKINP.tmp ... ok
----------------------
SHARK INTEGRAL PACKAGE
----------------------

Number of atoms                             ...     12
Number of basis functions                   ...    114
Number of shells                            ...     54
Maximum angular momentum                    ...      2
Integral batch strategy                     ... SHARK/LIBINT Hybrid
RI-J (if used) integral strategy            ... SPLIT-RIJ (Revised 2003 algorithm where possible)
Printlevel                                  ...      1
Contraction scheme used                     ... SEGMENTED contraction
Coulomb Range Separation                    ... NOT USED
Exchange Range Separation                   ... NOT USED
Finite Nucleus Model                        ... NOT USED
Auxiliary Coulomb fitting basis             ... AVAILABLE
   # of basis functions in Aux-J            ...    360
   # of shells in Aux-J                     ...    120
   Maximum angular momentum in Aux-J        ...      4
Auxiliary J/K fitting basis                 ... NOT available
Auxiliary Correlation fitting basis         ... NOT available
Auxiliary 'external' fitting basis          ... NOT available
Integral threshold                          ...     2.500000e-11
Primitive cut-off                           ...     2.500000e-12
Primitive pair pre-selection threshold      ...     2.500000e-12

Calculating pre-screening integrals         ... done (  0.0 sec) Dimension = 54
Organizing shell pair data                  ... done (  0.0 sec)
Shell pair information
Total number of shell pairs                 ...      1485
Shell pairs after pre-screening             ...      1467
Total number of primitive shell pairs       ...      5349
Primitive shell pairs kept                  ...      4140
          la=0 lb=0:    456 shell pairs
          la=1 lb=0:    534 shell pairs
          la=1 lb=1:    168 shell pairs
          la=2 lb=0:    180 shell pairs
          la=2 lb=1:    108 shell pairs
          la=2 lb=2:     21 shell pairs

Calculating one electron integrals          ... done (  0.0 sec)
Calculating RI/J V-Matrix + Cholesky decomp.... done (  0.0 sec)
Calculating Nuclear repulsion               ... done (  0.0 sec) ENN=    201.881413666018 Eh

SHARK setup successfully completed in   0.2 seconds

Maximum memory used throughout the entire GTOINT-calculation: 13.6 MB

Diagonalization of the overlap matrix:
Smallest eigenvalue                        ... 3.348e-04
Time for diagonalization                   ...    0.004 sec
Threshold for overlap eigenvalues          ... 1.000e-08
Number of eigenvalues below threshold      ... 0
Time for construction of square roots      ...    0.003 sec
Total time needed                          ...    0.007 sec

-------------------
DFT GRID GENERATION
-------------------

General Integration Accuracy     IntAcc      ... 4.388
Radial Grid Type                 RadialGrid  ... OptM3 with GC (2021)
Angular Grid (max. ang.)         AngularGrid ... 4 (Lebedev-302)
Angular grid pruning method      GridPruning ... 4 (adaptive)
Weight generation scheme         WeightScheme... Becke
Basis function cutoff            BFCut       ... 1.0000e-11
Integration weight cutoff        WCut        ... 1.0000e-14
Angular grids for H and He will be reduced by one unit
Partially contracted basis set               ... off
Rotationally invariant grid construction     ... off

Total number of grid points                  ...    55572
Total number of batches                      ...      876
Average number of points per batch           ...       63
Average number of grid points per atom       ...     4631
Time for grid setup =    0.638 sec

--------------
SCF ITERATIONS
--------------
ITER       Energy         Delta-E        Max-DP      RMS-DP      [F,P]     Damp
               ***  Starting incremental Fock matrix formation  ***
                      *** Initiating the SOSCF procedure ***
                      *** Re-Reading the Fockian *** 
                      *** Removing any level shift *** 
ITER      Energy       Delta-E        Grad      Rot      Max-DP    RMS-DP
  0   -232.07832007 -232.0783200678  0.002724  0.002724  0.025110  0.001317
               *** Restarting incremental Fock matrix formation ***
  1   -232.07855525  -0.0002351817  0.000880  0.001585  0.003422  0.000200
  2   -232.07855109   0.0000041576  0.000952  0.000820  0.001140  0.000078
  3   -232.07856960  -0.0000185044  0.000057  0.000072  0.000349  0.000018
  4   -232.07856965  -0.0000000488  0.000031  0.000023  0.000069  0.000004
  5   -232.07856967  -0.0000000258  0.000004  0.000021  0.000018  0.000001
  6   -232.07856967   0.0000000003  0.000010  0.000015  0.000012  0.000001
                 **** Energy Check signals convergence ****
              ***Rediagonalizing the Fockian in SOSCF/NRSCF***

               *****************************************************
               *                     SUCCESS                       *
               *           SCF CONVERGED AFTER   7 CYCLES          *
               *****************************************************

Total Energy       :         -232.07856967 Eh           -6315.17894 eV
  Last Energy change         ...   -3.7366e-09  Tolerance :   1.0000e-08
  Last MAX-Density change    ...    3.6282e-06  Tolerance :   1.0000e-07
             **** THE GBW FILE WAS UPDATED (benzen_infrared_spectra.gbw) ****
             **** DENSITY benzen_infrared_spectra.scfp WAS UPDATED ****
             **** ENERGY FILE WAS UPDATED (benzen_infrared_spectra.en.tmp) ****
             **** THE GBW FILE WAS UPDATED (benzen_infrared_spectra.gbw) ****
             **** DENSITY benzen_infrared_spectra.scfp WAS UPDATED ****
Total SCF time: 0 days 0 hours 0 min 7 sec 

Maximum memory used throughout the entire SCF-calculation: 29.9 MB

-------------------------   --------------------
FINAL SINGLE POINT ENERGY      -232.078569674319
-------------------------   --------------------

------------------------------------------------------------------------------
                         ORCA SCF GRADIENT CALCULATION
------------------------------------------------------------------------------

Gradient of the Kohn-Sham DFT energy:
Kohn-Sham wavefunction type      ... RKS
Hartree-Fock exchange scaling    ...    0.000
Number of operators              ...    1
Number of atoms                  ...   12
Basis set dimensions             ...  114
Integral neglect threshold       ... 2.5e-11
Integral primitive cutoff        ... 2.5e-12
SHARK Integral package           ... ON

Nuc. rep. gradient       (SHARK) ... done (  0.0 sec)
HCore & Overlap gradient (SHARK) ... done (  0.1 sec)
RI-J gradient            (SHARK) ... done (  0.8 sec)
Exchange-correlation gradient    ... done

------------------
CARTESIAN GRADIENT
------------------

   1   C   :    0.000212541   -0.001662783    0.000000000
   2   C   :    0.001561507   -0.000661610    0.000000000
   3   C   :    0.001338539    0.001015489    0.000000000
   4   C   :   -0.000215075    0.001662969    0.000000000
   5   C   :   -0.001563470    0.000661554   -0.000000000
   6   C   :   -0.001333778   -0.001016526    0.000000000
   7   H   :    0.000016177   -0.000151966   -0.000000000
   8   H   :   -0.000120630   -0.000094683   -0.000000000
   9   H   :   -0.000140336    0.000056465    0.000000000
  10   H   :   -0.000016116    0.000152183   -0.000000000
  11   H   :    0.000120128    0.000095041   -0.000000000
  12   H   :    0.000140513   -0.000056132   -0.000000000

Difference to translation invariance:
           :    0.0000000000    0.0000000000   -0.0000000000

Difference to rotation invariance:
           :   -0.0000000016   -0.0000000003    0.0000333091

Norm of the cartesian gradient     ...    0.0041418103
RMS gradient                       ...    0.0006903017
MAX gradient                       ...    0.0016629688

-------
TIMINGS
-------

Total SCF gradient time            ...        5.488 sec

One electron gradient       ....       0.134 sec  (  2.4%)
RI-J Coulomb gradient       ....       0.777 sec  ( 14.2%)
XC gradient                 ....       4.473 sec  ( 81.5%)

Maximum memory used throughout the entire SCFGRAD-calculation: 23.5 MB
------------------------------------------------------------------------------
                         ORCA GEOMETRY RELAXATION STEP
------------------------------------------------------------------------------

Reading the OPT-File                    .... done
Getting information on internals        .... done
Copying old internal coords+grads       .... done
Making the new internal coordinates     .... (new redundants).... done
Validating the new internal coordinates .... (new redundants).... done
Calculating the B-matrix                .... done
Calculating the G,G- and P matrices     .... done
Transforming gradient to internals      .... done
Projecting the internal gradient        .... done
Number of atoms                         ....  12
Number of internal coordinates          ....  54
Current Energy                          ....  -232.078569674 Eh
Current gradient norm                   ....     0.004141810 Eh/bohr
Maximum allowed component of the step   ....  0.300
Current trust radius                    ....  0.300
Updating the Hessian (BFGS)             .... done
Forming the augmented Hessian           .... done
Diagonalizing the augmented Hessian     .... done
Last element of RFO vector              ....  0.999965068
Lowest eigenvalues of augmented Hessian:
 -0.000037561  0.026173979  0.026174233  0.026174481  0.026174786
Length of the computed step             ....  0.008358655
The final length of the internal step   ....  0.008358655
Converting the step to cartesian space:
 Initial RMS(Int)=    0.0011374689
Transforming coordinates:
 Iter   0:  RMS(Cart)=    0.0021202096 RMS(Int)=    2.4183994176
 Iter   1:  RMS(Cart)=    0.0000000161 RMS(Int)=    0.0000000097
done
Storing new coordinates                 .... done

                                .--------------------.
          ----------------------|Geometry convergence|-------------------------
          Item                value                   Tolerance       Converged
          ---------------------------------------------------------------------
          Energy change      -0.0015023488            0.0000050000      NO
          RMS gradient        0.0006142596            0.0001000000      NO
          MAX gradient        0.0018391703            0.0003000000      NO
          RMS step            0.0011374689            0.0020000000      YES
          MAX step            0.0033637457            0.0040000000      YES
          ........................................................
          Max(Bonds)      0.0018      Max(Angles)    0.00
          Max(Dihed)        0.00      Max(Improp)    0.00
          ---------------------------------------------------------------------

The optimization has not yet converged - more geometry cycles are needed


    ---------------------------------------------------------------------------
                         Redundant Internal Coordinates
                            (Angstroem and degrees)

        Definition                    Value    dE/dq     Step     New-Value
    ----------------------------------------------------------------------------
     1. B(C   1,C   0)                1.4040 -0.001834  0.0018    1.4058   
     2. B(C   2,C   1)                1.4040 -0.001837  0.0018    1.4058   
     3. B(C   3,C   2)                1.4040 -0.001839  0.0018    1.4058   
     4. B(C   4,C   3)                1.4040 -0.001834  0.0018    1.4058   
     5. B(C   5,C   4)                1.4040 -0.001837  0.0018    1.4058   
     6. B(C   5,C   0)                1.4040 -0.001836  0.0018    1.4058   
     7. B(H   6,C   0)                1.1012 -0.000153  0.0003    1.1015   
     8. B(H   7,C   5)                1.1012 -0.000153  0.0003    1.1015   
     9. B(H   8,C   4)                1.1012 -0.000151  0.0003    1.1015   
    10. B(H   9,C   3)                1.1012 -0.000153  0.0003    1.1015   
    11. B(H  10,C   2)                1.1012 -0.000153  0.0003    1.1015   
    12. B(H  11,C   1)                1.1012 -0.000151  0.0003    1.1015   
    13. A(C   1,C   0,C   5)          120.00 -0.000004    0.00    120.00   
    14. A(C   1,C   0,H   6)          120.00 -0.000000    0.00    120.00   
    15. A(C   5,C   0,H   6)          120.00  0.000005   -0.00    120.00   
    16. A(C   0,C   1,H  11)          120.00 -0.000008    0.00    120.00   
    17. A(C   0,C   1,C   2)          120.00  0.000009   -0.00    120.00   
    18. A(C   2,C   1,H  11)          120.00 -0.000001    0.00    120.00   
    19. A(C   3,C   2,H  10)          120.00  0.000006   -0.00    120.00   
    20. A(C   1,C   2,C   3)          120.00 -0.000005    0.00    120.00   
    21. A(C   1,C   2,H  10)          120.00 -0.000002    0.00    120.00   
    22. A(C   4,C   3,H   9)          120.00 -0.000000    0.00    120.00   
    23. A(C   2,C   3,H   9)          120.00  0.000005   -0.00    120.00   
    24. A(C   2,C   3,C   4)          120.00 -0.000005    0.00    120.00   
    25. A(C   5,C   4,H   8)          120.00 -0.000002    0.00    120.00   
    26. A(C   3,C   4,H   8)          120.00 -0.000008    0.00    120.00   
    27. A(C   3,C   4,C   5)          120.00  0.000010   -0.00    120.00   
    28. A(C   0,C   5,C   4)          120.00 -0.000006    0.00    120.00   
    29. A(C   4,C   5,H   7)          120.00 -0.000000    0.00    120.00   
[...]
     22       0.000000  -0.000000  -0.000000   0.000000   0.173772   0.000017
     23       0.468477  -0.326456  -0.484009  -0.296063   0.000000  -0.403193
     24      -0.000000  -0.000000  -0.000000  -0.000000  -0.264882   0.000026
     25      -0.000000   0.000000  -0.000000   0.000000   0.110992  -0.000011
     26      -0.048530  -0.568942  -0.014410   0.567221  -0.000000   0.403218
     27      -0.000000  -0.000000   0.000000   0.000000   0.037129   0.000004
     28       0.000000   0.000000   0.000000   0.000000  -0.284709  -0.000028
     29      -0.516936  -0.242436   0.498435  -0.271169  -0.000000  -0.403160
     30      -0.000000   0.000000   0.000000   0.000000   0.228455  -0.000023
     31       0.000000  -0.000000   0.000000   0.000000   0.173767  -0.000017
     32      -0.468466   0.326466  -0.484054  -0.296040   0.000000   0.403151
     33      -0.000000   0.000000  -0.000000  -0.000000  -0.264883  -0.000026
     34      -0.000000   0.000000  -0.000000  -0.000000   0.110996   0.000011
     35       0.048551   0.568942  -0.014352   0.567212  -0.000000  -0.403233
                 18         19         20         21         22         23    
      0      -0.034898  -0.065801  -0.037973   0.020011   0.054547   0.012472
      1       0.272141   0.064607  -0.089855   0.002605   0.008359  -0.004666
      2       0.000028   0.000000  -0.000000  -0.000000   0.000000  -0.000000
      3      -0.253101   0.006400   0.106333  -0.007783  -0.001164  -0.022510
      4       0.105854  -0.079698  -0.017524  -0.018697  -0.018368  -0.048788
      5      -0.000028  -0.000000   0.000000   0.000000   0.000000  -0.000000
      6      -0.218251   0.095409  -0.028358  -0.012217   0.019138  -0.028764
      7      -0.166234   0.055079   0.071372   0.016118  -0.032942   0.030753
      8       0.000028   0.000000  -0.000000  -0.000000  -0.000000  -0.000000
      9       0.034896  -0.065801  -0.037973   0.020015  -0.054543  -0.012471
     10      -0.272137   0.064608  -0.089855   0.002605  -0.008358   0.004666
     11      -0.000028  -0.000000   0.000000  -0.000000  -0.000000   0.000000
     12       0.253101   0.006399   0.106334  -0.007783   0.001163   0.022509
     13      -0.105855  -0.079696  -0.017524  -0.018698   0.018367   0.048788
     14       0.000028   0.000000  -0.000000   0.000000  -0.000000   0.000000
     15       0.218253   0.095409  -0.028357  -0.012215  -0.019140   0.028764
     16       0.166232   0.055078   0.071373   0.016115   0.032943  -0.030753
     17      -0.000028  -0.000000   0.000000   0.000000  -0.000000   0.000000
     18      -0.038901  -0.422684  -0.343100   0.404238   0.557266   0.119654
     19       0.299827   0.025280  -0.136363   0.051829   0.072614   0.009717
     20      -0.000178  -0.000000   0.000000   0.000000  -0.000000   0.000000
     21       0.240536   0.156403  -0.308657  -0.247049  -0.229771   0.261668
     22       0.183168  -0.009204   0.442210   0.324289   0.308545  -0.337132
     23       0.000177   0.000000  -0.000000  -0.000000   0.000000  -0.000000
     24       0.278956  -0.162772   0.175102  -0.157363   0.063347   0.212422
     25      -0.116437  -0.492566   0.123199  -0.376423   0.165426   0.503490
     26      -0.000178  -0.000000   0.000000  -0.000000  -0.000000   0.000000
     27       0.038896  -0.422690  -0.343106   0.404281  -0.557230  -0.119651
     28      -0.299823   0.025280  -0.136364   0.051835  -0.072610  -0.009717
     29       0.000178   0.000000  -0.000000  -0.000000   0.000000  -0.000000
     30      -0.240531   0.156406  -0.308658  -0.247066   0.229750  -0.261665
     31      -0.183174  -0.009205   0.442211   0.324313  -0.308522   0.337129
     32      -0.000178  -0.000000   0.000000   0.000000   0.000000   0.000000
     33      -0.278959  -0.162771   0.175100  -0.157360  -0.063361  -0.212423
     34       0.116430  -0.492569   0.123195  -0.376412  -0.165456  -0.503489
     35       0.000178   0.000000  -0.000000  -0.000000  -0.000000  -0.000000
                 24         25         26         27         28         29    
      0       0.059975   0.348731   0.122928   0.096808  -0.234797  -0.261008
      1       0.007675   0.044649   0.072550  -0.073449  -0.140551   0.077762
      2       0.000000   0.000000   0.000000  -0.000000  -0.000000  -0.000000
      3       0.023317  -0.135571  -0.097745   0.054855   0.169193   0.102685
      4       0.055697  -0.324134   0.030533   0.147241   0.298914  -0.143419
      5       0.000000  -0.000000  -0.000000   0.000000  -0.000000   0.000000
      6      -0.036597  -0.213133   0.049013  -0.115178  -0.064905  -0.238688
      7       0.048098   0.279528  -0.139575   0.000405  -0.162865   0.247718
      8      -0.000000   0.000000  -0.000000  -0.000000  -0.000000  -0.000000
      9      -0.059977   0.348731   0.122929   0.096807   0.234795   0.261010
     10      -0.007676   0.044647   0.072551  -0.073449   0.140549  -0.077763
     11      -0.000000  -0.000000  -0.000000   0.000000  -0.000000  -0.000000
     12      -0.023316  -0.135570  -0.097746   0.054856  -0.169192  -0.102684
     13      -0.055697  -0.324135   0.030530   0.147240  -0.298915   0.143421
     14       0.000000  -0.000000   0.000000   0.000000   0.000000   0.000000
     15       0.036597  -0.213132   0.049014  -0.115179   0.064905   0.238685
     16      -0.048097   0.279529  -0.139575   0.000406   0.162868  -0.247718
     17      -0.000000   0.000000   0.000000   0.000000   0.000000  -0.000000
     18      -0.400368  -0.206168  -0.448331  -0.277580   0.290984   0.257636
     19      -0.051300  -0.026503   0.012274  -0.140947  -0.087923   0.159160
     20      -0.000000  -0.000000  -0.000000  -0.000000   0.000000  -0.000000
     21      -0.244743   0.125903  -0.332819   0.054522   0.196151  -0.193519
     22       0.321132  -0.165337   0.344433  -0.256623   0.023902   0.328243
     23       0.000000  -0.000000  -0.000000  -0.000000  -0.000000   0.000000
     24       0.155767   0.079925  -0.102953  -0.211683   0.103113  -0.196552
     25       0.372598   0.191336   0.078139  -0.486543   0.366504  -0.029054
     26      -0.000000   0.000000  -0.000000  -0.000000  -0.000000  -0.000000
     27       0.400371  -0.206156  -0.448327  -0.277575  -0.290975  -0.257636
     28       0.051300  -0.026504   0.012275  -0.140947   0.087922  -0.159162
     29       0.000000   0.000000   0.000000  -0.000000  -0.000000   0.000000
     30       0.244745   0.125898  -0.332816   0.054520  -0.196144   0.193515
     31      -0.321135  -0.165335   0.344430  -0.256622  -0.023907  -0.328247
     32       0.000000  -0.000000  -0.000000  -0.000000   0.000000  -0.000000
     33      -0.155765   0.079924  -0.102955  -0.211685  -0.103112   0.196551
     34      -0.372597   0.191336   0.078131  -0.486545  -0.366505   0.029052
     35      -0.000000   0.000000  -0.000000   0.000000  -0.000000  -0.000000
                 30         31         32         33         34         35    
      0       0.004319  -0.005778   0.003360   0.007335  -0.001703  -0.004732
      1      -0.033761   0.048255  -0.008673  -0.048833  -0.014935   0.036977
      2       0.000000  -0.000000   0.000000   0.000000   0.000000  -0.000000
      3      -0.030938   0.014250  -0.042857   0.012606   0.046133  -0.034982
      4       0.012943  -0.008269   0.017088  -0.001320  -0.020235   0.014641
      5      -0.000000   0.000000  -0.000000  -0.000000   0.000000  -0.000000
      6       0.026839   0.024123   0.030868  -0.031508   0.026495  -0.029880
      7       0.020482   0.020559   0.021678  -0.020771   0.023606  -0.022783
      8      -0.000000   0.000000  -0.000000  -0.000000  -0.000000  -0.000000
      9       0.004319   0.005778  -0.003360   0.007335  -0.001703   0.004733
     10      -0.033757  -0.048253   0.008671  -0.048834  -0.014936  -0.036981
     11      -0.000000  -0.000000   0.000000  -0.000000   0.000000  -0.000000
     12      -0.030938  -0.014254   0.042859   0.012601   0.046132   0.034982
     13       0.012942   0.008271  -0.017089  -0.001318  -0.020235  -0.014641
     14       0.000000   0.000000  -0.000000  -0.000000  -0.000000  -0.000000
     15       0.026841  -0.024120  -0.030868  -0.031511   0.026496   0.029878
     16       0.020484  -0.020556  -0.021678  -0.020774   0.023606   0.022782
     17      -0.000000  -0.000000   0.000000  -0.000000  -0.000000  -0.000000
     18      -0.052064   0.071861  -0.015205  -0.070987  -0.016700   0.051181
     19       0.406408  -0.563534   0.104314   0.544847   0.161561  -0.399567
     20      -0.000000   0.000000   0.000000  -0.000000  -0.000000   0.000000
     21      -0.323452   0.293579   0.351105   0.335203  -0.311353  -0.323124
     22      -0.246496   0.225496   0.266024   0.251839  -0.241034  -0.246239
     23       0.000000  -0.000000  -0.000000  -0.000000   0.000000   0.000000
     24       0.372872   0.175798  -0.498115  -0.126298  -0.517056  -0.378613
     25      -0.155922  -0.075421   0.207595   0.048432   0.217255   0.158327
     26      -0.000000  -0.000000   0.000000   0.000000   0.000000   0.000000
     27      -0.052059  -0.071859   0.015203  -0.070990  -0.016703  -0.051188
     28       0.406362   0.563515  -0.104293   0.544866   0.161581   0.399612
     29       0.000000   0.000000  -0.000000   0.000000   0.000000   0.000000
     30      -0.323437  -0.293618  -0.351112   0.335167  -0.311348   0.323142
     31      -0.246484  -0.225525  -0.266028   0.251810  -0.241029   0.246251
     32       0.000000  -0.000000   0.000000   0.000000  -0.000000   0.000000
     33       0.372870  -0.175750   0.498099  -0.126348  -0.517074   0.378617
     34      -0.155921   0.075401  -0.207589   0.048453   0.217263  -0.158329
     35       0.000000  -0.000000   0.000000  -0.000000  -0.000000   0.000000


-----------
IR SPECTRUM
-----------

 Mode   freq       eps      Int      T**2         TX        TY        TZ
       cm**-1   L/(mol*cm) km/mol    a.u.
----------------------------------------------------------------------------
  6:    401.27   0.000000    0.00  0.000000  (-0.000000 -0.000000 -0.000051)
  7:    401.49   0.000000    0.00  0.000000  ( 0.000000 -0.000000  0.000010)
  8:    600.29   0.000000    0.00  0.000000  (-0.000000  0.000000  0.000000)
  9:    600.35   0.000000    0.00  0.000000  ( 0.000000  0.000000 -0.000000)
 10:    668.66   0.016632   84.05  0.007762  ( 0.000000  0.000000  0.088103)
 11:    711.29   0.000000    0.00  0.000000  (-0.000000 -0.000000 -0.000000)
 12:    838.12   0.000000    0.00  0.000000  ( 0.000000 -0.000000  0.000001)
 13:    838.15   0.000000    0.00  0.000000  ( 0.000000 -0.000000  0.000000)
 14:    961.71   0.000000    0.00  0.000000  (-0.000000  0.000000 -0.000021)
 15:    961.73   0.000000    0.00  0.000000  (-0.000000 -0.000000 -0.000026)
 16:    981.54   0.000000    0.00  0.000000  (-0.000017 -0.000003  0.000000)
 17:    995.64   0.000000    0.00  0.000000  ( 0.000000  0.000000  0.000000)
 18:    995.64   0.000000    0.00  0.000000  (-0.000000 -0.000000 -0.000000)
 19:   1030.98   0.001027    5.19  0.000311  (-0.011757 -0.013144  0.000000)
 20:   1031.00   0.001023    5.17  0.000310  (-0.013092  0.011754  0.000000)
 21:   1130.55   0.000000    0.00  0.000000  ( 0.000019  0.000021  0.000000)
 22:   1151.47   0.000000    0.00  0.000000  ( 0.000000  0.000000  0.000000)
 23:   1151.55   0.000000    0.00  0.000000  ( 0.000000 -0.000000  0.000000)
 24:   1317.94   0.000000    0.00  0.000000  ( 0.000000 -0.000000  0.000000)
 25:   1365.95   0.000000    0.00  0.000000  (-0.000014 -0.000039 -0.000000)
 26:   1462.55   0.001269    6.41  0.000271  (-0.014805  0.007181  0.000000)
 27:   1462.64   0.001262    6.38  0.000269  (-0.007187 -0.014754 -0.000000)
 28:   1603.97   0.000000    0.00  0.000000  ( 0.000000 -0.000000  0.000000)
 29:   1604.01   0.000000    0.00  0.000000  ( 0.000000  0.000000  0.000000)
 30:   3092.04   0.000000    0.00  0.000000  ( 0.000022 -0.000143 -0.000000)
 31:   3101.65   0.000000    0.00  0.000000  (-0.000000  0.000001 -0.000000)
 32:   3101.81   0.000000    0.00  0.000000  ( 0.000000 -0.000000 -0.000000)
 33:   3115.70   0.006337   32.02  0.000635  (-0.004161 -0.024847 -0.000000)
 34:   3115.97   0.006308   31.88  0.000632  ( 0.024797 -0.004099 -0.000000)
 35:   3125.03   0.000000    0.00  0.000000  (-0.000000 -0.000001 -0.000000)

* The epsilon (eps) is given for a Dirac delta lineshape.
** The dipole moment derivative (T) already includes vibrational overlap.

The first frequency considered to be a vibration is 6
The total number of vibrations considered is 30


--------------------------
THERMOCHEMISTRY AT 298.15K
--------------------------

Temperature         ... 298.15 K
Pressure            ... 1.00 atm
Total Mass          ... 78.11 AMU

Throughout the following assumptions are being made:
  (1) The electronic state is orbitally nondegenerate
  (2) There are no thermally accessible electronically excited states
  (3) Hindered rotations indicated by low frequency modes are not
      treated as such but are treated as vibrations and this may
      cause some error
  (4) All equations used are the standard statistical mechanics
      equations for an ideal gas
  (5) All vibrations are strictly harmonic

freq.     401.27  E(vib)   ...       0.19 
freq.     401.49  E(vib)   ...       0.19 
freq.     600.29  E(vib)   ...       0.10 
freq.     600.35  E(vib)   ...       0.10 
freq.     668.66  E(vib)   ...       0.08 
freq.     711.29  E(vib)   ...       0.07 
freq.     838.12  E(vib)   ...       0.04 
freq.     838.15  E(vib)   ...       0.04 
freq.     961.71  E(vib)   ...       0.03 
freq.     961.73  E(vib)   ...       0.03 
freq.     981.54  E(vib)   ...       0.02 
freq.     995.64  E(vib)   ...       0.02 
freq.     995.64  E(vib)   ...       0.02 
freq.    1030.98  E(vib)   ...       0.02 
freq.    1031.00  E(vib)   ...       0.02 
freq.    1130.55  E(vib)   ...       0.01 
freq.    1151.47  E(vib)   ...       0.01 
freq.    1151.55  E(vib)   ...       0.01 
freq.    1317.94  E(vib)   ...       0.01 
freq.    1365.95  E(vib)   ...       0.01 
freq.    1462.55  E(vib)   ...       0.00 
freq.    1462.64  E(vib)   ...       0.00 
freq.    1603.97  E(vib)   ...       0.00 
freq.    1604.01  E(vib)   ...       0.00 
freq.    3092.04  E(vib)   ...       0.00 
freq.    3101.65  E(vib)   ...       0.00 
freq.    3101.81  E(vib)   ...       0.00 
freq.    3115.70  E(vib)   ...       0.00 
freq.    3115.97  E(vib)   ...       0.00 
freq.    3125.03  E(vib)   ...       0.00 

------------
INNER ENERGY
------------

The inner energy is: U= E(el) + E(ZPE) + E(vib) + E(rot) + E(trans)
    E(el)   - is the total energy from the electronic structure calculation
              = E(kin-el) + E(nuc-el) + E(el-el) + E(nuc-nuc)
    E(ZPE)  - the the zero temperature vibrational energy from the frequency calculation
    E(vib)  - the the finite temperature correction to E(ZPE) due to population
              of excited vibrational states
    E(rot)  - is the rotational thermal energy
    E(trans)- is the translational thermal energy

Summary of contributions to the inner energy U:
Electronic energy                ...   -232.07859027 Eh
Zero point energy                ...      0.09778051 Eh      61.36 kcal/mol
Thermal vibrational correction   ...      0.00167083 Eh       1.05 kcal/mol
Thermal rotational correction    ...      0.00141627 Eh       0.89 kcal/mol
Thermal translational correction ...      0.00141627 Eh       0.89 kcal/mol
-----------------------------------------------------------------------
Total thermal energy                   -231.97630639 Eh


Summary of corrections to the electronic energy:
(perhaps to be used in another calculation)
Total thermal correction                  0.00450337 Eh       2.83 kcal/mol
Non-thermal (ZPE) correction              0.09778051 Eh      61.36 kcal/mol
-----------------------------------------------------------------------
Total correction                          0.10228388 Eh      64.18 kcal/mol


--------
ENTHALPY
--------

The enthalpy is H = U + kB*T
                kB is Boltzmann's constant
Total free energy                 ...   -231.97630639 Eh 
Thermal Enthalpy correction       ...      0.00094421 Eh       0.59 kcal/mol
-----------------------------------------------------------------------
Total Enthalpy                    ...   -231.97536218 Eh


Note: Rotational entropy computed according to Herzberg 
Infrared and Raman Spectra, Chapter V,1, Van Nostrand Reinhold, 1945 
Point Group:  D2h, Symmetry Number:   4  
Rotational constants in cm-1:     0.186814     0.186796     0.093402 

Vibrational entropy computed according to the QRRHO of S. Grimme
Chem.Eur.J. 2012 18 9955


-------
ENTROPY
-------

The entropy contributions are T*S = T*(S(el)+S(vib)+S(rot)+S(trans))
     S(el)   - electronic entropy
     S(vib)  - vibrational entropy
     S(rot)  - rotational entropy
     S(trans)- translational entropy
The entropies will be listed as multiplied by the temperature to get
units of energy

Electronic entropy                ...      0.00000000 Eh      0.00 kcal/mol
Vibrational entropy               ...      0.00224946 Eh      1.41 kcal/mol
Rotational entropy                ...      0.01090519 Eh      6.84 kcal/mol
Translational entropy             ...      0.01852142 Eh     11.62 kcal/mol
-----------------------------------------------------------------------
Final entropy term                ...      0.03167608 Eh     19.88 kcal/mol

In case the symmetry of your molecule has not been determined correctly
or in case you have a reason to use a different symmetry number we print 
out the resulting rotational entropy values for sn=1,12 :
 --------------------------------------------------------
|  sn= 1 | S(rot)=       0.01221410 Eh      7.66 kcal/mol|
|  sn= 2 | S(rot)=       0.01155965 Eh      7.25 kcal/mol|
|  sn= 3 | S(rot)=       0.01117681 Eh      7.01 kcal/mol|
|  sn= 4 | S(rot)=       0.01090519 Eh      6.84 kcal/mol|
|  sn= 5 | S(rot)=       0.01069450 Eh      6.71 kcal/mol|
|  sn= 6 | S(rot)=       0.01052236 Eh      6.60 kcal/mol|
|  sn= 7 | S(rot)=       0.01037681 Eh      6.51 kcal/mol|
|  sn= 8 | S(rot)=       0.01025073 Eh      6.43 kcal/mol|
|  sn= 9 | S(rot)=       0.01013953 Eh      6.36 kcal/mol|
|  sn=10 | S(rot)=       0.01004005 Eh      6.30 kcal/mol|
|  sn=11 | S(rot)=       0.00995006 Eh      6.24 kcal/mol|
|  sn=12 | S(rot)=       0.00986790 Eh      6.19 kcal/mol|
 --------------------------------------------------------


-------------------
GIBBS FREE ENERGY
-------------------

The Gibbs free energy is G = H - T*S

Total enthalpy                    ...   -231.97536218 Eh 
Total entropy correction          ...     -0.03167608 Eh    -19.88 kcal/mol
-----------------------------------------------------------------------
Final Gibbs free energy         ...   -232.00703825 Eh

For completeness - the Gibbs free energy minus the electronic energy
G-E(el)                           ...      0.07155201 Eh     44.90 kcal/mol


Timings for individual modules:

Sum of individual times         ...      194.413 sec (=   3.240 min)
GTO integral calculation        ...        1.018 sec (=   0.017 min)   0.5 %
SCF iterations                  ...       28.265 sec (=   0.471 min)  14.5 %
SCF Gradient evaluation         ...       16.504 sec (=   0.275 min)   8.5 %
Geometry relaxation             ...        0.266 sec (=   0.004 min)   0.1 %
Analytical frequency calculation...      148.360 sec (=   2.473 min)  76.3 %
                             ****ORCA TERMINATED NORMALLY****
TOTAL RUN TIME: 0 days 0 hours 3 minutes 15 seconds 401 msec
